LIGGGHTS (Version LIGGGHTS-PUBLIC 3.8.0, compiled 2025-02-21-09:36:36 by nip-demsimulation, git commit 3d5c00f20519e6bb6eb6756f51f1ad36564e649d)
### Initialization

# Preliminaries
units           si
atom_style      sphere
atom_modify     map array
boundary        f f f
newton          off
echo            both
communicate     single vel yes
processors      * * *

# Declare domain
region          reg block -0.050 0.050 -0.050 0.050 -0.100 1.000 units box #orig 0.7000
create_box      3 reg
Created orthogonal box = (-0.05 -0.05 -0.1) to (0.05 0.05 1)
  1 by 1 by 8 MPI processor grid
neighbor        0.01 bin
neigh_modify    delay 0

### Setup

# Material and interaction properties
fix             m1 all property/global youngsModulus peratomtype 1e8 1e9 1e9
fix             m2 all property/global poissonsRatio peratomtype 0.25 0.43 0.25
fix             m3 all property/global coefficientRestitution peratomtypepair 3 0.9999 0.9999 0.98 0.9999 0.9999 0.98 0.98 0.98 0.98 # 11 12 13 21 22 23 31 32 33
fix             m4 all property/global coefficientFriction peratomtypepair 3 0.9 0.5 0.0 0.5 0.5 0.0 0.0 0.0 0.0  #11, 12, 21, 22 interaction
fix             m5 all property/global coefficientRollingFriction peratomtypepair 3 0.1 0.1 0.1 0.1 0.1 0.1 0.1 0.1 0.1

# Particle insertion

fix             small all particletemplate/sphere 10000019 atom_type 1 density constant 2500 radius constant 0.001
fix             big all particletemplate/sphere 10000079 atom_type 2 density constant 250 radius constant 0.003
fix             small_dist all particledistribution/discrete 10000103 1 small 1mes
fix             big_dist all particledistribution/discrete 10000121 1 big 1

group           small type 1
0 atoms in group small
group           big type 2
0 atoms in group big

# Import mesh from cad:
fix             cad1 all mesh/surface file trashcan25mm.stl type 3 scale 0.001 curvature 1e-5
fix             cad2 all mesh/surface file lid.stl type 3 scale 0.001 move 0 0 0.400  curvature 1e-5

# Use the imported mesh as granular wall
fix             granwalls all wall/gran model hertz tangential history rolling_friction cdt mesh n_meshes 2 meshes cad1 cad2

# Define the physics
pair_style      gran model hertz tangential history rolling_friction cdt
pair_coeff      * *

hard_particles  yes

### Detailed settings

# Integrator
fix             1 all nve/sphere

# Gravity
fix             grav all gravity 9.81 vector 0.0 0.0 -1.0

# Timestep
timestep        0.00000625

#File Output
dump        big_data big custom/vtk 6400 post/big_*.vtk id type type x y z ix iy iz vx vy vz fx fy fz omegax omegay omegaz radius
dump        small_data small custom/vtk 6400 post/small_*.vtk id type type x y z ix iy iz vx vy vz fx fy fz omegax omegay omegaz radius
dump		dmpcad1 all mesh/stl 6400 post/can_*.stl cad1
dump		dmpcad2 all mesh/stl 6400 post/lid_*.stl cad2

### Execution and further settings

# Insert particles
#Small Particles
region          insertion_small cylinder z 0.000 0.000 0.015 0.100 0.190
fix             ins_small small insert/rate/region seed 10000141 distributiontemplate small_dist verbose yes nparticles 6000 particlerate 9000 insert_every 10 start 1 overlapcheck yes vel constant 0.0 0.0 -0.001 all_in yes region insertion_small

#Big Particles
region          insertion_big cylinder z 0.000 0.000 0.020 0.200 0.300
fix             ins_big big insert/rate/region seed 10000141 distributiontemplate big_dist verbose yes nparticles 70 particlerate 160 insert_every 10 start 10 overlapcheck yes vel constant 0.0 0.0 -0.001 all_in yes region insertion_big

run             640000 upto # 4 secs
Setting up run at Fri Feb 21 11:17:52 2025

WARNING: Fix mesh: Mesh contains highly skewed element, moving mesh (if used) will not parallelize well (../surface_mesh_I.h:657)
INFO: Particle insertion ins_small: 0.562500 particles every 10 steps - particle rate 9000.000000, (mass rate 9.424778e-02)
      6000 particles (mass 6.283185e-02) within 106660 steps
INFO: Particle insertion ins_big: 0.010000 particles every 10 steps - particle rate 160.000000, (mass rate 4.523893e-03)
      70 particles (mass 1.979203e-03) within 70000 steps
Memory usage per processor = 9.27507 Mbytes
    Step    Atoms         KinEng            CPU 
       0        0              0              0 
WARNING: Particle insertion: Inserting no particle - check particle insertion settings (../fix_insert.cpp:703)
WARNING: Particle insertion: Inserting no particle - check particle insertion settings (../fix_insert.cpp:703)
WARNING: Particle insertion: Inserting no particle - check particle insertion settings (../fix_insert.cpp:703)
WARNING: Particle insertion: Inserting no particle - check particle insertion settings (../fix_insert.cpp:703)
INFO: Particle insertion ins_small: inserted 1 particle templates (mass 1.047198e-05) at step 21
 - a total of 1 particle templates (mass 1.047198e-05) inserted so far.
WARNING: Particle insertion: Inserting no particle - check particle insertion settings (../fix_insert.cpp:703)
INFO: Particle insertion ins_small: inserted 1 particle templates (mass 1.047198e-05) at step 31
 - a total of 2 particle templates (mass 2.094395e-05) inserted so far.
WARNING: Particle insertion: Inserting no particle - check particle insertion settings (../fix_insert.cpp:703)
INFO: Particle insertion ins_small: inserted 1 particle templates (mass 1.047198e-05) at step 41
 - a total of 3 particle templates (mass 3.141593e-05) inserted so far.
WARNING: Particle insertion: Inserting no particle - check particle insertion settings (../fix_insert.cpp:703)
INFO: Particle insertion ins_small: inserted 1 particle templates (mass 1.047198e-05) at step 51
 - a total of 4 particle templates (mass 4.188790e-05) inserted so far.
WARNING: Particle insertion: Inserting no particle - check particle insertion settings (../fix_insert.cpp:703)
INFO: Particle insertion ins_small: inserted 1 particle templates (mass 1.047198e-05) at step 61
 - a total of 5 particle templates (mass 5.235988e-05) inserted so far.
WARNING: Particle insertion: Inserting no particle - check particle insertion settings (../fix_insert.cpp:703)
INFO: Particle insertion ins_small: inserted 1 particle templates (mass 1.047198e-05) at step 71
 - a total of 6 particle templates (mass 6.283185e-05) inserted so far.
WARNING: Particle insertion: Inserting no particle - check particle insertion settings (../fix_insert.cpp:703)
INFO: Particle insertion ins_small: inserted 1 particle templates (mass 1.047198e-05) at step 81
 - a total of 7 particle templates (mass 7.330383e-05) inserted so far.
WARNING: Particle insertion: Inserting no particle - check particle insertion settings (../fix_insert.cpp:703)
INFO: Particle insertion ins_small: inserted 1 particle templates (mass 1.047198e-05) at step 91
 - a total of 8 particle templates (mass 8.377580e-05) inserted so far.
WARNING: Particle insertion: Inserting no particle - check particle insertion settings (../fix_insert.cpp:703)
INFO: Particle insertion ins_small: inserted 1 particle templates (mass 1.047198e-05) at step 101
 - a total of 9 particle templates (mass 9.424778e-05) inserted so far.
WARNING: Particle insertion: Inserting no particle - check particle insertion settings (../fix_insert.cpp:703)
INFO: Particle insertion ins_small: inserted 1 particle templates (mass 1.047198e-05) at step 111
 - a total of 10 particle templates (mass 1.047198e-04) inserted so far.
WARNING: Particle insertion: Inserting no particle - check particle insertion settings (../fix_insert.cpp:703)
INFO: Particle insertion ins_small: inserted 1 particle templates (mass 1.047198e-05) at step 121
 - a total of 11 particle templates (mass 1.151917e-04) inserted so far.
WARNING: Particle insertion: Inserting no particle - check particle insertion settings (../fix_insert.cpp:703)
WARNING: Particle insertion: Inserting no particle - check particle insertion settings (../fix_insert.cpp:703)
WARNING: Particle insertion: Inserting no particle - check particle insertion settings (../fix_insert.cpp:703)
WARNING: Particle insertion: Inserting no particle - check particle insertion settings (../fix_insert.cpp:703)
WARNING: Particle insertion: Inserting no particle - check particle insertion settings (../fix_insert.cpp:703)
INFO: Particle insertion ins_small: inserted 1 particle templates (mass 1.047198e-05) at step 151
 - a total of 12 particle templates (mass 1.256637e-04) inserted so far.
WARNING: Particle insertion: Inserting no particle - check particle insertion settings (../fix_insert.cpp:703)
WARNING: Particle insertion: Inserting no particle - check particle insertion settings (../fix_insert.cpp:703)
WARNING: Particle insertion: Inserting no particle - check particle insertion settings (../fix_insert.cpp:703)
INFO: Particle insertion ins_small: inserted 1 particle templates (mass 1.047198e-05) at step 171
 - a total of 13 particle templates (mass 1.361357e-04) inserted so far.
WARNING: Particle insertion: Inserting no particle - check particle insertion settings (../fix_insert.cpp:703)
INFO: Particle insertion ins_small: inserted 1 particle templates (mass 1.047198e-05) at step 181
 - a total of 14 particle templates (mass 1.466077e-04) inserted so far.
WARNING: Particle insertion: Inserting no particle - check particle insertion settings (../fix_insert.cpp:703)
INFO: Particle insertion ins_small: inserted 1 particle templates (mass 1.047198e-05) at step 191
 - a total of 15 particle templates (mass 1.570796e-04) inserted so far.
WARNING: Particle insertion: Inserting no particle - check particle insertion settings (../fix_insert.cpp:703)
INFO: Particle insertion ins_small: inserted 1 particle templates (mass 1.047198e-05) at step 201
 - a total of 16 particle templates (mass 1.675516e-04) inserted so far.
WARNING: Particle insertion: Inserting no particle - check particle insertion settings (../fix_insert.cpp:703)
INFO: Particle insertion ins_small: inserted 1 particle templates (mass 1.047198e-05) at step 211
 - a total of 17 particle templates (mass 1.780236e-04) inserted so far.
WARNING: Particle insertion: Inserting no particle - check particle insertion settings (../fix_insert.cpp:703)
WARNING: Particle insertion: Inserting no particle - check particle insertion settings (../fix_insert.cpp:703)
WARNING: Particle insertion: Inserting no particle - check particle insertion settings (../fix_insert.cpp:703)
INFO: Particle insertion ins_small: inserted 1 particle templates (mass 1.047198e-05) at step 231
 - a total of 18 particle templates (mass 1.884956e-04) inserted so far.
WARNING: Particle insertion: Inserting no particle - check particle insertion settings (../fix_insert.cpp:703)
INFO: Particle insertion ins_small: inserted 1 particle templates (mass 1.047198e-05) at step 241
 - a total of 19 particle templates (mass 1.989675e-04) inserted so far.
WARNING: Particle insertion: Inserting no particle - check particle insertion settings (../fix_insert.cpp:703)
INFO: Particle insertion ins_small: inserted 1 particle templates (mass 1.047198e-05) at step 251
 - a total of 20 particle templates (mass 2.094395e-04) inserted so far.
WARNING: Particle insertion: Inserting no particle - check particle insertion settings (../fix_insert.cpp:703)
WARNING: Particle insertion: Inserting no particle - check particle insertion settings (../fix_insert.cpp:703)
WARNING: Particle insertion: Inserting no particle - check particle insertion settings (../fix_insert.cpp:703)
WARNING: Particle insertion: Inserting no particle - check particle insertion settings (../fix_insert.cpp:703)
WARNING: Particle insertion: Inserting no particle - check particle insertion settings (../fix_insert.cpp:703)
WARNING: Particle insertion: Inserting no particle - check particle insertion settings (../fix_insert.cpp:703)
WARNING: Particle insertion: Inserting no particle - check particle insertion settings (../fix_insert.cpp:703)
INFO: Particle insertion ins_small: inserted 1 particle templates (mass 1.047198e-05) at step 291
 - a total of 21 particle templates (mass 2.199115e-04) inserted so far.
WARNING: Particle insertion: Inserting no particle - check particle insertion settings (../fix_insert.cpp:703)
WARNING: Particle insertion: Inserting no particle - check particle insertion settings (../fix_insert.cpp:703)
WARNING: Particle insertion: Inserting no particle - check particle insertion settings (../fix_insert.cpp:703)
INFO: Particle insertion ins_small: inserted 1 particle templates (mass 1.047198e-05) at step 311
 - a total of 22 particle templates (mass 2.303835e-04) inserted so far.
WARNING: Particle insertion: Inserting no particle - check particle insertion settings (../fix_insert.cpp:703)
INFO: Particle insertion ins_small: inserted 1 particle templates (mass 1.047198e-05) at step 321
 - a total of 23 particle templates (mass 2.408554e-04) inserted so far.
WARNING: Particle insertion: Inserting no particle - check particle insertion settings (../fix_insert.cpp:703)
WARNING: Particle insertion: Inserting no particle - check particle insertion settings (../fix_insert.cpp:703)
WARNING: Particle insertion: Inserting no particle - check particle insertion settings (../fix_insert.cpp:703)
WARNING: Particle insertion: Inserting no particle - check particle insertion settings (../fix_insert.cpp:703)
WARNING: Particle insertion: Inserting no particle - check particle insertion settings (../fix_insert.cpp:703)
WARNING: Particle insertion: Inserting no particle - check particle insertion settings (../fix_insert.cpp:703)
WARNING: Particle insertion: Inserting no particle - check particle insertion settings (../fix_insert.cpp:703)
INFO: Particle insertion ins_small: inserted 1 particle templates (mass 1.047198e-05) at step 361
 - a total of 24 particle templates (mass 2.513274e-04) inserted so far.
WARNING: Particle insertion: Inserting no particle - check particle insertion settings (../fix_insert.cpp:703)
WARNING: Particle insertion: Inserting no particle - check particle insertion settings (../fix_insert.cpp:703)
WARNING: Particle insertion: Inserting no particle - check particle insertion settings (../fix_insert.cpp:703)
WARNING: Particle insertion: Inserting no particle - check particle insertion settings (../fix_insert.cpp:703)
WARNING: Particle insertion: Inserting no particle - check particle insertion settings (../fix_insert.cpp:703)
WARNING: Particle insertion: Inserting no particle - check particle insertion settings (../fix_insert.cpp:703)
WARNING: Particle insertion: Inserting no particle - check particle insertion settings (../fix_insert.cpp:703)
WARNING: Particle insertion: Inserting no particle - check particle insertion settings (../fix_insert.cpp:703)
WARNING: Particle insertion: Inserting no particle - check particle insertion settings (../fix_insert.cpp:703)
INFO: Particle insertion ins_small: inserted 1 particle templates (mass 1.047198e-05) at step 411
 - a total of 25 particle templates (mass 2.617994e-04) inserted so far.
WARNING: Particle insertion: Inserting no particle - check particle insertion settings (../fix_insert.cpp:703)
INFO: Particle insertion ins_small: inserted 1 particle templates (mass 1.047198e-05) at step 421
 - a total of 26 particle templates (mass 2.722714e-04) inserted so far.
WARNING: Particle insertion: Inserting no particle - check particle insertion settings (../fix_insert.cpp:703)
WARNING: Particle insertion: Inserting no particle - check particle insertion settings (../fix_insert.cpp:703)
WARNING: Particle insertion: Inserting no particle - check particle insertion settings (../fix_insert.cpp:703)
INFO: Particle insertion ins_small: inserted 1 particle templates (mass 1.047198e-05) at step 441
 - a total of 27 particle templates (mass 2.827433e-04) inserted so far.
WARNING: Particle insertion: Inserting no particle - check particle insertion settings (../fix_insert.cpp:703)
WARNING: Particle insertion: Inserting no particle - check particle insertion settings (../fix_insert.cpp:703)
WARNING: Particle insertion: Inserting no particle - check particle insertion settings (../fix_insert.cpp:703)
WARNING: Particle insertion: Inserting no particle - check particle insertion settings (../fix_insert.cpp:703)
WARNING: Particle insertion: Inserting no particle - check particle insertion settings (../fix_insert.cpp:703)
INFO: Particle insertion ins_small: inserted 1 particle templates (mass 1.047198e-05) at step 471
 - a total of 28 particle templates (mass 2.932153e-04) inserted so far.
WARNING: Particle insertion: Inserting no particle - check particle insertion settings (../fix_insert.cpp:703)
WARNING: Particle insertion: Inserting no particle - check particle insertion settings (../fix_insert.cpp:703)
WARNING: Particle insertion: Inserting no particle - check particle insertion settings (../fix_insert.cpp:703)
INFO: Particle insertion ins_small: inserted 1 particle templates (mass 1.047198e-05) at step 491
 - a total of 29 particle templates (mass 3.036873e-04) inserted so far.
WARNING: Particle insertion: Inserting no particle - check particle insertion settings (../fix_insert.cpp:703)
WARNING: Particle insertion: Inserting no particle - check particle insertion settings (../fix_insert.cpp:703)
WARNING: Particle insertion: Inserting no particle - check particle insertion settings (../fix_insert.cpp:703)
INFO: Particle insertion ins_small: inserted 1 particle templates (mass 1.047198e-05) at step 511
 - a total of 30 particle templates (mass 3.141593e-04) inserted so far.
WARNING: Particle insertion: Inserting no particle - check particle insertion settings (../fix_insert.cpp:703)
WARNING: Particle insertion: Inserting no particle - check particle insertion settings (../fix_insert.cpp:703)
WARNING: Particle insertion: Inserting no particle - check particle insertion settings (../fix_insert.cpp:703)
WARNING: Particle insertion: Inserting no particle - check particle insertion settings (../fix_insert.cpp:703)
WARNING: Particle insertion: Inserting no particle - check particle insertion settings (../fix_insert.cpp:703)
INFO: Particle insertion ins_small: inserted 1 particle templates (mass 1.047198e-05) at step 541
 - a total of 31 particle templates (mass 3.246312e-04) inserted so far.
WARNING: Particle insertion: Inserting no particle - check particle insertion settings (../fix_insert.cpp:703)
INFO: Particle insertion ins_small: inserted 1 particle templates (mass 1.047198e-05) at step 551
 - a total of 32 particle templates (mass 3.351032e-04) inserted so far.
WARNING: Particle insertion: Inserting no particle - check particle insertion settings (../fix_insert.cpp:703)
INFO: Particle insertion ins_small: inserted 1 particle templates (mass 1.047198e-05) at step 561
 - a total of 33 particle templates (mass 3.455752e-04) inserted so far.
WARNING: Particle insertion: Inserting no particle - check particle insertion settings (../fix_insert.cpp:703)
INFO: Particle insertion ins_small: inserted 1 particle templates (mass 1.047198e-05) at step 571
 - a total of 34 particle templates (mass 3.560472e-04) inserted so far.
WARNING: Particle insertion: Inserting no particle - check particle insertion settings (../fix_insert.cpp:703)
INFO: Particle insertion ins_small: inserted 1 particle templates (mass 1.047198e-05) at step 581
 - a total of 35 particle templates (mass 3.665191e-04) inserted so far.
WARNING: Particle insertion: Inserting no particle - check particle insertion settings (../fix_insert.cpp:703)
WARNING: Particle insertion: Inserting no particle - check particle insertion settings (../fix_insert.cpp:703)
WARNING: Particle insertion: Inserting no particle - check particle insertion settings (../fix_insert.cpp:703)
INFO: Particle insertion ins_small: inserted 1 particle templates (mass 1.047198e-05) at step 601
 - a total of 36 particle templates (mass 3.769911e-04) inserted so far.
WARNING: Particle insertion: Inserting no particle - check particle insertion settings (../fix_insert.cpp:703)
WARNING: Particle insertion: Inserting no particle - check particle insertion settings (../fix_insert.cpp:703)
WARNING: Particle insertion: Inserting no particle - check particle insertion settings (../fix_insert.cpp:703)
INFO: Particle insertion ins_small: inserted 1 particle templates (mass 1.047198e-05) at step 621
 - a total of 37 particle templates (mass 3.874631e-04) inserted so far.
WARNING: Particle insertion: Inserting no particle - check particle insertion settings (../fix_insert.cpp:703)
INFO: Particle insertion ins_small: inserted 1 particle templates (mass 1.047198e-05) at step 631
 - a total of 38 particle templates (mass 3.979351e-04) inserted so far.
WARNING: Particle insertion: Inserting no particle - check particle insertion settings (../fix_insert.cpp:703)
WARNING: Particle insertion: Inserting no particle - check particle insertion settings (../fix_insert.cpp:703)
WARNING: Particle insertion: Inserting no particle - check particle insertion settings (../fix_insert.cpp:703)
WARNING: Particle insertion: Inserting no particle - check particle insertion settings (../fix_insert.cpp:703)
WARNING: Particle insertion: Inserting no particle - check particle insertion settings (../fix_insert.cpp:703)
INFO: Particle insertion ins_small: inserted 1 particle templates (mass 1.047198e-05) at step 661
 - a total of 39 particle templates (mass 4.084070e-04) inserted so far.
WARNING: Particle insertion: Inserting no particle - check particle insertion settings (../fix_insert.cpp:703)
WARNING: Particle insertion: Inserting no particle - check particle insertion settings (../fix_insert.cpp:703)
WARNING: Particle insertion: Inserting no particle - check particle insertion settings (../fix_insert.cpp:703)
WARNING: Particle insertion: Inserting no particle - check particle insertion settings (../fix_insert.cpp:703)
WARNING: Particle insertion: Inserting no particle - check particle insertion settings (../fix_insert.cpp:703)
INFO: Particle insertion ins_small: inserted 1 particle templates (mass 1.047198e-05) at step 691
 - a total of 40 particle templates (mass 4.188790e-04) inserted so far.
WARNING: Particle insertion: Inserting no particle - check particle insertion settings (../fix_insert.cpp:703)
WARNING: Particle insertion: Inserting no particle - check particle insertion settings (../fix_insert.cpp:703)
WARNING: Particle insertion: Inserting no particle - check particle insertion settings (../fix_insert.cpp:703)
WARNING: Particle insertion: Inserting no particle - check particle insertion settings (../fix_insert.cpp:703)
WARNING: Particle insertion: Inserting no particle - check particle insertion settings (../fix_insert.cpp:703)
INFO: Particle insertion ins_small: inserted 1 particle templates (mass 1.047198e-05) at step 721
 - a total of 41 particle templates (mass 4.293510e-04) inserted so far.
WARNING: Particle insertion: Inserting no particle - check particle insertion settings (../fix_insert.cpp:703)
WARNING: Particle insertion: Inserting no particle - check particle insertion settings (../fix_insert.cpp:703)
WARNING: Particle insertion: Inserting no particle - check particle insertion settings (../fix_insert.cpp:703)
INFO: Particle insertion ins_small: inserted 1 particle templates (mass 1.047198e-05) at step 741
 - a total of 42 particle templates (mass 4.398230e-04) inserted so far.
WARNING: Particle insertion: Inserting no particle - check particle insertion settings (../fix_insert.cpp:703)
WARNING: Particle insertion: Inserting no particle - check particle insertion settings (../fix_insert.cpp:703)
WARNING: Particle insertion: Inserting no particle - check particle insertion settings (../fix_insert.cpp:703)
INFO: Particle insertion ins_small: inserted 1 particle templates (mass 1.047198e-05) at step 761
 - a total of 43 particle templates (mass 4.502949e-04) inserted so far.
WARNING: Particle insertion: Inserting no particle - check particle insertion settings (../fix_insert.cpp:703)
WARNING: Particle insertion: Inserting no particle - check particle insertion settings (../fix_insert.cpp:703)
WARNING: Particle insertion: Inserting no particle - check particle insertion settings (../fix_insert.cpp:703)
WARNING: Particle insertion: Inserting no particle - check particle insertion settings (../fix_insert.cpp:703)
INFO: Particle insertion ins_big: inserted 1 particle templates (mass 2.827433e-05) at step 790
 - a total of 1 particle templates (mass 2.827433e-05) inserted so far.
WARNING: Particle insertion: Inserting no particle - check particle insertion settings (../fix_insert.cpp:703)
WARNING: Particle insertion: Inserting no particle - check particle insertion settings (../fix_insert.cpp:703)
WARNING: Particle insertion: Inserting no particle - check particle insertion settings (../fix_insert.cpp:703)
WARNING: Particle insertion: Inserting no particle - check particle insertion settings (../fix_insert.cpp:703)
INFO: Particle insertion ins_small: inserted 1 particle templates (mass 1.047198e-05) at step 811
 - a total of 44 particle templates (mass 4.607669e-04) inserted so far.
WARNING: Particle insertion: Inserting no particle - check particle insertion settings (../fix_insert.cpp:703)
WARNING: Particle insertion: Inserting no particle - check particle insertion settings (../fix_insert.cpp:703)
WARNING: Particle insertion: Inserting no particle - check particle insertion settings (../fix_insert.cpp:703)
INFO: Particle insertion ins_small: inserted 1 particle templates (mass 1.047198e-05) at step 831
 - a total of 45 particle templates (mass 4.712389e-04) inserted so far.
WARNING: Particle insertion: Inserting no particle - check particle insertion settings (../fix_insert.cpp:703)
WARNING: Particle insertion: Inserting no particle - check particle insertion settings (../fix_insert.cpp:703)
WARNING: Particle insertion: Inserting no particle - check particle insertion settings (../fix_insert.cpp:703)
INFO: Particle insertion ins_small: inserted 1 particle templates (mass 1.047198e-05) at step 851
 - a total of 46 particle templates (mass 4.817109e-04) inserted so far.
WARNING: Particle insertion: Inserting no particle - check particle insertion settings (../fix_insert.cpp:703)
INFO: Particle insertion ins_small: inserted 1 particle templates (mass 1.047198e-05) at step 861
 - a total of 47 particle templates (mass 4.921828e-04) inserted so far.
WARNING: Particle insertion: Inserting no particle - check particle insertion settings (../fix_insert.cpp:703)
WARNING: Particle insertion: Inserting no particle - check particle insertion settings (../fix_insert.cpp:703)
WARNING: Particle insertion: Inserting no particle - check particle insertion settings (../fix_insert.cpp:703)
WARNING: Particle insertion: Inserting no particle - check particle insertion settings (../fix_insert.cpp:703)
WARNING: Particle insertion: Inserting no particle - check particle insertion settings (../fix_insert.cpp:703)
INFO: Particle insertion ins_small: inserted 1 particle templates (mass 1.047198e-05) at step 891
 - a total of 48 particle templates (mass 5.026548e-04) inserted so far.
WARNING: Particle insertion: Inserting no particle - check particle insertion settings (../fix_insert.cpp:703)
WARNING: Particle insertion: Inserting no particle - check particle insertion settings (../fix_insert.cpp:703)
WARNING: Particle insertion: Inserting no particle - check particle insertion settings (../fix_insert.cpp:703)
INFO: Particle insertion ins_small: inserted 1 particle templates (mass 1.047198e-05) at step 911
 - a total of 49 particle templates (mass 5.131268e-04) inserted so far.
WARNING: Particle insertion: Inserting no particle - check particle insertion settings (../fix_insert.cpp:703)
INFO: Particle insertion ins_small: inserted 1 particle templates (mass 1.047198e-05) at step 921
 - a total of 50 particle templates (mass 5.235988e-04) inserted so far.
WARNING: Particle insertion: Inserting no particle - check particle insertion settings (../fix_insert.cpp:703)
INFO: Particle insertion ins_small: inserted 1 particle templates (mass 1.047198e-05) at step 931
 - a total of 51 particle templates (mass 5.340708e-04) inserted so far.
WARNING: Particle insertion: Inserting no particle - check particle insertion settings (../fix_insert.cpp:703)
INFO: Particle insertion ins_small: inserted 1 particle templates (mass 1.047198e-05) at step 941
 - a total of 52 particle templates (mass 5.445427e-04) inserted so far.
WARNING: Particle insertion: Inserting no particle - check particle insertion settings (../fix_insert.cpp:703)
INFO: Particle insertion ins_small: inserted 1 particle templates (mass 1.047198e-05) at step 951
 - a total of 53 particle templates (mass 5.550147e-04) inserted so far.
WARNING: Particle insertion: Inserting no particle - check particle insertion settings (../fix_insert.cpp:703)
WARNING: Particle insertion: Inserting no particle - check particle insertion settings (../fix_insert.cpp:703)
WARNING: Particle insertion: Inserting no particle - check particle insertion settings (../fix_insert.cpp:703)
INFO: Particle insertion ins_small: inserted 1 particle templates (mass 1.047198e-05) at step 971
 - a total of 54 particle templates (mass 5.654867e-04) inserted so far.
WARNING: Particle insertion: Inserting no particle - check particle insertion settings (../fix_insert.cpp:703)
INFO: Particle insertion ins_small: inserted 1 particle templates (mass 1.047198e-05) at step 981
 - a total of 55 particle templates (mass 5.759587e-04) inserted so far.
WARNING: Particle insertion: Inserting no particle - check particle insertion settings (../fix_insert.cpp:703)
INFO: Particle insertion ins_small: inserted 1 particle templates (mass 1.047198e-05) at step 991
 - a total of 56 particle templates (mass 5.864306e-04) inserted so far.
WARNING: Particle insertion: Inserting no particle - check particle insertion settings (../fix_insert.cpp:703)
INFO: Particle insertion ins_small: inserted 1 particle templates (mass 1.047198e-05) at step 1001
 - a total of 57 particle templates (mass 5.969026e-04) inserted so far.
WARNING: Particle insertion: Inserting no particle - check particle insertion settings (../fix_insert.cpp:703)
INFO: Particle insertion ins_small: inserted 1 particle templates (mass 1.047198e-05) at step 1011
 - a total of 58 particle templates (mass 6.073746e-04) inserted so far.
WARNING: Particle insertion: Inserting no particle - check particle insertion settings (../fix_insert.cpp:703)
INFO: Particle insertion ins_small: inserted 1 particle templates (mass 1.047198e-05) at step 1021
 - a total of 59 particle templates (mass 6.178466e-04) inserted so far.
WARNING: Particle insertion: Inserting no particle - check particle insertion settings (../fix_insert.cpp:703)
INFO: Particle insertion ins_small: inserted 1 particle templates (mass 1.047198e-05) at step 1031
 - a total of 60 particle templates (mass 6.283185e-04) inserted so far.
WARNING: Particle insertion: Inserting no particle - check particle insertion settings (../fix_insert.cpp:703)
INFO: Particle insertion ins_small: inserted 1 particle templates (mass 1.047198e-05) at step 1041
 - a total of 61 particle templates (mass 6.387905e-04) inserted so far.
WARNING: Particle insertion: Inserting no particle - check particle insertion settings (../fix_insert.cpp:703)
WARNING: Particle insertion: Inserting no particle - check particle insertion settings (../fix_insert.cpp:703)
WARNING: Particle insertion: Inserting no particle - check particle insertion settings (../fix_insert.cpp:703)
WARNING: Particle insertion: Inserting no particle - check particle insertion settings (../fix_insert.cpp:703)
WARNING: Particle insertion: Inserting no particle - check particle insertion settings (../fix_insert.cpp:703)
WARNING: Particle insertion: Inserting no particle - check particle insertion settings (../fix_insert.cpp:703)
WARNING: Particle insertion: Inserting no particle - check particle insertion settings (../fix_insert.cpp:703)
WARNING: Particle insertion: Inserting no particle - check particle insertion settings (../fix_insert.cpp:703)
WARNING: Particle insertion: Inserting no particle - check particle insertion settings (../fix_insert.cpp:703)
INFO: Particle insertion ins_small: inserted 1 particle templates (mass 1.047198e-05) at step 1091
 - a total of 62 particle templates (mass 6.492625e-04) inserted so far.
WARNING: Particle insertion: Inserting no particle - check particle insertion settings (../fix_insert.cpp:703)
WARNING: Particle insertion: Inserting no particle - check particle insertion settings (../fix_insert.cpp:703)
WARNING: Particle insertion: Inserting no particle - check particle insertion settings (../fix_insert.cpp:703)
WARNING: Particle insertion: Inserting no particle - check particle insertion settings (../fix_insert.cpp:703)
WARNING: Particle insertion: Inserting no particle - check particle insertion settings (../fix_insert.cpp:703)
INFO: Particle insertion ins_small: inserted 1 particle templates (mass 1.047198e-05) at step 1121
 - a total of 63 particle templates (mass 6.597345e-04) inserted so far.
WARNING: Particle insertion: Inserting no particle - check particle insertion settings (../fix_insert.cpp:703)
WARNING: Particle insertion: Inserting no particle - check particle insertion settings (../fix_insert.cpp:703)
WARNING: Particle insertion: Inserting no particle - check particle insertion settings (../fix_insert.cpp:703)
INFO: Particle insertion ins_small: inserted 1 particle templates (mass 1.047198e-05) at step 1141
 - a total of 64 particle templates (mass 6.702064e-04) inserted so far.
WARNING: Particle insertion: Inserting no particle - check particle insertion settings (../fix_insert.cpp:703)
WARNING: Particle insertion: Inserting no particle - check particle insertion settings (../fix_insert.cpp:703)
WARNING: Particle insertion: Inserting no particle - check particle insertion settings (../fix_insert.cpp:703)
INFO: Particle insertion ins_small: inserted 1 particle templates (mass 1.047198e-05) at step 1161
 - a total of 65 particle templates (mass 6.806784e-04) inserted so far.
WARNING: Particle insertion: Inserting no particle - check particle insertion settings (../fix_insert.cpp:703)
INFO: Particle insertion ins_small: inserted 1 particle templates (mass 1.047198e-05) at step 1171
 - a total of 66 particle templates (mass 6.911504e-04) inserted so far.
WARNING: Particle insertion: Inserting no particle - check particle insertion settings (../fix_insert.cpp:703)
WARNING: Particle insertion: Inserting no particle - check particle insertion settings (../fix_insert.cpp:703)
WARNING: Particle insertion: Inserting no particle - check particle insertion settings (../fix_insert.cpp:703)
WARNING: Particle insertion: Inserting no particle - check particle insertion settings (../fix_insert.cpp:703)
WARNING: Particle insertion: Inserting no particle - check particle insertion settings (../fix_insert.cpp:703)
INFO: Particle insertion ins_small: inserted 1 particle templates (mass 1.047198e-05) at step 1201
 - a total of 67 particle templates (mass 7.016224e-04) inserted so far.
WARNING: Particle insertion: Inserting no particle - check particle insertion settings (../fix_insert.cpp:703)
WARNING: Particle insertion: Inserting no particle - check particle insertion settings (../fix_insert.cpp:703)
WARNING: Particle insertion: Inserting no particle - check particle insertion settings (../fix_insert.cpp:703)
INFO: Particle insertion ins_small: inserted 1 particle templates (mass 1.047198e-05) at step 1221
 - a total of 68 particle templates (mass 7.120943e-04) inserted so far.
WARNING: Particle insertion: Inserting no particle - check particle insertion settings (../fix_insert.cpp:703)
WARNING: Particle insertion: Inserting no particle - check particle insertion settings (../fix_insert.cpp:703)
WARNING: Particle insertion: Inserting no particle - check particle insertion settings (../fix_insert.cpp:703)
WARNING: Particle insertion: Inserting no particle - check particle insertion settings (../fix_insert.cpp:703)
WARNING: Particle insertion: Inserting no particle - check particle insertion settings (../fix_insert.cpp:703)
WARNING: Particle insertion: Inserting no particle - check particle insertion settings (../fix_insert.cpp:703)
WARNING: Particle insertion: Inserting no particle - check particle insertion settings (../fix_insert.cpp:703)
INFO: Particle insertion ins_small: inserted 1 particle templates (mass 1.047198e-05) at step 1261
 - a total of 69 particle templates (mass 7.225663e-04) inserted so far.
WARNING: Particle insertion: Inserting no particle - check particle insertion settings (../fix_insert.cpp:703)
INFO: Particle insertion ins_small: inserted 1 particle templates (mass 1.047198e-05) at step 1271
 - a total of 70 particle templates (mass 7.330383e-04) inserted so far.
WARNING: Particle insertion: Inserting no particle - check particle insertion settings (../fix_insert.cpp:703)
WARNING: Particle insertion: Inserting no particle - check particle insertion settings (../fix_insert.cpp:703)
WARNING: Particle insertion: Inserting no particle - check particle insertion settings (../fix_insert.cpp:703)
WARNING: Particle insertion: Inserting no particle - check particle insertion settings (../fix_insert.cpp:703)
WARNING: Particle insertion: Inserting no particle - check particle insertion settings (../fix_insert.cpp:703)
WARNING: Particle insertion: Inserting no particle - check particle insertion settings (../fix_insert.cpp:703)
WARNING: Particle insertion: Inserting no particle - check particle insertion settings (../fix_insert.cpp:703)
INFO: Particle insertion ins_small: inserted 1 particle templates (mass 1.047198e-05) at step 1311
 - a total of 71 particle templates (mass 7.435103e-04) inserted so far.
WARNING: Particle insertion: Inserting no particle - check particle insertion settings (../fix_insert.cpp:703)
INFO: Particle insertion ins_small: inserted 1 particle templates (mass 1.047198e-05) at step 1321
 - a total of 72 particle templates (mass 7.539822e-04) inserted so far.
WARNING: Particle insertion: Inserting no particle - check particle insertion settings (../fix_insert.cpp:703)
INFO: Particle insertion ins_small: inserted 1 particle templates (mass 1.047198e-05) at step 1331
 - a total of 73 particle templates (mass 7.644542e-04) inserted so far.
WARNING: Particle insertion: Inserting no particle - check particle insertion settings (../fix_insert.cpp:703)
WARNING: Particle insertion: Inserting no particle - check particle insertion settings (../fix_insert.cpp:703)
WARNING: Particle insertion: Inserting no particle - check particle insertion settings (../fix_insert.cpp:703)
INFO: Particle insertion ins_small: inserted 1 particle templates (mass 1.047198e-05) at step 1351
 - a total of 74 particle templates (mass 7.749262e-04) inserted so far.
WARNING: Particle insertion: Inserting no particle - check particle insertion settings (../fix_insert.cpp:703)
INFO: Particle insertion ins_small: inserted 1 particle templates (mass 1.047198e-05) at step 1361
 - a total of 75 particle templates (mass 7.853982e-04) inserted so far.
WARNING: Particle insertion: Inserting no particle - check particle insertion settings (../fix_insert.cpp:703)
INFO: Particle insertion ins_small: inserted 1 particle templates (mass 1.047198e-05) at step 1371
 - a total of 76 particle templates (mass 7.958701e-04) inserted so far.
WARNING: Particle insertion: Inserting no particle - check particle insertion settings (../fix_insert.cpp:703)
INFO: Particle insertion ins_small: inserted 1 particle templates (mass 1.047198e-05) at step 1381
 - a total of 77 particle templates (mass 8.063421e-04) inserted so far.
WARNING: Particle insertion: Inserting no particle - check particle insertion settings (../fix_insert.cpp:703)
WARNING: Particle insertion: Inserting no particle - check particle insertion settings (../fix_insert.cpp:703)
WARNING: Particle insertion: Inserting no particle - check particle insertion settings (../fix_insert.cpp:703)
WARNING: Particle insertion: Inserting no particle - check particle insertion settings (../fix_insert.cpp:703)
WARNING: Particle insertion: Inserting no particle - check particle insertion settings (../fix_insert.cpp:703)
INFO: Particle insertion ins_small: inserted 1 particle templates (mass 1.047198e-05) at step 1411
 - a total of 78 particle templates (mass 8.168141e-04) inserted so far.
WARNING: Particle insertion: Inserting no particle - check particle insertion settings (../fix_insert.cpp:703)
WARNING: Particle insertion: Inserting no particle - check particle insertion settings (../fix_insert.cpp:703)
WARNING: Particle insertion: Inserting no particle - check particle insertion settings (../fix_insert.cpp:703)
WARNING: Particle insertion: Inserting no particle - check particle insertion settings (../fix_insert.cpp:703)
WARNING: Particle insertion: Inserting no particle - check particle insertion settings (../fix_insert.cpp:703)
INFO: Particle insertion ins_small: inserted 1 particle templates (mass 1.047198e-05) at step 1441
 - a total of 79 particle templates (mass 8.272861e-04) inserted so far.
WARNING: Particle insertion: Inserting no particle - check particle insertion settings (../fix_insert.cpp:703)
INFO: Particle insertion ins_small: inserted 1 particle templates (mass 1.047198e-05) at step 1451
 - a total of 80 particle templates (mass 8.377580e-04) inserted so far.
WARNING: Particle insertion: Inserting no particle - check particle insertion settings (../fix_insert.cpp:703)
INFO: Particle insertion ins_small: inserted 1 particle templates (mass 1.047198e-05) at step 1461
 - a total of 81 particle templates (mass 8.482300e-04) inserted so far.
WARNING: Particle insertion: Inserting no particle - check particle insertion settings (../fix_insert.cpp:703)
INFO: Particle insertion ins_small: inserted 1 particle templates (mass 1.047198e-05) at step 1471
 - a total of 82 particle templates (mass 8.587020e-04) inserted so far.
WARNING: Particle insertion: Inserting no particle - check particle insertion settings (../fix_insert.cpp:703)
INFO: Particle insertion ins_small: inserted 1 particle templates (mass 1.047198e-05) at step 1481
 - a total of 83 particle templates (mass 8.691740e-04) inserted so far.
WARNING: Particle insertion: Inserting no particle - check particle insertion settings (../fix_insert.cpp:703)
INFO: Particle insertion ins_small: inserted 1 particle templates (mass 1.047198e-05) at step 1491
 - a total of 84 particle templates (mass 8.796459e-04) inserted so far.
WARNING: Particle insertion: Inserting no particle - check particle insertion settings (../fix_insert.cpp:703)
INFO: Particle insertion ins_small: inserted 1 particle templates (mass 1.047198e-05) at step 1501
 - a total of 85 particle templates (mass 8.901179e-04) inserted so far.
WARNING: Particle insertion: Inserting no particle - check particle insertion settings (../fix_insert.cpp:703)
WARNING: Particle insertion: Inserting no particle - check particle insertion settings (../fix_insert.cpp:703)
WARNING: Particle insertion: Inserting no particle - check particle insertion settings (../fix_insert.cpp:703)
WARNING: Particle insertion: Inserting no particle - check particle insertion settings (../fix_insert.cpp:703)
WARNING: Particle insertion: Inserting no particle - check particle insertion settings (../fix_insert.cpp:703)
INFO: Particle insertion ins_small: inserted 1 particle templates (mass 1.047198e-05) at step 1531
 - a total of 86 particle templates (mass 9.005899e-04) inserted so far.
WARNING: Particle insertion: Inserting no particle - check particle insertion settings (../fix_insert.cpp:703)
INFO: Particle insertion ins_small: inserted 1 particle templates (mass 1.047198e-05) at step 1541
 - a total of 87 particle templates (mass 9.110619e-04) inserted so far.
WARNING: Particle insertion: Inserting no particle - check particle insertion settings (../fix_insert.cpp:703)
INFO: Particle insertion ins_small: inserted 1 particle templates (mass 1.047198e-05) at step 1551
 - a total of 88 particle templates (mass 9.215338e-04) inserted so far.
WARNING: Particle insertion: Inserting no particle - check particle insertion settings (../fix_insert.cpp:703)
WARNING: Particle insertion: Inserting no particle - check particle insertion settings (../fix_insert.cpp:703)
WARNING: Particle insertion: Inserting no particle - check particle insertion settings (../fix_insert.cpp:703)
WARNING: Particle insertion: Inserting no particle - check particle insertion settings (../fix_insert.cpp:703)
WARNING: Particle insertion: Inserting no particle - check particle insertion settings (../fix_insert.cpp:703)
WARNING: Particle insertion: Inserting no particle - check particle insertion settings (../fix_insert.cpp:703)
WARNING: Particle insertion: Inserting no particle - check particle insertion settings (../fix_insert.cpp:703)
INFO: Particle insertion ins_small: inserted 1 particle templates (mass 1.047198e-05) at step 1591
 - a total of 89 particle templates (mass 9.320058e-04) inserted so far.
WARNING: Particle insertion: Inserting no particle - check particle insertion settings (../fix_insert.cpp:703)
INFO: Particle insertion ins_small: inserted 1 particle templates (mass 1.047198e-05) at step 1601
 - a total of 90 particle templates (mass 9.424778e-04) inserted so far.
WARNING: Particle insertion: Inserting no particle - check particle insertion settings (../fix_insert.cpp:703)
WARNING: Particle insertion: Inserting no particle - check particle insertion settings (../fix_insert.cpp:703)
WARNING: Particle insertion: Inserting no particle - check particle insertion settings (../fix_insert.cpp:703)
WARNING: Particle insertion: Inserting no particle - check particle insertion settings (../fix_insert.cpp:703)
WARNING: Particle insertion: Inserting no particle - check particle insertion settings (../fix_insert.cpp:703)
INFO: Particle insertion ins_small: inserted 1 particle templates (mass 1.047198e-05) at step 1631
 - a total of 91 particle templates (mass 9.529498e-04) inserted so far.
WARNING: Particle insertion: Inserting no particle - check particle insertion settings (../fix_insert.cpp:703)
WARNING: Particle insertion: Inserting no particle - check particle insertion settings (../fix_insert.cpp:703)
WARNING: Particle insertion: Inserting no particle - check particle insertion settings (../fix_insert.cpp:703)
INFO: Particle insertion ins_small: inserted 1 particle templates (mass 1.047198e-05) at step 1651
 - a total of 92 particle templates (mass 9.634217e-04) inserted so far.
WARNING: Particle insertion: Inserting no particle - check particle insertion settings (../fix_insert.cpp:703)
INFO: Particle insertion ins_small: inserted 1 particle templates (mass 1.047198e-05) at step 1661
 - a total of 93 particle templates (mass 9.738937e-04) inserted so far.
WARNING: Particle insertion: Inserting no particle - check particle insertion settings (../fix_insert.cpp:703)
WARNING: Particle insertion: Inserting no particle - check particle insertion settings (../fix_insert.cpp:703)
WARNING: Particle insertion: Inserting no particle - check particle insertion settings (../fix_insert.cpp:703)
WARNING: Particle insertion: Inserting no particle - check particle insertion settings (../fix_insert.cpp:703)
WARNING: Particle insertion: Inserting no particle - check particle insertion settings (../fix_insert.cpp:703)
WARNING: Particle insertion: Inserting no particle - check particle insertion settings (../fix_insert.cpp:703)
WARNING: Particle insertion: Inserting no particle - check particle insertion settings (../fix_insert.cpp:703)
INFO: Particle insertion ins_small: inserted 1 particle templates (mass 1.047198e-05) at step 1701
 - a total of 94 particle templates (mass 9.843657e-04) inserted so far.
WARNING: Particle insertion: Inserting no particle - check particle insertion settings (../fix_insert.cpp:703)
WARNING: Particle insertion: Inserting no particle - check particle insertion settings (../fix_insert.cpp:703)
WARNING: Particle insertion: Inserting no particle - check particle insertion settings (../fix_insert.cpp:703)
INFO: Particle insertion ins_small: inserted 1 particle templates (mass 1.047198e-05) at step 1721
 - a total of 95 particle templates (mass 9.948377e-04) inserted so far.
WARNING: Particle insertion: Inserting no particle - check particle insertion settings (../fix_insert.cpp:703)
WARNING: Particle insertion: Inserting no particle - check particle insertion settings (../fix_insert.cpp:703)
WARNING: Particle insertion: Inserting no particle - check particle insertion settings (../fix_insert.cpp:703)
WARNING: Particle insertion: Inserting no particle - check particle insertion settings (../fix_insert.cpp:703)
WARNING: Particle insertion: Inserting no particle - check particle insertion settings (../fix_insert.cpp:703)
INFO: Particle insertion ins_small: inserted 1 particle templates (mass 1.047198e-05) at step 1751
 - a total of 96 particle templates (mass 1.005310e-03) inserted so far.
WARNING: Particle insertion: Inserting no particle - check particle insertion settings (../fix_insert.cpp:703)
INFO: Particle insertion ins_small: inserted 1 particle templates (mass 1.047198e-05) at step 1761
 - a total of 97 particle templates (mass 1.015782e-03) inserted so far.
WARNING: Particle insertion: Inserting no particle - check particle insertion settings (../fix_insert.cpp:703)
WARNING: Particle insertion: Inserting no particle - check particle insertion settings (../fix_insert.cpp:703)
WARNING: Particle insertion: Inserting no particle - check particle insertion settings (../fix_insert.cpp:703)
WARNING: Particle insertion: Inserting no particle - check particle insertion settings (../fix_insert.cpp:703)
WARNING: Particle insertion: Inserting no particle - check particle insertion settings (../fix_insert.cpp:703)
INFO: Particle insertion ins_small: inserted 1 particle templates (mass 1.047198e-05) at step 1791
 - a total of 98 particle templates (mass 1.026254e-03) inserted so far.
WARNING: Particle insertion: Inserting no particle - check particle insertion settings (../fix_insert.cpp:703)
INFO: Particle insertion ins_small: inserted 1 particle templates (mass 1.047198e-05) at step 1801
 - a total of 99 particle templates (mass 1.036726e-03) inserted so far.
WARNING: Particle insertion: Inserting no particle - check particle insertion settings (../fix_insert.cpp:703)
WARNING: Particle insertion: Inserting no particle - check particle insertion settings (../fix_insert.cpp:703)
WARNING: Particle insertion: Inserting no particle - check particle insertion settings (../fix_insert.cpp:703)
INFO: Particle insertion ins_small: inserted 1 particle templates (mass 1.047198e-05) at step 1821
 - a total of 100 particle templates (mass 1.047198e-03) inserted so far.
WARNING: Particle insertion: Inserting no particle - check particle insertion settings (../fix_insert.cpp:703)
INFO: Particle insertion ins_small: inserted 1 particle templates (mass 1.047198e-05) at step 1831
 - a total of 101 particle templates (mass 1.057670e-03) inserted so far.
WARNING: Particle insertion: Inserting no particle - check particle insertion settings (../fix_insert.cpp:703)
INFO: Particle insertion ins_small: inserted 1 particle templates (mass 1.047198e-05) at step 1841
 - a total of 102 particle templates (mass 1.068142e-03) inserted so far.
WARNING: Particle insertion: Inserting no particle - check particle insertion settings (../fix_insert.cpp:703)
WARNING: Particle insertion: Inserting no particle - check particle insertion settings (../fix_insert.cpp:703)
WARNING: Particle insertion: Inserting no particle - check particle insertion settings (../fix_insert.cpp:703)
INFO: Particle insertion ins_small: inserted 1 particle templates (mass 1.047198e-05) at step 1861
 - a total of 103 particle templates (mass 1.078613e-03) inserted so far.
WARNING: Particle insertion: Inserting no particle - check particle insertion settings (../fix_insert.cpp:703)
INFO: Particle insertion ins_small: inserted 1 particle templates (mass 1.047198e-05) at step 1871
 - a total of 104 particle templates (mass 1.089085e-03) inserted so far.
WARNING: Particle insertion: Inserting no particle - check particle insertion settings (../fix_insert.cpp:703)
WARNING: Particle insertion: Inserting no particle - check particle insertion settings (../fix_insert.cpp:703)
WARNING: Particle insertion: Inserting no particle - check particle insertion settings (../fix_insert.cpp:703)
INFO: Particle insertion ins_small: inserted 1 particle templates (mass 1.047198e-05) at step 1891
 - a total of 105 particle templates (mass 1.099557e-03) inserted so far.
WARNING: Particle insertion: Inserting no particle - check particle insertion settings (../fix_insert.cpp:703)
WARNING: Particle insertion: Inserting no particle - check particle insertion settings (../fix_insert.cpp:703)
WARNING: Particle insertion: Inserting no particle - check particle insertion settings (../fix_insert.cpp:703)
WARNING: Particle insertion: Inserting no particle - check particle insertion settings (../fix_insert.cpp:703)
WARNING: Particle insertion: Inserting no particle - check particle insertion settings (../fix_insert.cpp:703)
INFO: Particle insertion ins_small: inserted 1 particle templates (mass 1.047198e-05) at step 1921
 - a total of 106 particle templates (mass 1.110029e-03) inserted so far.
WARNING: Particle insertion: Inserting no particle - check particle insertion settings (../fix_insert.cpp:703)
WARNING: Particle insertion: Inserting no particle - check particle insertion settings (../fix_insert.cpp:703)
WARNING: Particle insertion: Inserting no particle - check particle insertion settings (../fix_insert.cpp:703)
WARNING: Particle insertion: Inserting no particle - check particle insertion settings (../fix_insert.cpp:703)
WARNING: Particle insertion: Inserting no particle - check particle insertion settings (../fix_insert.cpp:703)
WARNING: Particle insertion: Inserting no particle - check particle insertion settings (../fix_insert.cpp:703)
WARNING: Particle insertion: Inserting no particle - check particle insertion settings (../fix_insert.cpp:703)
INFO: Particle insertion ins_small: inserted 1 particle templates (mass 1.047198e-05) at step 1961
 - a total of 107 particle templates (mass 1.120501e-03) inserted so far.
WARNING: Particle insertion: Inserting no particle - check particle insertion settings (../fix_insert.cpp:703)
INFO: Particle insertion ins_small: inserted 1 particle templates (mass 1.047198e-05) at step 1971
 - a total of 108 particle templates (mass 1.130973e-03) inserted so far.
WARNING: Particle insertion: Inserting no particle - check particle insertion settings (../fix_insert.cpp:703)
WARNING: Particle insertion: Inserting no particle - check particle insertion settings (../fix_insert.cpp:703)
WARNING: Particle insertion: Inserting no particle - check particle insertion settings (../fix_insert.cpp:703)
INFO: Particle insertion ins_small: inserted 1 particle templates (mass 1.047198e-05) at step 1991
 - a total of 109 particle templates (mass 1.141445e-03) inserted so far.
WARNING: Particle insertion: Inserting no particle - check particle insertion settings (../fix_insert.cpp:703)
INFO: Particle insertion ins_small: inserted 1 particle templates (mass 1.047198e-05) at step 2001
 - a total of 110 particle templates (mass 1.151917e-03) inserted so far.
WARNING: Particle insertion: Inserting no particle - check particle insertion settings (../fix_insert.cpp:703)
INFO: Particle insertion ins_small: inserted 1 particle templates (mass 1.047198e-05) at step 2011
 - a total of 111 particle templates (mass 1.162389e-03) inserted so far.
WARNING: Particle insertion: Inserting no particle - check particle insertion settings (../fix_insert.cpp:703)
WARNING: Particle insertion: Inserting no particle - check particle insertion settings (../fix_insert.cpp:703)
WARNING: Particle insertion: Inserting no particle - check particle insertion settings (../fix_insert.cpp:703)
WARNING: Particle insertion: Inserting no particle - check particle insertion settings (../fix_insert.cpp:703)
WARNING: Particle insertion: Inserting no particle - check particle insertion settings (../fix_insert.cpp:703)
WARNING: Particle insertion: Inserting no particle - check particle insertion settings (../fix_insert.cpp:703)
WARNING: Particle insertion: Inserting no particle - check particle insertion settings (../fix_insert.cpp:703)
INFO: Particle insertion ins_small: inserted 1 particle templates (mass 1.047198e-05) at step 2051
 - a total of 112 particle templates (mass 1.172861e-03) inserted so far.
WARNING: Particle insertion: Inserting no particle - check particle insertion settings (../fix_insert.cpp:703)
WARNING: Particle insertion: Inserting no particle - check particle insertion settings (../fix_insert.cpp:703)
WARNING: Particle insertion: Inserting no particle - check particle insertion settings (../fix_insert.cpp:703)
WARNING: Particle insertion: Inserting no particle - check particle insertion settings (../fix_insert.cpp:703)
WARNING: Particle insertion: Inserting no particle - check particle insertion settings (../fix_insert.cpp:703)
INFO: Particle insertion ins_small: inserted 1 particle templates (mass 1.047198e-05) at step 2081
 - a total of 113 particle templates (mass 1.183333e-03) inserted so far.
WARNING: Particle insertion: Inserting no particle - check particle insertion settings (../fix_insert.cpp:703)
WARNING: Particle insertion: Inserting no particle - check particle insertion settings (../fix_insert.cpp:703)
WARNING: Particle insertion: Inserting no particle - check particle insertion settings (../fix_insert.cpp:703)
INFO: Particle insertion ins_small: inserted 1 particle templates (mass 1.047198e-05) at step 2101
 - a total of 114 particle templates (mass 1.193805e-03) inserted so far.
WARNING: Particle insertion: Inserting no particle - check particle insertion settings (../fix_insert.cpp:703)
WARNING: Particle insertion: Inserting no particle - check particle insertion settings (../fix_insert.cpp:703)
WARNING: Particle insertion: Inserting no particle - check particle insertion settings (../fix_insert.cpp:703)
INFO: Particle insertion ins_small: inserted 1 particle templates (mass 1.047198e-05) at step 2121
 - a total of 115 particle templates (mass 1.204277e-03) inserted so far.
WARNING: Particle insertion: Inserting no particle - check particle insertion settings (../fix_insert.cpp:703)
INFO: Particle insertion ins_small: inserted 1 particle templates (mass 1.047198e-05) at step 2131
 - a total of 116 particle templates (mass 1.214749e-03) inserted so far.
WARNING: Particle insertion: Inserting no particle - check particle insertion settings (../fix_insert.cpp:703)
WARNING: Particle insertion: Inserting no particle - check particle insertion settings (../fix_insert.cpp:703)
WARNING: Particle insertion: Inserting no particle - check particle insertion settings (../fix_insert.cpp:703)
INFO: Particle insertion ins_small: inserted 1 particle templates (mass 1.047198e-05) at step 2151
 - a total of 117 particle templates (mass 1.225221e-03) inserted so far.
WARNING: Particle insertion: Inserting no particle - check particle insertion settings (../fix_insert.cpp:703)
WARNING: Particle insertion: Inserting no particle - check particle insertion settings (../fix_insert.cpp:703)
WARNING: Particle insertion: Inserting no particle - check particle insertion settings (../fix_insert.cpp:703)
WARNING: Particle insertion: Inserting no particle - check particle insertion settings (../fix_insert.cpp:703)
WARNING: Particle insertion: Inserting no particle - check particle insertion settings (../fix_insert.cpp:703)
INFO: Particle insertion ins_small: inserted 1 particle templates (mass 1.047198e-05) at step 2181
 - a total of 118 particle templates (mass 1.235693e-03) inserted so far.
WARNING: Particle insertion: Inserting no particle - check particle insertion settings (../fix_insert.cpp:703)
WARNING: Particle insertion: Inserting no particle - check particle insertion settings (../fix_insert.cpp:703)
WARNING: Particle insertion: Inserting no particle - check particle insertion settings (../fix_insert.cpp:703)
WARNING: Particle insertion: Inserting no particle - check particle insertion settings (../fix_insert.cpp:703)
WARNING: Particle insertion: Inserting no particle - check particle insertion settings (../fix_insert.cpp:703)
INFO: Particle insertion ins_small: inserted 1 particle templates (mass 1.047198e-05) at step 2211
 - a total of 119 particle templates (mass 1.246165e-03) inserted so far.
WARNING: Particle insertion: Inserting no particle - check particle insertion settings (../fix_insert.cpp:703)
INFO: Particle insertion ins_small: inserted 1 particle templates (mass 1.047198e-05) at step 2221
 - a total of 120 particle templates (mass 1.256637e-03) inserted so far.
WARNING: Particle insertion: Inserting no particle - check particle insertion settings (../fix_insert.cpp:703)
WARNING: Particle insertion: Inserting no particle - check particle insertion settings (../fix_insert.cpp:703)
WARNING: Particle insertion: Inserting no particle - check particle insertion settings (../fix_insert.cpp:703)
INFO: Particle insertion ins_small: inserted 1 particle templates (mass 1.047198e-05) at step 2241
 - a total of 121 particle templates (mass 1.267109e-03) inserted so far.
WARNING: Particle insertion: Inserting no particle - check particle insertion settings (../fix_insert.cpp:703)
WARNING: Particle insertion: Inserting no particle - check particle insertion settings (../fix_insert.cpp:703)
WARNING: Particle insertion: Inserting no particle - check particle insertion settings (../fix_insert.cpp:703)
INFO: Particle insertion ins_small: inserted 1 particle templates (mass 1.047198e-05) at step 2261
 - a total of 122 particle templates (mass 1.277581e-03) inserted so far.
WARNING: Particle insertion: Inserting no particle - check particle insertion settings (../fix_insert.cpp:703)
INFO: Particle insertion ins_small: inserted 1 particle templates (mass 1.047198e-05) at step 2271
 - a total of 123 particle templates (mass 1.288053e-03) inserted so far.
WARNING: Particle insertion: Inserting no particle - check particle insertion settings (../fix_insert.cpp:703)
WARNING: Particle insertion: Inserting no particle - check particle insertion settings (../fix_insert.cpp:703)
WARNING: Particle insertion: Inserting no particle - check particle insertion settings (../fix_insert.cpp:703)
INFO: Particle insertion ins_small: inserted 1 particle templates (mass 1.047198e-05) at step 2291
 - a total of 124 particle templates (mass 1.298525e-03) inserted so far.
WARNING: Particle insertion: Inserting no particle - check particle insertion settings (../fix_insert.cpp:703)
INFO: Particle insertion ins_small: inserted 1 particle templates (mass 1.047198e-05) at step 2301
 - a total of 125 particle templates (mass 1.308997e-03) inserted so far.
WARNING: Particle insertion: Inserting no particle - check particle insertion settings (../fix_insert.cpp:703)
INFO: Particle insertion ins_small: inserted 1 particle templates (mass 1.047198e-05) at step 2311
 - a total of 126 particle templates (mass 1.319469e-03) inserted so far.
WARNING: Particle insertion: Inserting no particle - check particle insertion settings (../fix_insert.cpp:703)
WARNING: Particle insertion: Inserting no particle - check particle insertion settings (../fix_insert.cpp:703)
WARNING: Particle insertion: Inserting no particle - check particle insertion settings (../fix_insert.cpp:703)
INFO: Particle insertion ins_small: inserted 1 particle templates (mass 1.047198e-05) at step 2331
 - a total of 127 particle templates (mass 1.329941e-03) inserted so far.
WARNING: Particle insertion: Inserting no particle - check particle insertion settings (../fix_insert.cpp:703)
INFO: Particle insertion ins_small: inserted 1 particle templates (mass 1.047198e-05) at step 2341
 - a total of 128 particle templates (mass 1.340413e-03) inserted so far.
WARNING: Particle insertion: Inserting no particle - check particle insertion settings (../fix_insert.cpp:703)
INFO: Particle insertion ins_small: inserted 1 particle templates (mass 1.047198e-05) at step 2351
 - a total of 129 particle templates (mass 1.350885e-03) inserted so far.
WARNING: Particle insertion: Inserting no particle - check particle insertion settings (../fix_insert.cpp:703)
INFO: Particle insertion ins_small: inserted 1 particle templates (mass 1.047198e-05) at step 2361
 - a total of 130 particle templates (mass 1.361357e-03) inserted so far.
WARNING: Particle insertion: Inserting no particle - check particle insertion settings (../fix_insert.cpp:703)
INFO: Particle insertion ins_small: inserted 1 particle templates (mass 1.047198e-05) at step 2371
 - a total of 131 particle templates (mass 1.371829e-03) inserted so far.
WARNING: Particle insertion: Inserting no particle - check particle insertion settings (../fix_insert.cpp:703)
INFO: Particle insertion ins_small: inserted 1 particle templates (mass 1.047198e-05) at step 2381
 - a total of 132 particle templates (mass 1.382301e-03) inserted so far.
WARNING: Particle insertion: Inserting no particle - check particle insertion settings (../fix_insert.cpp:703)
WARNING: Particle insertion: Inserting no particle - check particle insertion settings (../fix_insert.cpp:703)
WARNING: Particle insertion: Inserting no particle - check particle insertion settings (../fix_insert.cpp:703)
INFO: Particle insertion ins_small: inserted 1 particle templates (mass 1.047198e-05) at step 2401
 - a total of 133 particle templates (mass 1.392773e-03) inserted so far.
WARNING: Particle insertion: Inserting no particle - check particle insertion settings (../fix_insert.cpp:703)
INFO: Particle insertion ins_small: inserted 1 particle templates (mass 1.047198e-05) at step 2411
 - a total of 134 particle templates (mass 1.403245e-03) inserted so far.
WARNING: Particle insertion: Inserting no particle - check particle insertion settings (../fix_insert.cpp:703)
INFO: Particle insertion ins_small: inserted 1 particle templates (mass 1.047198e-05) at step 2421
 - a total of 135 particle templates (mass 1.413717e-03) inserted so far.
WARNING: Particle insertion: Inserting no particle - check particle insertion settings (../fix_insert.cpp:703)
WARNING: Particle insertion: Inserting no particle - check particle insertion settings (../fix_insert.cpp:703)
WARNING: Particle insertion: Inserting no particle - check particle insertion settings (../fix_insert.cpp:703)
INFO: Particle insertion ins_small: inserted 1 particle templates (mass 1.047198e-05) at step 2441
 - a total of 136 particle templates (mass 1.424189e-03) inserted so far.
WARNING: Particle insertion: Inserting no particle - check particle insertion settings (../fix_insert.cpp:703)
INFO: Particle insertion ins_small: inserted 1 particle templates (mass 1.047198e-05) at step 2451
 - a total of 137 particle templates (mass 1.434661e-03) inserted so far.
WARNING: Particle insertion: Inserting no particle - check particle insertion settings (../fix_insert.cpp:703)
INFO: Particle insertion ins_small: inserted 1 particle templates (mass 1.047198e-05) at step 2461
 - a total of 138 particle templates (mass 1.445133e-03) inserted so far.
WARNING: Particle insertion: Inserting no particle - check particle insertion settings (../fix_insert.cpp:703)
INFO: Particle insertion ins_small: inserted 1 particle templates (mass 1.047198e-05) at step 2471
 - a total of 139 particle templates (mass 1.455605e-03) inserted so far.
WARNING: Particle insertion: Inserting no particle - check particle insertion settings (../fix_insert.cpp:703)
WARNING: Particle insertion: Inserting no particle - check particle insertion settings (../fix_insert.cpp:703)
WARNING: Particle insertion: Inserting no particle - check particle insertion settings (../fix_insert.cpp:703)
INFO: Particle insertion ins_small: inserted 1 particle templates (mass 1.047198e-05) at step 2491
 - a total of 140 particle templates (mass 1.466077e-03) inserted so far.
WARNING: Particle insertion: Inserting no particle - check particle insertion settings (../fix_insert.cpp:703)
INFO: Particle insertion ins_small: inserted 1 particle templates (mass 1.047198e-05) at step 2501
 - a total of 141 particle templates (mass 1.476549e-03) inserted so far.
WARNING: Particle insertion: Inserting no particle - check particle insertion settings (../fix_insert.cpp:703)
WARNING: Particle insertion: Inserting no particle - check particle insertion settings (../fix_insert.cpp:703)
WARNING: Particle insertion: Inserting no particle - check particle insertion settings (../fix_insert.cpp:703)
INFO: Particle insertion ins_small: inserted 1 particle templates (mass 1.047198e-05) at step 2521
 - a total of 142 particle templates (mass 1.487021e-03) inserted so far.
WARNING: Particle insertion: Inserting no particle - check particle insertion settings (../fix_insert.cpp:703)
WARNING: Particle insertion: Inserting no particle - check particle insertion settings (../fix_insert.cpp:703)
WARNING: Particle insertion: Inserting no particle - check particle insertion settings (../fix_insert.cpp:703)
WARNING: Particle insertion: Inserting no particle - check particle insertion settings (../fix_insert.cpp:703)
WARNING: Particle insertion: Inserting no particle - check particle insertion settings (../fix_insert.cpp:703)
INFO: Particle insertion ins_small: inserted 1 particle templates (mass 1.047198e-05) at step 2551
 - a total of 143 particle templates (mass 1.497492e-03) inserted so far.
WARNING: Particle insertion: Inserting no particle - check particle insertion settings (../fix_insert.cpp:703)
WARNING: Particle insertion: Inserting no particle - check particle insertion settings (../fix_insert.cpp:703)
WARNING: Particle insertion: Inserting no particle - check particle insertion settings (../fix_insert.cpp:703)
INFO: Particle insertion ins_small: inserted 1 particle templates (mass 1.047198e-05) at step 2571
 - a total of 144 particle templates (mass 1.507964e-03) inserted so far.
WARNING: Particle insertion: Inserting no particle - check particle insertion settings (../fix_insert.cpp:703)
WARNING: Particle insertion: Inserting no particle - check particle insertion settings (../fix_insert.cpp:703)
WARNING: Particle insertion: Inserting no particle - check particle insertion settings (../fix_insert.cpp:703)
INFO: Particle insertion ins_small: inserted 1 particle templates (mass 1.047198e-05) at step 2591
 - a total of 145 particle templates (mass 1.518436e-03) inserted so far.
WARNING: Particle insertion: Inserting no particle - check particle insertion settings (../fix_insert.cpp:703)
INFO: Particle insertion ins_small: inserted 1 particle templates (mass 1.047198e-05) at step 2601
 - a total of 146 particle templates (mass 1.528908e-03) inserted so far.
WARNING: Particle insertion: Inserting no particle - check particle insertion settings (../fix_insert.cpp:703)
WARNING: Particle insertion: Inserting no particle - check particle insertion settings (../fix_insert.cpp:703)
WARNING: Particle insertion: Inserting no particle - check particle insertion settings (../fix_insert.cpp:703)
WARNING: Particle insertion: Inserting no particle - check particle insertion settings (../fix_insert.cpp:703)
WARNING: Particle insertion: Inserting no particle - check particle insertion settings (../fix_insert.cpp:703)
WARNING: Particle insertion: Inserting no particle - check particle insertion settings (../fix_insert.cpp:703)
WARNING: Particle insertion: Inserting no particle - check particle insertion settings (../fix_insert.cpp:703)
INFO: Particle insertion ins_small: inserted 1 particle templates (mass 1.047198e-05) at step 2641
 - a total of 147 particle templates (mass 1.539380e-03) inserted so far.
WARNING: Particle insertion: Inserting no particle - check particle insertion settings (../fix_insert.cpp:703)
WARNING: Particle insertion: Inserting no particle - check particle insertion settings (../fix_insert.cpp:703)
WARNING: Particle insertion: Inserting no particle - check particle insertion settings (../fix_insert.cpp:703)
INFO: Particle insertion ins_small: inserted 1 particle templates (mass 1.047198e-05) at step 2661
 - a total of 148 particle templates (mass 1.549852e-03) inserted so far.
WARNING: Particle insertion: Inserting no particle - check particle insertion settings (../fix_insert.cpp:703)
INFO: Particle insertion ins_small: inserted 1 particle templates (mass 1.047198e-05) at step 2671
 - a total of 149 particle templates (mass 1.560324e-03) inserted so far.
WARNING: Particle insertion: Inserting no particle - check particle insertion settings (../fix_insert.cpp:703)
INFO: Particle insertion ins_small: inserted 1 particle templates (mass 1.047198e-05) at step 2681
 - a total of 150 particle templates (mass 1.570796e-03) inserted so far.
WARNING: Particle insertion: Inserting no particle - check particle insertion settings (../fix_insert.cpp:703)
INFO: Particle insertion ins_small: inserted 1 particle templates (mass 1.047198e-05) at step 2691
 - a total of 151 particle templates (mass 1.581268e-03) inserted so far.
WARNING: Particle insertion: Inserting no particle - check particle insertion settings (../fix_insert.cpp:703)
INFO: Particle insertion ins_small: inserted 1 particle templates (mass 1.047198e-05) at step 2701
 - a total of 152 particle templates (mass 1.591740e-03) inserted so far.
WARNING: Particle insertion: Inserting no particle - check particle insertion settings (../fix_insert.cpp:703)
WARNING: Particle insertion: Inserting no particle - check particle insertion settings (../fix_insert.cpp:703)
WARNING: Particle insertion: Inserting no particle - check particle insertion settings (../fix_insert.cpp:703)
INFO: Particle insertion ins_small: inserted 1 particle templates (mass 1.047198e-05) at step 2721
 - a total of 153 particle templates (mass 1.602212e-03) inserted so far.
WARNING: Particle insertion: Inserting no particle - check particle insertion settings (../fix_insert.cpp:703)
WARNING: Particle insertion: Inserting no particle - check particle insertion settings (../fix_insert.cpp:703)
WARNING: Particle insertion: Inserting no particle - check particle insertion settings (../fix_insert.cpp:703)
INFO: Particle insertion ins_small: inserted 1 particle templates (mass 1.047198e-05) at step 2741
 - a total of 154 particle templates (mass 1.612684e-03) inserted so far.
WARNING: Particle insertion: Inserting no particle - check particle insertion settings (../fix_insert.cpp:703)
WARNING: Particle insertion: Inserting no particle - check particle insertion settings (../fix_insert.cpp:703)
WARNING: Particle insertion: Inserting no particle - check particle insertion settings (../fix_insert.cpp:703)
INFO: Particle insertion ins_small: inserted 1 particle templates (mass 1.047198e-05) at step 2761
 - a total of 155 particle templates (mass 1.623156e-03) inserted so far.
WARNING: Particle insertion: Inserting no particle - check particle insertion settings (../fix_insert.cpp:703)
INFO: Particle insertion ins_small: inserted 1 particle templates (mass 1.047198e-05) at step 2771
 - a total of 156 particle templates (mass 1.633628e-03) inserted so far.
WARNING: Particle insertion: Inserting no particle - check particle insertion settings (../fix_insert.cpp:703)
INFO: Particle insertion ins_small: inserted 1 particle templates (mass 1.047198e-05) at step 2781
 - a total of 157 particle templates (mass 1.644100e-03) inserted so far.
WARNING: Particle insertion: Inserting no particle - check particle insertion settings (../fix_insert.cpp:703)
INFO: Particle insertion ins_small: inserted 1 particle templates (mass 1.047198e-05) at step 2791
 - a total of 158 particle templates (mass 1.654572e-03) inserted so far.
WARNING: Particle insertion: Inserting no particle - check particle insertion settings (../fix_insert.cpp:703)
WARNING: Particle insertion: Inserting no particle - check particle insertion settings (../fix_insert.cpp:703)
WARNING: Particle insertion: Inserting no particle - check particle insertion settings (../fix_insert.cpp:703)
WARNING: Particle insertion: Inserting no particle - check particle insertion settings (../fix_insert.cpp:703)
WARNING: Particle insertion: Inserting no particle - check particle insertion settings (../fix_insert.cpp:703)
INFO: Particle insertion ins_small: inserted 1 particle templates (mass 1.047198e-05) at step 2821
 - a total of 159 particle templates (mass 1.665044e-03) inserted so far.
WARNING: Particle insertion: Inserting no particle - check particle insertion settings (../fix_insert.cpp:703)
INFO: Particle insertion ins_small: inserted 1 particle templates (mass 1.047198e-05) at step 2831
 - a total of 160 particle templates (mass 1.675516e-03) inserted so far.
WARNING: Particle insertion: Inserting no particle - check particle insertion settings (../fix_insert.cpp:703)
WARNING: Particle insertion: Inserting no particle - check particle insertion settings (../fix_insert.cpp:703)
WARNING: Particle insertion: Inserting no particle - check particle insertion settings (../fix_insert.cpp:703)
WARNING: Particle insertion: Inserting no particle - check particle insertion settings (../fix_insert.cpp:703)
WARNING: Particle insertion: Inserting no particle - check particle insertion settings (../fix_insert.cpp:703)
INFO: Particle insertion ins_small: inserted 1 particle templates (mass 1.047198e-05) at step 2861
 - a total of 161 particle templates (mass 1.685988e-03) inserted so far.
WARNING: Particle insertion: Inserting no particle - check particle insertion settings (../fix_insert.cpp:703)
INFO: Particle insertion ins_small: inserted 1 particle templates (mass 1.047198e-05) at step 2871
 - a total of 162 particle templates (mass 1.696460e-03) inserted so far.
WARNING: Particle insertion: Inserting no particle - check particle insertion settings (../fix_insert.cpp:703)
WARNING: Particle insertion: Inserting no particle - check particle insertion settings (../fix_insert.cpp:703)
WARNING: Particle insertion: Inserting no particle - check particle insertion settings (../fix_insert.cpp:703)
INFO: Particle insertion ins_small: inserted 1 particle templates (mass 1.047198e-05) at step 2891
 - a total of 163 particle templates (mass 1.706932e-03) inserted so far.
WARNING: Particle insertion: Inserting no particle - check particle insertion settings (../fix_insert.cpp:703)
INFO: Particle insertion ins_small: inserted 1 particle templates (mass 1.047198e-05) at step 2901
 - a total of 164 particle templates (mass 1.717404e-03) inserted so far.
WARNING: Particle insertion: Inserting no particle - check particle insertion settings (../fix_insert.cpp:703)
INFO: Particle insertion ins_small: inserted 1 particle templates (mass 1.047198e-05) at step 2911
 - a total of 165 particle templates (mass 1.727876e-03) inserted so far.
WARNING: Particle insertion: Inserting no particle - check particle insertion settings (../fix_insert.cpp:703)
INFO: Particle insertion ins_small: inserted 1 particle templates (mass 1.047198e-05) at step 2921
 - a total of 166 particle templates (mass 1.738348e-03) inserted so far.
WARNING: Particle insertion: Inserting no particle - check particle insertion settings (../fix_insert.cpp:703)
INFO: Particle insertion ins_small: inserted 1 particle templates (mass 1.047198e-05) at step 2931
 - a total of 167 particle templates (mass 1.748820e-03) inserted so far.
WARNING: Particle insertion: Inserting no particle - check particle insertion settings (../fix_insert.cpp:703)
INFO: Particle insertion ins_small: inserted 1 particle templates (mass 1.047198e-05) at step 2941
 - a total of 168 particle templates (mass 1.759292e-03) inserted so far.
[...]
 - a total of 5908 particle templates (mass 6.186843e-02) inserted so far.
INFO: Particle insertion ins_small: inserted 1 particle templates (mass 1.047198e-05) at step 106461
 - a total of 5909 particle templates (mass 6.187890e-02) inserted so far.
INFO: Particle insertion ins_small: inserted 1 particle templates (mass 1.047198e-05) at step 106471
 - a total of 5910 particle templates (mass 6.188938e-02) inserted so far.
WARNING: Particle insertion: Inserting no particle - check particle insertion settings (../fix_insert.cpp:703)
INFO: Particle insertion ins_small: inserted 1 particle templates (mass 1.047198e-05) at step 106491
 - a total of 5911 particle templates (mass 6.189985e-02) inserted so far.
INFO: Particle insertion ins_small: inserted 1 particle templates (mass 1.047198e-05) at step 106501
 - a total of 5912 particle templates (mass 6.191032e-02) inserted so far.
WARNING: Particle insertion: Inserting no particle - check particle insertion settings (../fix_insert.cpp:703)
INFO: Particle insertion ins_small: inserted 1 particle templates (mass 1.047198e-05) at step 106521
 - a total of 5913 particle templates (mass 6.192079e-02) inserted so far.
WARNING: Particle insertion: Inserting no particle - check particle insertion settings (../fix_insert.cpp:703)
WARNING: Particle insertion: Inserting no particle - check particle insertion settings (../fix_insert.cpp:703)
INFO: Particle insertion ins_small: inserted 1 particle templates (mass 1.047198e-05) at step 106551
 - a total of 5914 particle templates (mass 6.193126e-02) inserted so far.
WARNING: Particle insertion: Inserting no particle - check particle insertion settings (../fix_insert.cpp:703)
WARNING: Particle insertion: Inserting no particle - check particle insertion settings (../fix_insert.cpp:703)
INFO: Particle insertion ins_small: inserted 1 particle templates (mass 1.047198e-05) at step 106581
 - a total of 5915 particle templates (mass 6.194174e-02) inserted so far.
INFO: Particle insertion ins_small: inserted 1 particle templates (mass 1.047198e-05) at step 106591
 - a total of 5916 particle templates (mass 6.195221e-02) inserted so far.
INFO: Particle insertion ins_small: inserted 1 particle templates (mass 1.047198e-05) at step 106601
 - a total of 5917 particle templates (mass 6.196268e-02) inserted so far.
WARNING: Particle insertion: Inserting no particle - check particle insertion settings (../fix_insert.cpp:703)
INFO: Particle insertion ins_small: inserted 1 particle templates (mass 1.047198e-05) at step 106621
 - a total of 5918 particle templates (mass 6.197315e-02) inserted so far.
INFO: Particle insertion ins_small: inserted 1 particle templates (mass 1.047198e-05) at step 106631
 - a total of 5919 particle templates (mass 6.198362e-02) inserted so far.
INFO: Particle insertion ins_small: inserted 1 particle templates (mass 1.047198e-05) at step 106641
 - a total of 5920 particle templates (mass 6.199410e-02) inserted so far.
WARNING: Particle insertion: Inserting no particle - check particle insertion settings (../fix_insert.cpp:703)
INFO: Particle insertion ins_small: inserted 1 particle templates (mass 1.047198e-05) at step 106661
 - a total of 5921 particle templates (mass 6.200457e-02) inserted so far.
INFO: Particle insertion ins_small: inserted 1 particle templates (mass 1.047198e-05) at step 106671
 - a total of 5922 particle templates (mass 6.201504e-02) inserted so far.
INFO: Particle insertion ins_small: inserted 1 particle templates (mass 1.047198e-05) at step 106681
 - a total of 5923 particle templates (mass 6.202551e-02) inserted so far.
INFO: Particle insertion ins_small: inserted 1 particle templates (mass 1.047198e-05) at step 106691
 - a total of 5924 particle templates (mass 6.203598e-02) inserted so far.
INFO: Particle insertion ins_small: inserted 1 particle templates (mass 1.047198e-05) at step 106701
 - a total of 5925 particle templates (mass 6.204645e-02) inserted so far.
INFO: Particle insertion ins_small: inserted 1 particle templates (mass 1.047198e-05) at step 106711
 - a total of 5926 particle templates (mass 6.205693e-02) inserted so far.
WARNING: Particle insertion: Inserting no particle - check particle insertion settings (../fix_insert.cpp:703)
WARNING: Particle insertion: Inserting no particle - check particle insertion settings (../fix_insert.cpp:703)
WARNING: Particle insertion: Inserting no particle - check particle insertion settings (../fix_insert.cpp:703)
INFO: Particle insertion ins_small: inserted 1 particle templates (mass 1.047198e-05) at step 106751
 - a total of 5927 particle templates (mass 6.206740e-02) inserted so far.
INFO: Particle insertion ins_small: inserted 1 particle templates (mass 1.047198e-05) at step 106761
 - a total of 5928 particle templates (mass 6.207787e-02) inserted so far.
INFO: Particle insertion ins_small: inserted 1 particle templates (mass 1.047198e-05) at step 106771
 - a total of 5929 particle templates (mass 6.208834e-02) inserted so far.
WARNING: Particle insertion: Inserting no particle - check particle insertion settings (../fix_insert.cpp:703)
INFO: Particle insertion ins_small: inserted 1 particle templates (mass 1.047198e-05) at step 106791
 - a total of 5930 particle templates (mass 6.209881e-02) inserted so far.
INFO: Particle insertion ins_small: inserted 1 particle templates (mass 1.047198e-05) at step 106801
 - a total of 5931 particle templates (mass 6.210929e-02) inserted so far.
WARNING: Particle insertion: Inserting no particle - check particle insertion settings (../fix_insert.cpp:703)
INFO: Particle insertion ins_small: inserted 1 particle templates (mass 1.047198e-05) at step 106821
 - a total of 5932 particle templates (mass 6.211976e-02) inserted so far.
INFO: Particle insertion ins_small: inserted 1 particle templates (mass 1.047198e-05) at step 106831
 - a total of 5933 particle templates (mass 6.213023e-02) inserted so far.
WARNING: Particle insertion: Inserting no particle - check particle insertion settings (../fix_insert.cpp:703)
INFO: Particle insertion ins_small: inserted 1 particle templates (mass 1.047198e-05) at step 106851
 - a total of 5934 particle templates (mass 6.214070e-02) inserted so far.
INFO: Particle insertion ins_small: inserted 1 particle templates (mass 1.047198e-05) at step 106861
 - a total of 5935 particle templates (mass 6.215117e-02) inserted so far.
WARNING: Particle insertion: Inserting no particle - check particle insertion settings (../fix_insert.cpp:703)
WARNING: Particle insertion: Inserting no particle - check particle insertion settings (../fix_insert.cpp:703)
INFO: Particle insertion ins_small: inserted 1 particle templates (mass 1.047198e-05) at step 106891
 - a total of 5936 particle templates (mass 6.216165e-02) inserted so far.
INFO: Particle insertion ins_small: inserted 1 particle templates (mass 1.047198e-05) at step 106901
 - a total of 5937 particle templates (mass 6.217212e-02) inserted so far.
INFO: Particle insertion ins_small: inserted 1 particle templates (mass 1.047198e-05) at step 106911
 - a total of 5938 particle templates (mass 6.218259e-02) inserted so far.
WARNING: Particle insertion: Inserting no particle - check particle insertion settings (../fix_insert.cpp:703)
WARNING: Particle insertion: Inserting no particle - check particle insertion settings (../fix_insert.cpp:703)
WARNING: Particle insertion: Inserting no particle - check particle insertion settings (../fix_insert.cpp:703)
INFO: Particle insertion ins_small: inserted 1 particle templates (mass 1.047198e-05) at step 106951
 - a total of 5939 particle templates (mass 6.219306e-02) inserted so far.
INFO: Particle insertion ins_small: inserted 1 particle templates (mass 1.047198e-05) at step 106961
 - a total of 5940 particle templates (mass 6.220353e-02) inserted so far.
INFO: Particle insertion ins_small: inserted 1 particle templates (mass 1.047198e-05) at step 106971
 - a total of 5941 particle templates (mass 6.221401e-02) inserted so far.
INFO: Particle insertion ins_small: inserted 1 particle templates (mass 1.047198e-05) at step 106981
 - a total of 5942 particle templates (mass 6.222448e-02) inserted so far.
INFO: Particle insertion ins_small: inserted 1 particle templates (mass 1.047198e-05) at step 106991
 - a total of 5943 particle templates (mass 6.223495e-02) inserted so far.
INFO: Particle insertion ins_small: inserted 1 particle templates (mass 1.047198e-05) at step 107001
 - a total of 5944 particle templates (mass 6.224542e-02) inserted so far.
INFO: Particle insertion ins_small: inserted 1 particle templates (mass 1.047198e-05) at step 107011
 - a total of 5945 particle templates (mass 6.225589e-02) inserted so far.
INFO: Particle insertion ins_small: inserted 1 particle templates (mass 1.047198e-05) at step 107021
 - a total of 5946 particle templates (mass 6.226637e-02) inserted so far.
INFO: Particle insertion ins_small: inserted 1 particle templates (mass 1.047198e-05) at step 107031
 - a total of 5947 particle templates (mass 6.227684e-02) inserted so far.
WARNING: Particle insertion: Inserting no particle - check particle insertion settings (../fix_insert.cpp:703)
WARNING: Particle insertion: Inserting no particle - check particle insertion settings (../fix_insert.cpp:703)
INFO: Particle insertion ins_small: inserted 1 particle templates (mass 1.047198e-05) at step 107061
 - a total of 5948 particle templates (mass 6.228731e-02) inserted so far.
INFO: Particle insertion ins_small: inserted 1 particle templates (mass 1.047198e-05) at step 107071
 - a total of 5949 particle templates (mass 6.229778e-02) inserted so far.
INFO: Particle insertion ins_small: inserted 1 particle templates (mass 1.047198e-05) at step 107081
 - a total of 5950 particle templates (mass 6.230825e-02) inserted so far.
WARNING: Particle insertion: Inserting no particle - check particle insertion settings (../fix_insert.cpp:703)
INFO: Particle insertion ins_small: inserted 1 particle templates (mass 1.047198e-05) at step 107101
 - a total of 5951 particle templates (mass 6.231873e-02) inserted so far.
INFO: Particle insertion ins_small: inserted 1 particle templates (mass 1.047198e-05) at step 107111
 - a total of 5952 particle templates (mass 6.232920e-02) inserted so far.
WARNING: Particle insertion: Inserting no particle - check particle insertion settings (../fix_insert.cpp:703)
WARNING: Particle insertion: Inserting no particle - check particle insertion settings (../fix_insert.cpp:703)
INFO: Particle insertion ins_small: inserted 1 particle templates (mass 1.047198e-05) at step 107141
 - a total of 5953 particle templates (mass 6.233967e-02) inserted so far.
WARNING: Particle insertion: Inserting no particle - check particle insertion settings (../fix_insert.cpp:703)
WARNING: Particle insertion: Inserting no particle - check particle insertion settings (../fix_insert.cpp:703)
INFO: Particle insertion ins_small: inserted 1 particle templates (mass 1.047198e-05) at step 107171
 - a total of 5954 particle templates (mass 6.235014e-02) inserted so far.
WARNING: Particle insertion: Inserting no particle - check particle insertion settings (../fix_insert.cpp:703)
WARNING: Particle insertion: Inserting no particle - check particle insertion settings (../fix_insert.cpp:703)
WARNING: Particle insertion: Inserting no particle - check particle insertion settings (../fix_insert.cpp:703)
INFO: Particle insertion ins_small: inserted 1 particle templates (mass 1.047198e-05) at step 107211
 - a total of 5955 particle templates (mass 6.236061e-02) inserted so far.
WARNING: Particle insertion: Inserting no particle - check particle insertion settings (../fix_insert.cpp:703)
WARNING: Particle insertion: Inserting no particle - check particle insertion settings (../fix_insert.cpp:703)
WARNING: Particle insertion: Inserting no particle - check particle insertion settings (../fix_insert.cpp:703)
WARNING: Particle insertion: Inserting no particle - check particle insertion settings (../fix_insert.cpp:703)
WARNING: Particle insertion: Inserting no particle - check particle insertion settings (../fix_insert.cpp:703)
INFO: Particle insertion ins_small: inserted 1 particle templates (mass 1.047198e-05) at step 107271
 - a total of 5956 particle templates (mass 6.237109e-02) inserted so far.
INFO: Particle insertion ins_small: inserted 1 particle templates (mass 1.047198e-05) at step 107281
 - a total of 5957 particle templates (mass 6.238156e-02) inserted so far.
INFO: Particle insertion ins_small: inserted 1 particle templates (mass 1.047198e-05) at step 107291
 - a total of 5958 particle templates (mass 6.239203e-02) inserted so far.
WARNING: Particle insertion: Inserting no particle - check particle insertion settings (../fix_insert.cpp:703)
INFO: Particle insertion ins_small: inserted 1 particle templates (mass 1.047198e-05) at step 107311
 - a total of 5959 particle templates (mass 6.240250e-02) inserted so far.
INFO: Particle insertion ins_small: inserted 1 particle templates (mass 1.047198e-05) at step 107321
 - a total of 5960 particle templates (mass 6.241297e-02) inserted so far.
WARNING: Particle insertion: Inserting no particle - check particle insertion settings (../fix_insert.cpp:703)
INFO: Particle insertion ins_small: inserted 1 particle templates (mass 1.047198e-05) at step 107341
 - a total of 5961 particle templates (mass 6.242345e-02) inserted so far.
INFO: Particle insertion ins_small: inserted 1 particle templates (mass 1.047198e-05) at step 107351
 - a total of 5962 particle templates (mass 6.243392e-02) inserted so far.
WARNING: Particle insertion: Inserting no particle - check particle insertion settings (../fix_insert.cpp:703)
WARNING: Particle insertion: Inserting no particle - check particle insertion settings (../fix_insert.cpp:703)
INFO: Particle insertion ins_small: inserted 1 particle templates (mass 1.047198e-05) at step 107381
 - a total of 5963 particle templates (mass 6.244439e-02) inserted so far.
WARNING: Particle insertion: Inserting no particle - check particle insertion settings (../fix_insert.cpp:703)
WARNING: Particle insertion: Inserting no particle - check particle insertion settings (../fix_insert.cpp:703)
INFO: Particle insertion ins_small: inserted 1 particle templates (mass 1.047198e-05) at step 107411
 - a total of 5964 particle templates (mass 6.245486e-02) inserted so far.
INFO: Particle insertion ins_small: inserted 1 particle templates (mass 1.047198e-05) at step 107421
 - a total of 5965 particle templates (mass 6.246533e-02) inserted so far.
INFO: Particle insertion ins_small: inserted 1 particle templates (mass 1.047198e-05) at step 107431
 - a total of 5966 particle templates (mass 6.247581e-02) inserted so far.
WARNING: Particle insertion: Inserting no particle - check particle insertion settings (../fix_insert.cpp:703)
INFO: Particle insertion ins_small: inserted 1 particle templates (mass 1.047198e-05) at step 107451
 - a total of 5967 particle templates (mass 6.248628e-02) inserted so far.
WARNING: Particle insertion: Inserting no particle - check particle insertion settings (../fix_insert.cpp:703)
WARNING: Particle insertion: Inserting no particle - check particle insertion settings (../fix_insert.cpp:703)
INFO: Particle insertion ins_small: inserted 1 particle templates (mass 1.047198e-05) at step 107481
 - a total of 5968 particle templates (mass 6.249675e-02) inserted so far.
INFO: Particle insertion ins_small: inserted 1 particle templates (mass 1.047198e-05) at step 107491
 - a total of 5969 particle templates (mass 6.250722e-02) inserted so far.
WARNING: Particle insertion: Inserting no particle - check particle insertion settings (../fix_insert.cpp:703)
INFO: Particle insertion ins_small: inserted 1 particle templates (mass 1.047198e-05) at step 107511
 - a total of 5970 particle templates (mass 6.251769e-02) inserted so far.
INFO: Particle insertion ins_small: inserted 1 particle templates (mass 1.047198e-05) at step 107521
 - a total of 5971 particle templates (mass 6.252817e-02) inserted so far.
WARNING: Particle insertion: Inserting no particle - check particle insertion settings (../fix_insert.cpp:703)
WARNING: Particle insertion: Inserting no particle - check particle insertion settings (../fix_insert.cpp:703)
INFO: Particle insertion ins_small: inserted 1 particle templates (mass 1.047198e-05) at step 107551
 - a total of 5972 particle templates (mass 6.253864e-02) inserted so far.
WARNING: Particle insertion: Inserting no particle - check particle insertion settings (../fix_insert.cpp:703)
WARNING: Particle insertion: Inserting no particle - check particle insertion settings (../fix_insert.cpp:703)
INFO: Particle insertion ins_small: inserted 1 particle templates (mass 1.047198e-05) at step 107581
 - a total of 5973 particle templates (mass 6.254911e-02) inserted so far.
WARNING: Particle insertion: Inserting no particle - check particle insertion settings (../fix_insert.cpp:703)
INFO: Particle insertion ins_small: inserted 1 particle templates (mass 1.047198e-05) at step 107601
 - a total of 5974 particle templates (mass 6.255958e-02) inserted so far.
INFO: Particle insertion ins_small: inserted 1 particle templates (mass 1.047198e-05) at step 107611
 - a total of 5975 particle templates (mass 6.257005e-02) inserted so far.
INFO: Particle insertion ins_small: inserted 1 particle templates (mass 1.047198e-05) at step 107621
 - a total of 5976 particle templates (mass 6.258053e-02) inserted so far.
WARNING: Particle insertion: Inserting no particle - check particle insertion settings (../fix_insert.cpp:703)
INFO: Particle insertion ins_small: inserted 1 particle templates (mass 1.047198e-05) at step 107641
 - a total of 5977 particle templates (mass 6.259100e-02) inserted so far.
INFO: Particle insertion ins_small: inserted 1 particle templates (mass 1.047198e-05) at step 107651
 - a total of 5978 particle templates (mass 6.260147e-02) inserted so far.
INFO: Particle insertion ins_small: inserted 1 particle templates (mass 1.047198e-05) at step 107661
 - a total of 5979 particle templates (mass 6.261194e-02) inserted so far.
INFO: Particle insertion ins_small: inserted 1 particle templates (mass 1.047198e-05) at step 107671
 - a total of 5980 particle templates (mass 6.262241e-02) inserted so far.
WARNING: Particle insertion: Inserting no particle - check particle insertion settings (../fix_insert.cpp:703)
WARNING: Particle insertion: Inserting no particle - check particle insertion settings (../fix_insert.cpp:703)
INFO: Particle insertion ins_small: inserted 1 particle templates (mass 1.047198e-05) at step 107701
 - a total of 5981 particle templates (mass 6.263289e-02) inserted so far.
INFO: Particle insertion ins_small: inserted 1 particle templates (mass 1.047198e-05) at step 107711
 - a total of 5982 particle templates (mass 6.264336e-02) inserted so far.
INFO: Particle insertion ins_small: inserted 1 particle templates (mass 1.047198e-05) at step 107721
 - a total of 5983 particle templates (mass 6.265383e-02) inserted so far.
INFO: Particle insertion ins_small: inserted 1 particle templates (mass 1.047198e-05) at step 107731
 - a total of 5984 particle templates (mass 6.266430e-02) inserted so far.
WARNING: Particle insertion: Inserting no particle - check particle insertion settings (../fix_insert.cpp:703)
INFO: Particle insertion ins_small: inserted 1 particle templates (mass 1.047198e-05) at step 107751
 - a total of 5985 particle templates (mass 6.267477e-02) inserted so far.
INFO: Particle insertion ins_small: inserted 1 particle templates (mass 1.047198e-05) at step 107761
 - a total of 5986 particle templates (mass 6.268525e-02) inserted so far.
INFO: Particle insertion ins_small: inserted 1 particle templates (mass 1.047198e-05) at step 107771
 - a total of 5987 particle templates (mass 6.269572e-02) inserted so far.
INFO: Particle insertion ins_small: inse