LIGGGHTS (Version LIGGGHTS-PUBLIC 3.8.0, compiled 2025-02-21-09:36:36 by nip-demsimulation, git commit 3d5c00f20519e6bb6eb6756f51f1ad36564e649d)
### Initialization
log RBNE_MIX_Trial_3.log
