# vtk DataFile Version 4.2
Generated by LIGGGHTS
ASCII
DATASET POLYDATA
POINTS 69 float
0.00444786 -0.0262607 0.036521 0.0123908 -0.0313041 0.0555926 -0.0347718 -0.0050046 0.0600774 
-0.0229243 0.0275297 0.0523664 -0.010726 -0.0237696 0.0707814 0.00946195 -0.00748149 0.0693009 
0.00402047 0.0151737 0.0681553 -0.00255061 -0.0344866 0.0772957 -0.0375957 -0.0131075 0.0758635 
0.00180274 -0.0069098 0.0785176 -0.0238322 0.0150064 0.0807489 -0.0132303 0.03347 0.0862006 
-0.0330646 -0.0189033 0.0970379 -0.0241437 -0.0138377 0.103386 -0.019811 -0.0028418 0.0957805 
-0.0146674 0.00999377 0.0994247 -0.000786159 -0.00473334 0.114228 -0.0280518 0.00852131 0.11327 
-0.00278769 0.0134908 0.108736 -0.0112836 -0.00774279 0.119196 0.0408435 -0.00337358 0.121236 
-0.0190579 -0.0278753 0.127423 -0.0109084 -0.0316567 0.137017 -0.00192681 -0.00918931 0.130886 
0.0117856 -0.00652846 0.131564 0.027732 -0.0030841 0.133945 -0.00432114 0.0146631 0.130504 
-0.0221852 -0.027096 0.147814 0.00454177 -0.0340324 0.145425 -0.0175682 -0.0215709 0.138217 
0.00901708 -0.0184218 0.141877 0.0253294 -0.0171952 0.137548 0.0141025 0.00976846 0.143 
0.0333067 0.00892399 0.145057 -0.00981799 0.0190974 0.140204 0.00152553 -0.0282943 0.157163 
-0.00638424 -0.0194878 0.159126 0.0221376 -0.0143056 0.155687 0.00942713 0.00235871 0.151369 
-0.0147094 0.0130204 0.149542 -0.00673094 0.0163489 0.157861 -0.0229589 0.0239727 0.152734 
0.0109777 0.0311873 0.149313 -0.0142549 -0.0383728 0.163429 -0.0150907 -0.0202257 0.169963 
0.0197608 -0.0192084 0.16639 0.0381605 -0.0149077 0.168698 -0.0319852 -0.00013263 0.162693 
0.016535 -0.000724429 0.168991 -0.0311925 0.0106201 0.167959 -0.021527 0.00622702 0.162367 
-0.00649989 0.00127171 0.167254 0.0294518 0.00279803 0.166601 0.0118363 0.0132789 0.166865 
-0.00491796 0.023926 0.166987 -0.00749874 0.0333054 0.159964 0.00408364 0.0302909 0.160828 
-0.0183404 -0.0138378 0.179587 -0.0042063 -0.0189728 0.179086 0.00733126 -0.0222654 0.179266 
-0.0366835 -0.00401836 0.181396 -0.00128831 -0.00544066 0.176628 0.0107744 -0.0107721 0.179443 
0.0251996 -0.0038158 0.176694 -0.00867487 0.00376661 0.178787 0.0312541 0.0109342 0.175234 
-0.0143533 0.016567 0.18147 0.014569 0.0152702 0.178378 0.00044193 0.021737 0.181779 

VERTICES 69 138
1 0 
1 1 
1 2 
1 3 
1 4 
1 5 
1 6 
1 7 
1 8 
1 9 
1 10 
1 11 
1 12 
1 13 
1 14 
1 15 
1 16 
1 17 
1 18 
1 19 
1 20 
1 21 
1 22 
1 23 
1 24 
1 25 
1 26 
1 27 
1 28 
1 29 
1 30 
1 31 
1 32 
1 33 
1 34 
1 35 
1 36 
1 37 
1 38 
1 39 
1 40 
1 41 
1 42 
1 43 
1 44 
1 45 
1 46 
1 47 
1 48 
1 49 
1 50 
1 51 
1 52 
1 53 
1 54 
1 55 
1 56 
1 57 
1 58 
1 59 
1 60 
1 61 
1 62 
1 63 
1 64 
1 65 
1 66 
1 67 
1 68 

POINT_DATA 69
FIELD FieldData 7
id 1 69 int
44 510 458 208 557 366 598 506 411 
485 587 612 723 835 875 1056 1185 892 
976 1228 1078 1645 1680 1410 1344 1321 1354 
1569 1931 1538 1502 1612 1730 1856 1405 2238 
2122 2138 1686 2042 1794 1920 1832 1947 2347 
2031 2327 2277 2160 2220 2188 2196 2279 2304 
2166 1985 1917 2427 2471 2477 2388 2474 2476 
2442 2475 2370 2438 2403 2486 
type 1 69 int
2 2 2 2 2 2 2 2 2 
2 2 2 2 2 2 2 2 2 
2 2 2 2 2 2 2 2 2 
2 2 2 2 2 2 2 2 2 
2 2 2 2 2 2 2 2 2 
2 2 2 2 2 2 2 2 2 
2 2 2 2 2 2 2 2 2 
2 2 2 2 2 2 
i 3 69 int
0 0 0 0 0 0 0 0 0 
0 0 0 0 0 0 0 0 0 
0 0 0 0 0 0 0 0 0 
0 0 0 0 0 0 0 0 0 
0 0 0 0 0 0 0 0 0 
0 0 0 0 0 0 0 0 0 
0 0 0 0 0 0 0 0 0 
0 0 0 0 0 0 0 0 0 
0 0 0 0 0 0 0 0 0 
0 0 0 0 0 0 0 0 0 
0 0 0 0 0 0 0 0 0 
0 0 0 0 0 0 0 0 0 
0 0 0 0 0 0 0 0 0 
0 0 0 0 0 0 0 0 0 
0 0 0 0 0 0 0 0 0 
0 0 0 0 0 0 0 0 0 
0 0 0 0 0 0 0 0 0 
0 0 0 0 0 0 0 0 0 
0 0 0 0 0 0 0 0 0 
0 0 0 0 0 0 0 0 0 
0 0 0 0 0 0 0 0 0 
0 0 0 0 0 0 0 0 0 
0 0 0 0 0 0 0 0 0 

v 3 69 double
5.5548200437e-07 3.2195294721e-06 7.3805155346e-06 3.0422069287e-08 2.3333291913e-06 3.3301938922e-06 8.396374441e-06 -4.686399175e-06 -3.5382937282e-07 
-2.9696960061e-06 -8.0591127932e-06 -4.9873950756e-06 4.1165034223e-07 -2.681017871e-06 7.4646505386e-06 -2.6163617343e-06 1.4299355214e-06 -5.9520492403e-07 
1.5775731394e-06 -9.5626221241e-07 -3.4016953069e-06 -1.300518841e-06 3.7688767003e-07 -2.3440368447e-06 2.8285805829e-06 2.6764407318e-06 -1.5029123525e-06 
-3.0761525998e-06 -2.6020829584e-07 1.0410621978e-06 5.1846500696e-06 9.8183827457e-06 1.5459231769e-06 -1.6194926796e-06 2.8231622074e-06 4.1407101924e-06 
2.1307607661e-06 3.7163198867e-07 -1.5020592378e-06 1.0488302073e-06 -4.7111748586e-06 -1.4068512295e-06 3.5145952017e-06 4.9790631086e-08 8.9031180088e-06 
-7.0201942426e-06 8.270525048e-07 -2.1455420753e-06 -6.9541477389e-07 -6.0835190359e-07 5.1038445744e-07 1.2600385739e-06 -1.847546381e-06 -2.5488599946e-06 
-1.213513501e-06 3.3371360417e-07 1.0033500502e-06 1.8935026578e-06 -2.2883092956e-07 2.4571650115e-08 -2.3288817578e-06 -6.4826311883e-06 1.3411179651e-06 
3.5465926983e-06 1.0569786619e-06 -2.1287294589e-06 -1.5888278539e-06 -9.1315668855e-07 1.9533285593e-06 8.5389464759e-07 -1.2718843478e-06 -4.4594129206e-07 
4.1452829371e-07 -1.1529430673e-06 -1.8808720946e-07 2.286429471e-06 9.3196444581e-07 -1.3543633632e-06 -5.4912858958e-07 3.2507000175e-07 -2.0691680171e-06 
2.0742757565e-06 1.169077677e-06 -1.7342513696e-06 4.8667946691e-06 -4.8839018086e-06 -2.0141831141e-06 -1.5839728163e-06 -1.7323361441e-06 -6.9737316169e-07 
1.5221818618e-06 3.0082287337e-06 -5.4996058731e-07 -1.0233483176e-06 7.7413548011e-07 5.0007335208e-07 5.7665809999e-07 -5.4352820511e-07 -1.7952869827e-06 
-3.3390836308e-08 1.4929659008e-07 2.2729213486e-06 -2.9861862284e-07 4.7858433328e-07 -1.7640855153e-06 -1.2797543316e-06 1.7279402814e-06 -1.2962626643e-07 
-1.3677979194e-06 -1.5047877966e-07 2.4252291754e-06 -1.093726772e-06 -2.3693766785e-07 -4.6007114319e-07 -5.5782138061e-08 -1.0490253873e-06 4.4240178099e-07 
5.6664211826e-07 1.2963048961e-06 1.9086019262e-06 1.926000635e-07 4.2224232755e-07 -2.3226163602e-06 3.6660209596e-07 -2.3323310076e-06 6.5116386863e-07 
-1.7981137027e-07 1.5010115851e-07 1.4689591414e-06 -5.0741024295e-07 1.098251562e-06 4.612431137e-07 6.178398786e-08 -6.8409994735e-07 -6.5959286164e-07 
6.6920715308e-08 7.8324846775e-07 4.9966049615e-07 -3.7421670188e-07 5.8823656123e-07 -1.9983283016e-07 -1.9654592059e-07 -7.4588680513e-07 1.6548767105e-07 
3.1912668337e-07 8.4221315869e-07 2.6561752067e-08 -1.4157391213e-06 -1.2437565691e-06 -4.4676197146e-07 1.1556047871e-06 -1.3361490389e-06 -1.5749932845e-08 
-2.8466196576e-07 1.9695847664e-06 4.7817931267e-07 -2.9310709576e-07 6.8037358739e-07 1.9318122984e-07 8.4930334156e-07 4.7874765704e-07 9.3884371239e-08 
6.8313061024e-07 1.6766350976e-06 1.5938369971e-06 5.1230549335e-07 1.3155236211e-06 -1.9431064054e-08 4.5720263153e-07 1.005766166e-07 -8.7552396174e-08 
6.7051094387e-07 -4.0539583602e-07 -5.7225739718e-07 5.0444503172e-07 4.8071418143e-07 8.0972586707e-07 -9.1656954347e-08 7.873828162e-07 7.9969855105e-07 
7.5725381122e-08 3.9096207153e-07 3.4920443974e-07 3.3496540211e-07 2.9599516045e-08 5.1052164261e-07 1.2702240194e-07 1.377592867e-06 2.1948132132e-07 
1.1034584414e-07 5.35630098e-07 -3.676792716e-07 7.9354574526e-07 3.7660967316e-07 -5.1951055398e-07 1.9634906389e-07 1.4479345825e-06 1.1155605566e-07 
4.2525603196e-08 5.4651875103e-07 7.9110655105e-07 -2.5059162088e-07 2.729019277e-07 2.4894371036e-09 6.8560059134e-07 7.8756555781e-07 -3.4163945899e-07 

f 3 69 double
0.0002074787779 -0.00040745123859 1.531158706e-05 -0.00065544703771 0.00016255274613 0.00015395397833 0.0006752924094 -0.00119156183 0.00015065362211 
-0.00045692335196 0.00078770760653 0.00058653370241 -0.00055163910384 -6.9327823915e-05 0.0003825287788 -0.0018150368709 -3.4178219225e-05 0.00025350614173 
0.00017639311582 0.00047520603885 0.00056794093833 -0.00072608566087 0.0011383500388 -6.2164197141e-05 0.00028226822256 0.0006671659155 0.00077572538079 
0.00012015820195 -0.00023644397355 -3.6893055543e-05 -0.0011283232366 -0.00053438608279 -7.4235368279e-05 -0.00037853733271 -0.00016476695513 -0.00035245602518 
0.00015685539132 -0.00016390006211 2.1689278413e-05 0.00015616579669 -0.00025228463407 -0.00052584798217 -0.00022682919274 -0.00019495276911 0.00027584814731 
-0.0001202635398 0.00012158158355 -2.4023497548e-05 -0.00010852879925 2.5730468512e-05 -0.00014486170475 -0.00017838252588 0.00013209483419 -0.00016900567772 
-0.00015194090438 -0.00026421000226 -0.0001879600555 8.3425352299e-05 -2.0934262409e-06 2.5123697339e-05 8.3036292986e-05 0.00011379798368 0.00055539171852 
-0.00047344034388 -0.0002422212065 -0.00021055865819 -4.9380715521e-05 0.00044958283234 -0.00035000567635 -3.0847717728e-05 -3.7377156842e-06 5.6406512356e-06 
6.4837682818e-05 0.00019015990332 -0.00011491555391 0.00078022806944 0.00054142095429 -0.00012379814309 0.00027196980005 -0.00028534744712 -4.1778565411e-05 
-0.00016889410227 8.2062255247e-05 0.00017014090485 0.00026236730257 1.4245163421e-05 -0.00010854309524 2.2324405134e-05 -0.00027485779921 -0.00016745527006 
-0.00032457337282 6.6670224764e-05 9.8439668084e-05 8.0613123247e-05 3.9134550657e-05 -0.00011831581089 0.00012247775457 3.8112643133e-05 2.4227294065e-05 
7.5593251749e-05 -6.9836335277e-05 0.00016551385231 0.00023771524941 0.00020577434842 0.0002788121664 -0.00017194263417 -0.00032056686243 -0.00015899611795 
-3.370063841e-05 -3.0135794032e-05 9.4448311816e-06 9.9833855438e-05 -8.0605811408e-05 -1.7540560102e-05 0.0002555409124 0.00061066568354 -0.00053790051137 
-2.2066781362e-06 -0.00031494736183 5.2186290928e-05 -5.2087083401e-05 4.6381232451e-05 0.00018743821646 -0.00062267594803 -0.00010437647215 0.00015823502763 
-3.5635901063e-05 -4.3419629312e-05 -0.00017064856844 -2.9171363428e-05 -6.4624986309e-05 -3.2384768507e-05 0.000160612955 -5.5368551865e-05 1.2989037141e-05 
6.588800276e-05 -0.00012027933615 6.7354269821e-05 4.231057814e-05 9.4743017134e-05 -1.2878472368e-05 -0.00011461693682 -9.6631576841e-05 3.4192747979e-05 
-0.00015471479233 -0.00036551356286 8.9578757053e-05 3.8889399482e-05 0.00016265408869 4.4635646914e-05 0.00017415157842 -0.00020342416345 6.2596584296e-05 
0.00025305932822 -0.00012624112516 3.6723332881e-05 4.212171906e-05 1.1896459037e-05 1.7138205428e-05 0.00018125429264 -0.00010651418659 2.7607554634e-05 
1.7538743327e-05 -4.2166518348e-05 5.559472408e-05 0.00010285376835 9.0115867839e-05 0.00016297264407 8.4174744236e-06 -7.1143218822e-05 -5.8829816101e-05 
-3.9455196936e-05 -4.1815143149e-05 -5.9915600846e-05 4.8985586253e-06 -1.7305747598e-05 1.0474491941e-05 -3.5343158416e-06 4.476324224e-05 -1.7370165339e-05 
2.5641319953e-05 1.1069863395e-05 -1.9897794374e-05 -4.5193999371e-05 0.00010657925796 -0.00013913487576 -0.00017684170305 2.6087239702e-05 0.00013037505237 
-0.00011768447624 5.8270639409e-06 -4.8321142642e-05 -4.5400055305e-05 1.6178584963e-05 3.3323073029e-05 -7.1562823917e-05 -3.8807917827e-05 -5.5682630369e-05 
5.1626693849e-05 -4.3474887053e-05 -5.7711578705e-06 4.1521701062e-06 6.0889741997e-07 -4.7401052847e-05 8.6954849416e-06 3.2968228479e-05 -6.9261318586e-05 

radius 1 69 double
0.006 0.006 0.006 0.006 0.006 0.006 0.006 0.006 0.006 
0.006 0.006 0.006 0.006 0.006 0.006 0.006 0.006 0.006 
0.006 0.006 0.006 0.006 0.006 0.006 0.006 0.006 0.006 
0.006 0.006 0.006 0.006 0.006 0.006 0.006 0.006 0.006 
0.006 0.006 0.006 0.006 0.006 0.006 0.006 0.006 0.006 
0.006 0.006 0.006 0.006 0.006 0.006 0.006 0.006 0.006 
0.006 0.006 0.006 0.006 0.006 0.006 0.006 0.006 0.006 
0.006 0.006 0.006 0.006 0.006 0.006 
omega 3 69 double
-0.00029698283749 0.0012220610711 -0.00064114600263 0.00044569382389 0.00084511544542 -0.00034399707645 7.3571164843e-05 -0.00085200948607 -0.00046057436896 
-0.0010281476386 1.7583271571e-05 0.0007345595295 -8.2607930363e-05 2.2806731637e-05 0.00023863067246 -0.00061854190912 0.0013419654833 -0.00069523366102 
0.00011008897258 0.00094787202382 0.00058966744154 0.0009185795991 0.00065240611689 0.00041473874127 -0.00054693555748 0.00050380339256 0.00041093462402 
-0.00031989313232 0.00047742094414 -0.00060923285863 0.00090372716693 0.0026314290321 0.002249126837 -0.0001490194515 -0.00044106933433 -0.00025096677291 
0.00010737477897 -7.964806998e-05 0.00030269736774 -0.0014698937308 -7.359583282e-05 0.0018611394285 0.0010599185449 -0.00082904453794 -0.0032288586927 
-0.00061641561325 0.00051264878082 0.00080469512334 -0.00046124212248 0.00023941754909 0.00020322291742 -0.00017639570291 -0.0012067731661 0.00012876582678 
-0.00015995868664 -9.7730650979e-05 -1.5486304931e-05 1.8974950452e-06 0.00014703181258 -9.7151498233e-05 -0.00012798371929 0.0022490870194 0.00077603436331 
-0.00091618542372 0.00020280882244 8.109750162e-05 -0.00011012367364 -0.00071682284094 0.00030294291658 -0.00083688862583 0.00047948269702 -0.00023513856242 
0.00030346810149 4.3696280424e-05 0.00052253464349 0.00049994013139 3.620538592e-05 -0.00061865582519 0.00018960249791 -0.00034387584896 -0.00016725650455 
-1.3584638148e-05 1.775594895e-05 -0.0003722382914 -0.001553670117 0.00025170098105 -0.0011080828888 -0.00026478644033 -4.7932200824e-05 -0.0001921801536 
0.0004070044624 0.00029648671293 0.00031701185545 -0.00015418427729 -5.2454757977e-05 0.0001028528085 -0.00010597585913 0.00048023841138 0.00056417822724 
0.00029588968464 3.7772233282e-05 -0.00016049942079 0.00028861241231 3.926882505e-05 -2.786061762e-06 0.00055124038493 0.00075876989823 -0.0006763103187 
-0.00046121888291 0.00016714226462 -0.00027352334555 0.00030773685317 4.3109676458e-05 0.00039288929457 0.00018184383879 -0.00033637033831 0.00078057906483 
0.00052358006157 6.2700582963e-05 -7.8051771671e-05 0.00085077090899 -0.00031345609375 -0.00044900125494 0.00012367376806 0.00059698389054 -0.00056678478538 
0.00011530825896 -5.9809740302e-05 -0.00010023526304 9.8359140801e-06 0.00019593127991 -1.1826594842e-05 -0.00032105434391 0.00011234299523 0.00037657589243 
0.0001720039871 4.9033654757e-05 -0.0001327883403 6.6206389917e-05 3.7497027737e-05 -6.02987137e-06 -4.577284939e-05 -0.00023245967973 2.4712155177e-05 
1.6789712226e-05 -7.0684515503e-05 3.0939115075e-05 0.00044239398671 -0.00033915063158 -0.00038245483746 0.00035163959461 -0.0005204040854 -0.00027804840049 
0.00018999956558 -0.00010298665306 0.00028705726407 0.00010249362337 -0.00014465482687 1.3411193845e-05 -2.0998661368e-05 5.3529068807e-06 -0.00010615665338 
-4.8180552901e-05 0.00010534458103 -0.00038036844353 -2.3055662686e-05 -0.0001533424391 -3.9603009145e-05 0.00022222371559 -0.00046999196003 9.574540914e-05 
9.0346628529e-05 9.5834481586e-05 -2.9781119978e-05 -0.00016037198835 -0.00013761704748 -9.5343534066e-05 -0.0002605294788 -0.00010565732672 -0.00010107218057 
-0.00013237366368 -0.00024123934837 7.625567594e-05 -0.00016292422924 4.0607047212e-05 0.00010615732867 -4.0800546298e-05 7.8836993848e-05 0.00013001884862 
-7.5021485603e-05 5.2027251891e-05 -5.176196828e-05 0.00019667944097 -0.00010088344117 -0.00010768088491 0.00012805736703 -0.00011578098376 -5.9810518364e-05 
-0.00031792820045 0.00014403041604 -3.6362948144e-05 0.00011512140257 -0.00030557762751 -1.3913123431e-05 -0.00012493391229 -6.5588394837e-05 5.1223598089e-05 

