# vtk DataFile Version 4.2
Generated by LIGGGHTS
ASCII
DATASET POLYDATA
POINTS 69 float
0.00444787 -0.0262607 0.036521 0.0123908 -0.0313041 0.0555926 -0.0347718 -0.00500462 0.0600774 
-0.0229243 0.0275297 0.0523664 -0.010726 -0.0237696 0.0707814 0.00946195 -0.00748149 0.0693009 
0.00402047 0.0151737 0.0681553 -0.0025506 -0.0344866 0.0772957 -0.0375957 -0.0131075 0.0758635 
0.00180274 -0.0069098 0.0785176 -0.0238322 0.0150064 0.0807489 -0.0132303 0.03347 0.0862006 
-0.0330646 -0.0189033 0.0970379 -0.0241436 -0.0138377 0.103386 -0.019811 -0.0028418 0.0957805 
-0.0146674 0.00999377 0.0994247 -0.000786159 -0.00473334 0.114228 -0.0280518 0.00852131 0.11327 
-0.00278769 0.0134908 0.108736 -0.0112836 -0.00774279 0.119196 0.0408435 -0.00337357 0.121236 
-0.0190579 -0.0278753 0.127423 -0.0109084 -0.0316567 0.137017 -0.00192681 -0.00918932 0.130886 
0.0117856 -0.00652846 0.131564 0.027732 -0.00308409 0.133945 -0.00432115 0.0146631 0.130504 
-0.0221852 -0.027096 0.147814 0.00454177 -0.0340324 0.145425 -0.0175682 -0.0215709 0.138217 
0.00901708 -0.0184218 0.141877 0.0253294 -0.0171952 0.137548 0.0141025 0.00976846 0.143 
0.0333067 0.008924 0.145057 -0.009818 0.0190974 0.140204 0.00152553 -0.0282943 0.157163 
-0.00638424 -0.0194878 0.159126 0.0221376 -0.0143055 0.155687 0.00942713 0.00235871 0.151369 
-0.0147094 0.0130204 0.149542 -0.00673094 0.0163489 0.157861 -0.0229589 0.0239727 0.152734 
0.0109777 0.0311873 0.149313 -0.0142549 -0.0383728 0.163429 -0.0150907 -0.0202257 0.169963 
0.0197608 -0.0192084 0.16639 0.0381605 -0.0149077 0.168698 -0.0319852 -0.000132635 0.162693 
0.016535 -0.000724425 0.168991 -0.0311925 0.0106201 0.167959 -0.021527 0.00622702 0.162367 
-0.00649989 0.00127171 0.167254 0.0294518 0.00279804 0.166601 0.0118363 0.0132789 0.166865 
-0.00491797 0.023926 0.166987 -0.00749874 0.0333054 0.159964 0.00408363 0.030291 0.160828 
-0.0183404 -0.0138378 0.179587 -0.00420629 -0.0189728 0.179086 0.00733126 -0.0222654 0.179266 
-0.0366835 -0.00401837 0.181396 -0.0012883 -0.00544065 0.176628 0.0107744 -0.0107721 0.179443 
0.0251996 -0.00381579 0.176694 -0.00867488 0.00376661 0.178787 0.0312541 0.0109343 0.175234 
-0.0143533 0.016567 0.18147 0.014569 0.0152702 0.178378 0.000441925 0.021737 0.181779 

VERTICES 69 138
1 0 
1 1 
1 2 
1 3 
1 4 
1 5 
1 6 
1 7 
1 8 
1 9 
1 10 
1 11 
1 12 
1 13 
1 14 
1 15 
1 16 
1 17 
1 18 
1 19 
1 20 
1 21 
1 22 
1 23 
1 24 
1 25 
1 26 
1 27 
1 28 
1 29 
1 30 
1 31 
1 32 
1 33 
1 34 
1 35 
1 36 
1 37 
1 38 
1 39 
1 40 
1 41 
1 42 
1 43 
1 44 
1 45 
1 46 
1 47 
1 48 
1 49 
1 50 
1 51 
1 52 
1 53 
1 54 
1 55 
1 56 
1 57 
1 58 
1 59 
1 60 
1 61 
1 62 
1 63 
1 64 
1 65 
1 66 
1 67 
1 68 

POINT_DATA 69
FIELD FieldData 7
id 1 69 int
44 510 458 208 557 366 598 506 411 
485 587 612 723 835 875 1056 1185 892 
976 1228 1078 1645 1680 1410 1344 1321 1354 
1569 1931 1538 1502 1612 1730 1856 1405 2238 
2122 2138 1686 2042 1794 1920 1832 1947 2347 
2031 2327 2277 2160 2220 2188 2196 2279 2304 
2166 1985 1917 2427 2471 2477 2388 2474 2476 
2442 2475 2370 2438 2403 2486 
type 1 69 int
2 2 2 2 2 2 2 2 2 
2 2 2 2 2 2 2 2 2 
2 2 2 2 2 2 2 2 2 
2 2 2 2 2 2 2 2 2 
2 2 2 2 2 2 2 2 2 
2 2 2 2 2 2 2 2 2 
2 2 2 2 2 2 2 2 2 
2 2 2 2 2 2 
i 3 69 int
0 0 0 0 0 0 0 0 0 
0 0 0 0 0 0 0 0 0 
0 0 0 0 0 0 0 0 0 
0 0 0 0 0 0 0 0 0 
0 0 0 0 0 0 0 0 0 
0 0 0 0 0 0 0 0 0 
0 0 0 0 0 0 0 0 0 
0 0 0 0 0 0 0 0 0 
0 0 0 0 0 0 0 0 0 
0 0 0 0 0 0 0 0 0 
0 0 0 0 0 0 0 0 0 
0 0 0 0 0 0 0 0 0 
0 0 0 0 0 0 0 0 0 
0 0 0 0 0 0 0 0 0 
0 0 0 0 0 0 0 0 0 
0 0 0 0 0 0 0 0 0 
0 0 0 0 0 0 0 0 0 
0 0 0 0 0 0 0 0 0 
0 0 0 0 0 0 0 0 0 
0 0 0 0 0 0 0 0 0 
0 0 0 0 0 0 0 0 0 
0 0 0 0 0 0 0 0 0 
0 0 0 0 0 0 0 0 0 

v 3 69 double
9.5929388018e-08 -3.7381626043e-06 -2.5632501542e-07 8.3962501928e-07 5.5822663613e-07 2.5914328133e-06 9.6688671993e-06 -2.2014505305e-06 -2.7831545949e-06 
-3.3267542206e-06 -6.8702235852e-06 -4.3781837118e-06 -4.2373520983e-07 -1.5725879926e-06 -1.9967758203e-07 -5.249939172e-07 -1.3843087514e-07 -1.7666643261e-06 
1.6802036875e-06 -5.0353383107e-08 4.4368904157e-09 -5.9561150914e-07 2.3884622069e-06 2.7894438659e-06 1.5124102359e-06 2.5803214728e-06 1.1385139389e-06 
-2.8727162331e-09 -1.0165871218e-06 -2.0717773259e-06 -7.6826741858e-07 7.7732067972e-06 -4.9798107124e-06 1.5869543405e-06 -2.2679352569e-07 2.0505873555e-06 
-1.7675842517e-07 3.6721638006e-07 -1.2159568585e-06 -5.2618750821e-07 8.7228375561e-07 4.4282512494e-07 4.6048567737e-07 1.3047962009e-06 -2.3684904143e-07 
2.3598741694e-07 5.630284022e-07 -1.254361936e-06 -1.069682507e-06 -1.6464401003e-06 -1.9269097544e-06 2.0204324538e-06 -9.3733711658e-07 -3.3645580951e-07 
1.1800090418e-07 7.2932252951e-07 -1.0123693275e-06 -1.245760903e-06 1.0279615771e-06 2.9016838533e-07 -8.4758354645e-07 -3.7374367098e-06 -4.5659192496e-06 
-1.4921056959e-06 -2.4049850269e-06 1.2787830525e-06 3.3109445042e-06 4.4625879175e-08 1.9268176273e-06 -4.8112250547e-07 -9.1994324641e-07 1.9154925527e-09 
7.7096767114e-07 1.6145749505e-07 1.4227527221e-06 -2.4639133802e-06 -2.0855656976e-06 1.6432513535e-06 -4.2545180796e-07 7.7675539731e-07 2.4065246827e-07 
9.6847436936e-07 -5.5232842244e-07 -1.2814537333e-06 -1.7462420313e-06 6.5235204888e-07 5.0066655584e-07 -1.981636766e-07 -1.4441573765e-06 5.839510648e-07 
6.8492050337e-07 -9.6713648348e-07 -1.2520472508e-06 -5.0198419428e-07 -2.6944436218e-06 7.4586633557e-07 3.2540374593e-07 -8.4580824926e-07 4.6029539549e-07 
-8.6780349516e-07 -5.6116169295e-07 -1.9520270096e-06 -5.6828173278e-07 -5.5575580914e-07 1.2466397387e-06 3.465146999e-08 -8.679968702e-07 -7.014713353e-07 
6.8730928615e-07 2.3087339998e-06 -3.4117507681e-07 -3.2949497994e-07 1.9040341562e-08 -9.2588139729e-08 -4.3363976697e-07 -2.0402810222e-06 2.6095405485e-06 
4.7569468807e-07 7.8457393281e-09 -4.3046470399e-07 2.1146509116e-07 -8.5149367373e-07 -1.0620839818e-06 2.137804462e-06 -1.211493779e-06 3.3610134568e-06 
3.8431534057e-07 5.17136852e-07 1.4267150055e-07 2.8985324989e-07 1.6537254468e-06 1.4151362059e-06 2.7769318862e-07 -8.4162355694e-07 1.3164891509e-07 
-1.7552252051e-07 -1.9175010339e-07 6.7710084465e-07 1.2077331381e-07 -1.2881762627e-07 -6.7192384822e-07 -6.7409469201e-07 4.2557953707e-07 -9.8073731207e-07 
3.4970533126e-07 8.7045326226e-07 -1.7758928327e-07 -1.1106363171e-06 -2.468578856e-07 2.4100558961e-07 2.8476283009e-07 -3.9192338469e-07 4.9978563393e-07 
-2.8409915085e-07 -8.8191759111e-07 9.0801921382e-07 -4.555336467e-07 -6.1818887792e-08 -1.3973881044e-07 3.5355826293e-07 7.9509130341e-07 -2.7425204622e-07 
9.0900777856e-07 8.2754403122e-07 1.5085874132e-06 -7.4978736357e-07 -1.3254390283e-06 -1.6137728785e-06 -1.9586926657e-07 -3.3045596133e-07 1.2765201349e-06 
1.1640687126e-06 -6.0731637187e-07 1.5214236597e-06 -3.6375994469e-07 -4.0645592394e-07 6.1896900032e-07 9.6037845151e-07 -3.6199236523e-07 6.0973466189e-07 
-6.0535205704e-07 -7.695536721e-07 3.4031981994e-07 1.0665707597e-07 -3.944831638e-07 1.3643900501e-08 -5.1201251553e-07 -2.9465127708e-07 -2.4433357788e-07 
-5.4185316877e-07 -1.8603105366e-07 -3.2765683464e-08 -4.3578945171e-07 -1.2702459895e-06 -9.3361518947e-08 3.3128087679e-08 4.6640450264e-07 2.0441724689e-07 
-1.0510501465e-07 -2.2282138638e-07 1.6752453205e-06 -1.0535469779e-06 2.6995743877e-07 1.0053502842e-06 -1.0501519297e-06 -6.9387265783e-08 2.826824513e-07 

f 3 69 double
0.00054849467378 -7.8441845111e-05 0.00077890055955 0.0010078788831 -0.00014224111847 0.00049257303161 4.8127333817e-05 0.00013866896961 0.00057565924265 
-0.00029550672247 0.00079136086713 0.00058860944956 -0.00045019385795 -4.7037617976e-05 -0.00064175670979 -3.4281956377e-05 3.7800647462e-05 0.00029489193626 
-0.00080232577071 -0.00069606373999 -0.00016706958761 -0.00045422120932 0.00079730792569 0.0010921248147 0.00026076993072 0.0001001211088 -0.00044515755409 
0.00012280324921 -0.00086780986461 -6.8516595338e-05 -0.00010124753268 0.00080487570029 0.00053929890567 -0.0011117239278 2.2168494501e-05 -0.00012134053746 
-0.00021702214104 0.00040965254936 7.8178632602e-05 -0.0015264840006 0.00054215348344 0.00082564137341 0.00064805515027 -0.00020836526895 -0.0002405981943 
-0.00035651682625 -0.00023141570304 0.00019508270651 0.00021184309432 -0.00016113212918 -0.00011078555187 0.00049201554467 -0.00013155948562 -0.00042923413625 
-0.0001819005918 8.6898381933e-06 0.00031500365569 0.0002077928875 -1.5922502635e-06 1.2851104278e-05 0.00022765438691 -8.5042579796e-05 0.00056857170298 
-0.00042031760272 -0.00018279181205 6.2159257355e-05 -5.9789911652e-05 0.00022694804438 -0.00029773608753 3.5201880753e-05 -0.00015033833639 -3.1560548609e-06 
-0.00021204716464 -0.00018470922174 -0.00053134212976 -0.000204884624 -0.00022529822586 -0.00039779449377 -5.0534216431e-06 0.00028891867917 6.8261204062e-05 
1.6842842136e-06 -0.000102094327 3.5847609689e-05 -0.00050648624009 0.00068239573661 0.00018535969565 -0.00046957801512 0.00096184669825 -0.00019339439436 
0.00039981090762 0.00034598285398 0.00026221100424 -0.00017575273861 -9.9009366824e-05 1.4593157037e-05 -3.6872025704e-05 -0.00023244235546 0.00014253851367 
5.1885473035e-05 -0.00015121311093 0.00039997231247 -0.00015390065393 2.9100063562e-06 7.6946719029e-05 4.6664565192e-05 -0.00020391487559 -9.9504797321e-05 
-5.1705319789e-05 0.00014482564094 -7.0395702811e-05 0.00014936888908 -9.3798365092e-05 1.6832378427e-05 0.00024135058179 -0.00032804748888 0.00034262116699 
0.00012165936869 0.0001336606178 2.3206734545e-05 -0.00018074253305 -9.7078797065e-05 -0.00010396052454 0.00059418296576 0.00027266429297 -0.00030093347099 
-5.5901186676e-05 -1.2312375903e-05 -3.2998764358e-05 2.228187535e-05 -3.9680719204e-05 -3.3638925156e-05 0.00017396245545 4.9772513079e-05 5.4668152363e-05 
5.6327516021e-05 3.1958397601e-05 2.1743750261e-05 0.00010907747915 1.5626188695e-06 -5.1462808633e-05 0.00021214620107 -0.00013653727517 4.3999806495e-05 
0.00013301896796 -2.2129394212e-05 0.00015638477529 -4.1372447593e-05 0.00012944868154 -1.8201328704e-05 -5.0643164252e-07 0.00019082874234 -0.00016664885099 
0.0001792554572 -7.1082163962e-06 0.00012299594466 1.1465210971e-05 -1.6617642205e-05 2.9869806976e-05 0.00021663566815 -1.3251365502e-05 -8.256364052e-06 
-5.7298038258e-05 -0.00015694188781 -0.00026877662992 0.00015210102325 0.00016646856567 9.329856621e-05 1.247282565e-05 -5.3881836005e-05 -9.5243211032e-05 
2.5094113315e-05 -7.6705010103e-05 5.1073390093e-05 2.1475606889e-05 -1.9300288091e-05 2.4963275346e-05 -9.466438535e-06 1.6996606735e-05 1.7549860792e-05 
-2.4848959184e-05 -1.6872398623e-05 -3.6865006365e-05 -6.463705408e-05 8.3466835701e-05 -5.4879617845e-05 -0.00017441084483 2.3195846917e-05 8.4937951579e-05 
-0.00014778698573 1.9965187104e-05 -1.9720197584e-05 2.2736897974e-06 1.5855872327e-05 -1.6474453769e-05 8.8032193472e-05 6.5842669282e-05 4.0167771193e-05 
0.0001540907907 0.00013170267425 9.7513993744e-05 -8.2449726982e-06 2.1108226494e-05 1.8033055996e-05 1.9415714179e-05 2.6959510759e-05 -2.2998682664e-05 

radius 1 69 double
0.006 0.006 0.006 0.006 0.006 0.006 0.006 0.006 0.006 
0.006 0.006 0.006 0.006 0.006 0.006 0.006 0.006 0.006 
0.006 0.006 0.006 0.006 0.006 0.006 0.006 0.006 0.006 
0.006 0.006 0.006 0.006 0.006 0.006 0.006 0.006 0.006 
0.006 0.006 0.006 0.006 0.006 0.006 0.006 0.006 0.006 
0.006 0.006 0.006 0.006 0.006 0.006 0.006 0.006 0.006 
0.006 0.006 0.006 0.006 0.006 0.006 0.006 0.006 0.006 
0.006 0.006 0.006 0.006 0.006 0.006 
omega 3 69 double
-0.00076687025329 0.00077953938923 -0.000201231879 -0.00016692792878 -0.00051943209017 0.00052716469291 1.5521801627e-06 -0.00096710163338 0.00050596729757 
-0.00026733221711 0.000342828277 0.00028740299977 0.00068634181426 0.00063976559846 -0.0002212450755 0.00044149239886 0.0007245655478 -0.00041875869247 
-0.00025167462149 0.0014765208239 -0.0011220400602 -0.0014838069362 0.0002635471972 -0.00086574753943 0.0013552817893 0.00019983144679 -0.0014568346164 
0.00010322052011 -0.00031282211665 0.00043113536775 -0.00074280143871 0.0020056573233 0.0016109750008 -0.00084177072477 0.00021890672218 0.00019420770036 
-9.3607622277e-05 0.00038287611987 0.00015323193778 0.0015295704291 -0.00085111111957 0.00033984666174 0.00053290146955 -0.0013574191309 -0.00076059313371 
0.001000235773 -0.0015457217911 -0.00086192455745 7.1683956753e-05 0.00061449903195 0.00054218019663 0.00058524414747 6.0536564889e-05 0.001103013858 
0.00076614186856 0.00096612674783 -4.0111442782e-05 -0.00042966025634 -0.00022505275321 -0.00017797059714 -0.00047620032701 -0.00069031752017 -0.00023590786846 
-0.0004736502298 -0.00011896685842 -0.00067901406924 -0.00035639491804 -0.00022782007771 -0.00063832286571 0.00026271992773 -0.00024082010484 -0.00025351049636 
-0.00012383573204 -0.00018505447295 -4.2676540855e-05 -0.001561689483 -0.00037635043569 -0.00026310995354 -0.00039987603172 0.00080365125776 0.0008253272742 
-4.4022609174e-05 2.2030404254e-05 -0.00023549679601 -0.00069632708987 -0.00018794152298 0.00050031312052 -6.961053905e-05 0.00014066870222 -0.00027687632268 
0.00041755828489 0.00054198838451 -0.00081531499156 -3.554629156e-05 5.1135096165e-06 -0.00045831873197 5.4745103858e-05 -0.00013598113146 -0.0002451870349 
-6.8227329169e-05 -8.9226817701e-05 -9.9988972165e-05 -0.00049424639646 0.00071416335427 0.00061366968424 0.00098261462686 -0.00040225512749 -0.00013723171581 
-9.9961812235e-05 7.4453728119e-05 0.00031037590711 0.00014632371477 0.00022580347909 -8.3989584983e-05 -0.00063608601253 0.0002381463159 0.00069543348633 
-0.00068255942392 -0.00012089603856 0.00016267062702 0.00017359948439 -0.00036643273753 0.00039731762676 0.00056280788321 -0.00053076551755 -1.8832563781e-05 
0.00034813418081 1.1447970017e-05 -0.00032691512687 -0.00041150685842 0.00015541754008 -1.0901261152e-05 0.00011320639682 -0.00015121770456 -0.00031611107721 
-6.3164143283e-05 7.4348102615e-05 -0.00015833762392 -0.00018924014356 -0.00011347206462 -0.00012250115232 7.1676816977e-05 -4.2665565436e-05 3.570160353e-05 
0.00045864862161 -0.00043495887029 1.7249315517e-05 0.00012793370916 -2.868774102e-05 8.8261789961e-05 -2.2468804365e-05 0.0003975174416 -4.0422401812e-05 
-0.00018648002008 0.00035549452346 0.00051471010651 0.00020830974649 -0.00015158882052 -3.2397813077e-05 -4.8013979331e-05 -0.00015279214657 6.8487400872e-05 
6.1815692266e-05 -0.00039743311539 0.00047223282646 0.00020268866085 -0.00021507656644 -5.8672692714e-06 0.00010837538399 -0.00014451598194 -2.5900181166e-05 
-0.00029464597834 -3.5110695903e-05 2.1463190391e-05 -4.321062208e-05 -5.1076707423e-05 -3.9481394744e-05 5.0655497684e-05 -9.6819685099e-05 -6.7919648993e-06 
-7.6470967139e-05 0.00022556737285 -0.00015380466688 -7.3440799768e-05 -6.9605954955e-05 -8.9951498343e-05 -4.5084083532e-05 -0.00010395207534 -5.7737114724e-05 
-0.00021707444803 0.00016683710787 -8.8907755318e-05 -0.00024594855647 0.00029028472223 -0.00017713946952 0.00029231247208 -3.5901603383e-06 -1.7115591056e-05 
-1.6138821798e-05 0.0001891303885 0.00011655683958 -0.00011487593299 0.0001229405707 -1.7868123043e-05 0.00023491138882 -0.00020317407753 0.00022845561358 

