# vtk DataFile Version 4.2
Generated by LIGGGHTS
ASCII
DATASET POLYDATA
POINTS 69 float
0.00444786 -0.0262607 0.0365211 0.0123908 -0.0313041 0.0555926 -0.0347718 -0.0050046 0.0600774 
-0.0229243 0.0275297 0.0523664 -0.010726 -0.0237696 0.0707814 0.00946195 -0.00748149 0.0693009 
0.00402046 0.0151737 0.0681553 -0.0025506 -0.0344866 0.0772957 -0.0375957 -0.0131075 0.0758635 
0.00180275 -0.0069098 0.0785176 -0.0238322 0.0150064 0.0807489 -0.0132303 0.03347 0.0862006 
-0.0330646 -0.0189033 0.0970379 -0.0241436 -0.0138377 0.103386 -0.019811 -0.0028418 0.0957805 
-0.0146674 0.00999377 0.0994247 -0.00078616 -0.00473334 0.114228 -0.0280518 0.0085213 0.11327 
-0.00278768 0.0134908 0.108736 -0.0112836 -0.00774279 0.119196 0.0408435 -0.00337355 0.121236 
-0.0190579 -0.0278753 0.127423 -0.0109084 -0.0316567 0.137017 -0.0019268 -0.00918932 0.130886 
0.0117856 -0.00652846 0.131564 0.027732 -0.00308409 0.133945 -0.00432114 0.0146631 0.130504 
-0.0221852 -0.027096 0.147814 0.00454181 -0.0340324 0.145425 -0.0175682 -0.0215709 0.138217 
0.00901708 -0.0184218 0.141877 0.0253294 -0.0171953 0.137549 0.0141025 0.00976845 0.143 
0.0333067 0.00892399 0.145057 -0.009818 0.0190974 0.140204 0.00152559 -0.0282943 0.157163 
-0.00638417 -0.0194879 0.159126 0.0221376 -0.0143055 0.155687 0.00942713 0.00235868 0.151369 
-0.0147094 0.0130204 0.149542 -0.00673095 0.0163489 0.157861 -0.0229589 0.0239727 0.152734 
0.0109777 0.0311873 0.149313 -0.0142548 -0.0383728 0.163429 -0.0150906 -0.0202256 0.169963 
0.0197608 -0.0192084 0.16639 0.0381605 -0.0149078 0.168698 -0.0319851 -0.000132639 0.162693 
0.016535 -0.000724679 0.168991 -0.0311925 0.0106201 0.167959 -0.0215271 0.00622699 0.162367 
-0.00649992 0.00127159 0.167254 0.0294516 0.00279799 0.166601 0.0118362 0.0132788 0.166865 
-0.004918 0.023926 0.166987 -0.00749876 0.0333054 0.159964 0.00408361 0.0302909 0.160828 
-0.0183404 -0.0138381 0.179587 -0.00420657 -0.0189717 0.179087 0.00733085 -0.0222649 0.179266 
-0.0366834 -0.00401815 0.181396 -0.00128806 -0.00544186 0.176628 0.0107742 -0.0107716 0.179443 
0.0251995 -0.00381588 0.176694 -0.0086749 0.00376591 0.178787 0.0312541 0.0109342 0.175234 
-0.014353 0.0165671 0.18147 0.0145689 0.0152699 0.178378 0.000442028 0.0217362 0.181779 

VERTICES 69 138
1 0 
1 1 
1 2 
1 3 
1 4 
1 5 
1 6 
1 7 
1 8 
1 9 
1 10 
1 11 
1 12 
1 13 
1 14 
1 15 
1 16 
1 17 
1 18 
1 19 
1 20 
1 21 
1 22 
1 23 
1 24 
1 25 
1 26 
1 27 
1 28 
1 29 
1 30 
1 31 
1 32 
1 33 
1 34 
1 35 
1 36 
1 37 
1 38 
1 39 
1 40 
1 41 
1 42 
1 43 
1 44 
1 45 
1 46 
1 47 
1 48 
1 49 
1 50 
1 51 
1 52 
1 53 
1 54 
1 55 
1 56 
1 57 
1 58 
1 59 
1 60 
1 61 
1 62 
1 63 
1 64 
1 65 
1 66 
1 67 
1 68 

POINT_DATA 69
FIELD FieldData 7
id 1 69 int
44 510 458 208 557 366 598 506 411 
485 587 612 723 835 875 1056 1185 892 
976 1228 1078 1645 1680 1410 1344 1321 1354 
1569 1931 1538 1502 1612 1730 1856 1405 2238 
2122 2138 1686 2042 1794 1920 1832 1947 2347 
2031 2327 2277 2160 2220 2188 2196 2279 2304 
2166 1985 1917 2427 2471 2477 2388 2474 2476 
2442 2475 2370 2438 2403 2486 
type 1 69 int
2 2 2 2 2 2 2 2 2 
2 2 2 2 2 2 2 2 2 
2 2 2 2 2 2 2 2 2 
2 2 2 2 2 2 2 2 2 
2 2 2 2 2 2 2 2 2 
2 2 2 2 2 2 2 2 2 
2 2 2 2 2 2 2 2 2 
2 2 2 2 2 2 
i 3 69 int
0 0 0 0 0 0 0 0 0 
0 0 0 0 0 0 0 0 0 
0 0 0 0 0 0 0 0 0 
0 0 0 0 0 0 0 0 0 
0 0 0 0 0 0 0 0 0 
0 0 0 0 0 0 0 0 0 
0 0 0 0 0 0 0 0 0 
0 0 0 0 0 0 0 0 0 
0 0 0 0 0 0 0 0 0 
0 0 0 0 0 0 0 0 0 
0 0 0 0 0 0 0 0 0 
0 0 0 0 0 0 0 0 0 
0 0 0 0 0 0 0 0 0 
0 0 0 0 0 0 0 0 0 
0 0 0 0 0 0 0 0 0 
0 0 0 0 0 0 0 0 0 
0 0 0 0 0 0 0 0 0 
0 0 0 0 0 0 0 0 0 
0 0 0 0 0 0 0 0 0 
0 0 0 0 0 0 0 0 0 
0 0 0 0 0 0 0 0 0 
0 0 0 0 0 0 0 0 0 
0 0 0 0 0 0 0 0 0 

v 3 69 double
1.4160651465e-06 5.4310705001e-07 1.0605828989e-06 -2.6810592842e-06 1.5411589347e-06 -4.2624656154e-07 2.7102529042e-06 -4.4371290229e-07 -2.0772249204e-06 
-6.2023508863e-06 1.7544728804e-06 3.6641057519e-06 4.66473862e-06 5.2804415205e-07 1.5521524526e-06 2.7754162658e-06 -3.8256439449e-06 -3.0191889147e-06 
2.1190810064e-06 -1.9684617104e-07 5.1950217704e-06 1.1225769884e-07 -2.3224049527e-06 -2.8073371068e-06 5.0969434211e-06 -6.7713033669e-06 -4.1475033633e-06 
5.244888186e-07 3.2333978671e-06 -2.9116500845e-06 -1.0176453155e-06 5.0861517905e-08 3.6906163505e-06 9.5894623983e-07 -3.8196236272e-06 -3.0251863094e-06 
4.4672365583e-07 1.4533641428e-05 -3.921510614e-06 9.3059271051e-06 3.7310037642e-06 -1.6971812524e-06 7.8200071026e-06 -8.0164417969e-07 4.9811163314e-06 
1.2257735411e-06 -4.4322457049e-06 4.2312075181e-06 -1.3659185285e-06 8.3004423181e-07 3.3634690031e-06 6.2269682837e-07 3.8009182252e-07 1.4238251466e-06 
-8.9073116862e-07 2.0923510712e-06 -4.4557871642e-06 -4.8742498492e-07 -8.7515113215e-08 4.6454722376e-06 -1.0525933523e-06 1.6916108747e-06 2.2825996104e-06 
-1.9048736229e-06 6.4934170559e-07 1.6502993038e-06 -2.1100669663e-06 2.7989357138e-06 3.2454142016e-06 5.1269263685e-07 8.9224434813e-07 -4.0977514067e-06 
-1.5703730853e-06 -3.062089009e-06 4.6060684854e-07 2.1208622843e-06 -2.883900288e-06 1.1709283421e-06 -3.6741562762e-07 1.0269639244e-06 1.685188116e-06 
1.0216926625e-07 -1.3924248917e-07 6.8880864745e-07 3.9785770828e-06 6.5466344257e-08 9.9175255937e-07 -2.0670901749e-07 -2.6206220373e-06 -1.1796720819e-06 
-3.3867580934e-06 2.6777001497e-06 -1.7143938992e-06 7.6157438306e-07 -5.2312044355e-07 1.4449684128e-06 1.1757197783e-06 3.9172541735e-07 -8.6867094226e-07 
2.9511183493e-06 1.8587618339e-06 4.9397658259e-06 3.8983380842e-07 -1.0595377553e-06 5.5556544344e-07 -2.468680181e-06 -2.9306129477e-06 -1.521254987e-06 
2.4319269391e-06 -8.3605708325e-07 1.2746218729e-06 -2.1267092783e-06 -2.3929235119e-07 -1.1625375184e-06 4.2850491659e-07 -2.7854859848e-06 8.9588519515e-07 
1.3412721834e-06 -2.0068482151e-07 1.1402899728e-06 -1.5199878954e-06 -3.080937427e-07 1.9624065542e-07 1.7877632607e-06 -4.4327570568e-07 1.6260144278e-06 
-8.3894507366e-07 1.5962903522e-06 9.4301288083e-07 -1.4480675799e-06 6.3784654833e-07 1.0473159826e-06 -1.6716167558e-07 -2.6737100042e-06 6.7839562244e-07 
-3.895541938e-07 1.1817810141e-06 2.2343892479e-06 -6.2990272886e-07 6.5873003851e-07 3.2733045931e-07 5.6130514137e-07 9.0099192612e-07 -7.3111997281e-07 
-1.1883203077e-08 3.8357666807e-07 1.1417678718e-06 -4.1791319851e-07 8.9261254569e-07 1.4265227382e-06 4.043539548e-07 8.6953153592e-07 5.1379191102e-07 
9.5965049699e-08 -1.1131504409e-06 4.5057095432e-07 -4.4552095715e-06 -1.0255057209e-07 1.3516183551e-07 1.3093314277e-06 -5.2367726835e-07 3.1877883873e-07 
-1.4520305205e-06 -6.6107395667e-07 3.8263051133e-08 -3.7123054018e-07 6.7258751598e-07 -3.5307719873e-07 1.4564334538e-06 -1.059661465e-06 -3.0384921281e-07 
-3.4075131084e-07 1.3665506925e-06 2.521050184e-07 4.3945587281e-07 5.4486540365e-07 -3.1270425999e-07 -4.3026229414e-07 8.6109008137e-07 2.0310146805e-07 
1.3765104483e-07 -4.2922301105e-07 -2.9461627842e-07 2.3348515212e-07 1.3781749402e-07 7.5313713835e-07 6.7272386786e-07 5.001761992e-08 -2.0374204485e-06 
-1.644943148e-07 -1.8766473366e-07 -1.8225394126e-07 -2.4923007701e-08 5.8949468434e-07 -1.0325249895e-06 -4.5628743477e-07 7.2139481678e-07 -1.555718817e-06 
7.2355516615e-07 -6.0380372957e-07 -9.9513955998e-07 3.7046905164e-07 -1.1618097352e-06 -5.6209184782e-07 9.4050830018e-07 3.6595361253e-07 5.0128541354e-07 

f 3 69 double
-0.0002276800764 -0.0012099678244 -0.00028453287063 -0.00063766150302 -4.7930625106e-05 0.00026156683022 0.00027271642713 -0.001153258617 -0.00063999845488 
-2.3630032978e-05 -0.00040858206461 0.00031628232287 0.00010667336483 0.00040127741321 4.756657319e-05 0.00016575638945 6.4922918539e-05 -0.00024316588884 
0.0013313167224 -0.00019221386013 -3.301457621e-05 -1.9933985189e-05 0.0012155324936 0.00050674182586 -0.0015467662739 -0.00061782138922 0.00046020106901 
0.00012691065803 6.8276314306e-05 -1.9103184995e-05 -0.00086029021085 0.00089165447038 0.00015489060364 0.00040858213975 -0.00037324281638 0.0004449660219 
0.00038215303468 -0.00037631061297 0.00036702140474 -0.00034986472175 -8.2921807655e-05 0.0004915802891 -0.00047087564971 -0.000157145763 0.0003350145765 
-0.0003480512149 -0.00038006811968 0.0002061095869 0.00043004116477 -3.1783809107e-05 0.00053037146848 -7.5533779654e-05 6.2007537815e-05 -0.00021239298555 
-0.00018318685725 -5.8177262974e-05 3.7005909006e-06 0.00012556966352 -8.5592181197e-05 0.00032651311395 0.00027993483678 0.00076530573055 -0.00063402918868 
-0.00057574050085 -0.0005695518096 -0.00039248384371 -0.00042382640298 7.2959927757e-05 -0.00027835771829 -7.6204875682e-05 2.9421839293e-05 8.0097446405e-05 
-6.5360015122e-06 -8.4924974036e-05 0.00031594098606 -0.00015954105577 0.00023366085569 0.00032930921424 0.00017442633969 -0.00025690219984 -0.00023352338152 
0.00012815132442 0.0003332405292 -0.00018160491908 3.3728710107e-05 -0.0014361438197 -0.00018825923724 6.8141049147e-05 0.00020713997581 9.5094116664e-05 
0.00022160793545 -0.00048961615245 -0.000680197045 0.00014815201789 -6.412492717e-05 0.00026990755475 0.00023957050399 3.0503424078e-05 -0.00013372151759 
-0.00012208474289 -9.3737964221e-05 -4.0640591244e-06 -0.00019370729303 -0.00013428656564 -0.00019502833351 1.3295816715e-06 -0.00010061345698 9.5519989129e-05 
-7.975089809e-05 -7.4341999379e-06 0.00013858756005 -8.5892681252e-06 2.8023779104e-06 -6.9134417803e-05 0.00035012428319 0.00073574167764 -0.00040869998084 
0.00021406315325 0.00013767440451 -3.6667656608e-05 -2.9807092786e-05 -4.3008936191e-05 2.5813869939e-05 0.00015513994759 -0.00036039975742 0.00023570743247 
-0.00026848791102 0.00015942230647 1.2717474983e-05 -5.1848476997e-05 -0.00029481287028 -0.000205718835 0.00021930035698 9.6741329206e-05 -8.5451442541e-05 
0.000186302198 0.0001193963753 -5.9037897394e-05 1.6910642065e-05 2.860355931e-05 -2.2610838287e-05 7.9240783805e-05 4.1601470012e-05 -6.651986324e-05 
0.00029351133889 0.00027443280382 7.0836940496e-05 2.665558658e-05 7.4841528362e-06 6.0057712103e-05 5.844270652e-05 -3.0883676553e-05 6.4225356395e-05 
-8.1329067426e-05 -2.2488098055e-05 -0.00032447290773 -6.5592541119e-05 4.6112365007e-06 5.5563383473e-07 -0.00033970507567 0.00017276167366 2.203558164e-05 
-7.4600770985e-05 0.00014761982058 -3.1381425989e-05 0.00011435766598 0.00013587231929 0.00032273894081 3.4685098843e-06 8.6288143682e-05 1.6621481837e-05 
0.00010565871787 -0.00011580068942 -4.5698909313e-05 -0.00028035489629 -8.8667349822e-05 3.2322011593e-05 -6.1454616518e-05 1.5502485867e-05 7.0354481795e-05 
1.8033324261e-05 5.1658604336e-05 -2.3470493368e-06 4.1576503205e-05 0.00014578065427 -1.4955730909e-05 9.0085760439e-05 2.1330757895e-06 -4.4545873936e-05 
-0.00021351221029 -5.9076505986e-05 -0.00015249551494 -1.8967010843e-06 3.2716609471e-06 2.7594253092e-05 3.1251568335e-05 8.6894812934e-05 0.00010389974268 
-8.3811984237e-05 -4.8493991407e-06 -3.0941838623e-05 -3.5515817291e-05 -5.2269088146e-06 3.2389040438e-05 -5.3336471148e-05 -5.3695805473e-06 -3.5455481567e-06 

radius 1 69 double
0.006 0.006 0.006 0.006 0.006 0.006 0.006 0.006 0.006 
0.006 0.006 0.006 0.006 0.006 0.006 0.006 0.006 0.006 
0.006 0.006 0.006 0.006 0.006 0.006 0.006 0.006 0.006 
0.006 0.006 0.006 0.006 0.006 0.006 0.006 0.006 0.006 
0.006 0.006 0.006 0.006 0.006 0.006 0.006 0.006 0.006 
0.006 0.006 0.006 0.006 0.006 0.006 0.006 0.006 0.006 
0.006 0.006 0.006 0.006 0.006 0.006 0.006 0.006 0.006 
0.006 0.006 0.006 0.006 0.006 0.006 
omega 3 69 double
-0.0015782351078 -0.00022994918567 -0.0011021820967 0.00015347053447 1.3789340028e-05 0.00070988059841 0.00023364806687 0.00052951070359 -0.00012861560834 
0.00066423399819 0.0016437410069 0.0015565644303 -0.00044958598101 0.0002322160208 0.00031402484597 0.00060703968229 -0.0010231980299 0.0031515887277 
0.0012485087829 0.0005453642181 -0.00014298664702 0.0012490029456 8.2262297686e-05 0.0010459980925 0.0020481241519 -0.00086850814846 0.0031820239586 
-0.0019810839277 0.0012244044708 0.0011688564157 -0.0007764712973 -0.0014138280306 0.00051167366337 -0.00083997557135 -0.00060541158099 0.0011111851291 
-0.0019194084795 0.0022708639203 -0.00058418533827 0.00074274997239 -5.3611122163e-05 0.0012193184673 0.00022969454119 -0.00087293368371 0.00031984375264 
0.00088333532164 0.0009764002166 0.0015354883956 0.00071354938649 0.00092416449064 0.00020913854974 0.00076629957595 0.0011168349375 -0.0012279978121 
0.00050284743517 -6.7895446777e-05 -0.00027621391621 -0.00023067580445 -0.00020844684986 0.00049664167911 -0.00046400364218 0.00014378878419 -0.0001314444266 
0.00025338225828 4.1925765622e-05 -0.00020651892879 0.00076354934652 0.00032141071273 0.00045254930156 0.00023428139884 0.00057928171564 -0.00034985103494 
-0.00085836353757 3.6376106322e-05 -8.3349466927e-05 -0.0010478269563 0.00016405509757 -8.3944547481e-05 -0.00028099960185 -0.00082883840665 0.00066997654443 
-0.0006420598096 -3.3099637582e-06 0.00034700496891 -0.002115464078 -0.00025591562566 0.00074488411714 2.3655629732e-05 0.00043821278912 -0.00074473966422 
-2.2669556246e-05 -0.0024821532521 -8.7179543839e-05 -0.0008502674908 3.4531861735e-05 -0.0003663051718 -0.00021760976381 0.0007126857475 0.0006662918921 
0.00018977014353 -0.0015078883765 0.00010540046411 0.00057672137324 0.00017324879821 -0.00076291475049 3.8908823152e-05 -0.00035951747087 0.00011006001357 
-0.00031257024047 -0.00058839990912 0.00078694114173 5.5135312931e-05 -0.00040523100652 -0.00037022933464 -4.4643718255e-06 -8.7656709382e-06 -0.00041171306119 
0.00018616803387 -0.00027689922299 -4.4839793139e-06 -0.0003196612489 2.6321316175e-05 0.00014938500725 0.00040007692579 8.4518780298e-05 -0.00026143883095 
0.00040535577842 0.00031362210794 -1.8037453803e-05 0.00045327027323 6.6672720815e-05 -5.7998002599e-05 0.00021421417943 -0.00025047828216 0.00049542815454 
0.00017854146114 -0.00015065007359 -0.00022464357565 -0.00020836252575 0.00018805967429 5.0221685925e-05 -0.00022714860852 -6.2197929778e-05 0.00014521514138 
1.758931908e-05 -0.00036402771184 -1.7548656859e-05 0.00034705310433 0.00020188677212 -4.6240869243e-05 -0.00037813721874 -1.9885018407e-05 0.00029834678131 
-0.00075939226476 0.00057162484063 0.00093505501515 -0.0004484188206 0.00099608447026 0.00020131871071 -0.00027585473854 -0.00048572244332 0.00023234715933 
0.00016630146519 0.00038178474537 1.7906050214e-05 0.00025253948166 0.0002506679777 -1.8235624354e-05 -0.00036392437688 0.00057458669342 -0.00010738104307 
0.0004490675016 -0.00039924985971 0.00028554114999 0.00038420475789 -2.3631990941e-05 -6.2452730737e-05 -4.5014472138e-06 7.2322875675e-05 5.3498867244e-05 
-0.00028769273579 -0.00018414233124 5.4181946702e-05 9.2457271258e-06 -0.00032022978077 3.6974441843e-05 9.0658643784e-05 -0.00027947163633 -9.9568877459e-05 
-0.00025596550928 -0.00016934009022 -3.8670835773e-05 0.00011526893377 0.00048429568621 8.6757457893e-05 0.00013199284181 -8.7846451616e-05 3.0627169763e-05 
-0.00019986892396 0.00022241192192 -9.2321215935e-05 -0.00014069264797 6.055548645e-05 -0.00021635295637 3.7578528112e-05 -9.4903532617e-05 0.00033943257303 

