# vtk DataFile Version 4.2
Generated by LIGGGHTS
ASCII
DATASET POLYDATA
POINTS 69 float
0.00444787 -0.0262607 0.036521 0.0123908 -0.0313041 0.0555926 -0.0347718 -0.00500461 0.0600774 
-0.0229243 0.0275297 0.0523664 -0.010726 -0.0237696 0.0707814 0.00946195 -0.00748149 0.0693009 
0.00402047 0.0151737 0.0681553 -0.0025506 -0.0344866 0.0772957 -0.0375957 -0.0131075 0.0758635 
0.00180274 -0.0069098 0.0785176 -0.0238322 0.0150064 0.0807489 -0.0132303 0.03347 0.0862006 
-0.0330646 -0.0189033 0.0970379 -0.0241436 -0.0138377 0.103386 -0.019811 -0.0028418 0.0957805 
-0.0146674 0.00999377 0.0994247 -0.000786159 -0.00473334 0.114228 -0.0280518 0.00852131 0.11327 
-0.00278769 0.0134908 0.108736 -0.0112836 -0.00774279 0.119196 0.0408435 -0.00337357 0.121236 
-0.0190579 -0.0278753 0.127423 -0.0109084 -0.0316567 0.137017 -0.00192681 -0.00918932 0.130886 
0.0117856 -0.00652846 0.131564 0.027732 -0.00308409 0.133945 -0.00432115 0.0146631 0.130504 
-0.0221852 -0.027096 0.147814 0.00454177 -0.0340324 0.145425 -0.0175682 -0.0215709 0.138217 
0.00901708 -0.0184218 0.141877 0.0253294 -0.0171952 0.137548 0.0141025 0.00976846 0.143 
0.0333067 0.008924 0.145057 -0.00981799 0.0190974 0.140204 0.00152553 -0.0282943 0.157163 
-0.00638424 -0.0194878 0.159126 0.0221376 -0.0143055 0.155687 0.00942713 0.00235871 0.151369 
-0.0147094 0.0130204 0.149542 -0.00673094 0.0163489 0.157861 -0.0229589 0.0239727 0.152734 
0.0109777 0.0311873 0.149313 -0.0142549 -0.0383728 0.163429 -0.0150907 -0.0202257 0.169963 
0.0197608 -0.0192084 0.16639 0.0381605 -0.0149077 0.168698 -0.0319852 -0.000132634 0.162693 
0.016535 -0.000724426 0.168991 -0.0311925 0.0106201 0.167959 -0.021527 0.00622702 0.162367 
-0.00649989 0.00127171 0.167254 0.0294518 0.00279803 0.166601 0.0118363 0.0132789 0.166865 
-0.00491796 0.023926 0.166987 -0.00749874 0.0333054 0.159964 0.00408363 0.030291 0.160828 
-0.0183404 -0.0138378 0.179587 -0.00420629 -0.0189728 0.179086 0.00733126 -0.0222654 0.179266 
-0.0366835 -0.00401837 0.181396 -0.0012883 -0.00544066 0.176628 0.0107744 -0.0107721 0.179443 
0.0251996 -0.0038158 0.176694 -0.00867488 0.00376661 0.178787 0.0312541 0.0109342 0.175234 
-0.0143533 0.016567 0.18147 0.014569 0.0152702 0.178378 0.000441927 0.021737 0.181779 

VERTICES 69 138
1 0 
1 1 
1 2 
1 3 
1 4 
1 5 
1 6 
1 7 
1 8 
1 9 
1 10 
1 11 
1 12 
1 13 
1 14 
1 15 
1 16 
1 17 
1 18 
1 19 
1 20 
1 21 
1 22 
1 23 
1 24 
1 25 
1 26 
1 27 
1 28 
1 29 
1 30 
1 31 
1 32 
1 33 
1 34 
1 35 
1 36 
1 37 
1 38 
1 39 
1 40 
1 41 
1 42 
1 43 
1 44 
1 45 
1 46 
1 47 
1 48 
1 49 
1 50 
1 51 
1 52 
1 53 
1 54 
1 55 
1 56 
1 57 
1 58 
1 59 
1 60 
1 61 
1 62 
1 63 
1 64 
1 65 
1 66 
1 67 
1 68 

POINT_DATA 69
FIELD FieldData 7
id 1 69 int
44 510 458 208 557 366 598 506 411 
485 587 612 723 835 875 1056 1185 892 
976 1228 1078 1645 1680 1410 1344 1321 1354 
1569 1931 1538 1502 1612 1730 1856 1405 2238 
2122 2138 1686 2042 1794 1920 1832 1947 2347 
2031 2327 2277 2160 2220 2188 2196 2279 2304 
2166 1985 1917 2427 2471 2477 2388 2474 2476 
2442 2475 2370 2438 2403 2486 
type 1 69 int
2 2 2 2 2 2 2 2 2 
2 2 2 2 2 2 2 2 2 
2 2 2 2 2 2 2 2 2 
2 2 2 2 2 2 2 2 2 
2 2 2 2 2 2 2 2 2 
2 2 2 2 2 2 2 2 2 
2 2 2 2 2 2 2 2 2 
2 2 2 2 2 2 
i 3 69 int
0 0 0 0 0 0 0 0 0 
0 0 0 0 0 0 0 0 0 
0 0 0 0 0 0 0 0 0 
0 0 0 0 0 0 0 0 0 
0 0 0 0 0 0 0 0 0 
0 0 0 0 0 0 0 0 0 
0 0 0 0 0 0 0 0 0 
0 0 0 0 0 0 0 0 0 
0 0 0 0 0 0 0 0 0 
0 0 0 0 0 0 0 0 0 
0 0 0 0 0 0 0 0 0 
0 0 0 0 0 0 0 0 0 
0 0 0 0 0 0 0 0 0 
0 0 0 0 0 0 0 0 0 
0 0 0 0 0 0 0 0 0 
0 0 0 0 0 0 0 0 0 
0 0 0 0 0 0 0 0 0 
0 0 0 0 0 0 0 0 0 
0 0 0 0 0 0 0 0 0 
0 0 0 0 0 0 0 0 0 
0 0 0 0 0 0 0 0 0 
0 0 0 0 0 0 0 0 0 
0 0 0 0 0 0 0 0 0 

v 3 69 double
-4.8900486103e-07 4.9122371822e-06 3.1645407147e-06 8.408185035e-07 2.624245647e-06 7.5975993494e-07 -6.5231673756e-06 -1.3313518736e-06 7.381334152e-06 
4.2583778468e-06 1.1340569419e-06 4.4254900266e-06 4.5995482163e-06 4.3579821035e-07 2.8903517031e-07 3.0079130268e-06 -4.3322271349e-06 2.6463262545e-06 
1.6021687347e-06 2.4768305961e-06 1.7221960629e-06 -2.1513210005e-06 -3.2622683631e-07 1.6018013416e-06 6.3719116235e-07 -2.9275042196e-07 3.4552389403e-06 
3.7016293394e-07 1.0994333099e-06 1.486677705e-06 -3.3516853568e-06 -2.4068667878e-06 6.315861276e-08 -1.7310861217e-06 2.3223449273e-06 6.1059291306e-07 
-1.8485826024e-06 -8.6483364018e-07 -1.5538149844e-06 -1.815506959e-06 7.4825839212e-07 3.0863843855e-06 6.9238231827e-07 -3.0573475544e-06 -7.982363768e-07 
-2.5792745126e-07 -1.8166793799e-06 2.6324665372e-07 -4.89832477e-07 1.1448506348e-06 -1.5516640437e-06 -3.8686170463e-07 9.870306548e-07 -2.2315026484e-06 
4.2059022808e-06 -8.3459049788e-07 -8.0207052818e-07 2.3368768938e-06 1.4661141646e-06 -1.1868304841e-06 -6.6265084058e-07 -2.4528975226e-06 -5.1170037273e-06 
4.0490930729e-07 -6.7972203729e-07 7.7907398369e-07 -2.0407977864e-07 -3.6701267437e-07 -2.4198188381e-06 4.642172644e-07 -1.0266578418e-07 -1.9875826401e-07 
-7.8549609288e-07 -2.0245955307e-06 -9.0800690737e-07 -1.8039271144e-07 -3.6819321252e-06 -1.2038654368e-06 -3.5713008937e-07 1.2025497073e-07 8.6742947773e-07 
2.5743578466e-06 3.2626967378e-06 -2.2124008676e-06 -1.7424437987e-06 -6.9293897071e-07 -7.2865308071e-07 9.5351227081e-07 3.6587719874e-06 -5.5822110223e-07 
-1.1493014079e-06 -1.6132606304e-06 -1.9042740507e-06 3.1459454685e-07 2.3531983822e-06 -1.4201563522e-06 -8.1246124131e-08 7.5490882813e-07 -8.2503957596e-07 
-1.1808925118e-07 -1.1841162125e-06 2.2544953764e-09 -1.4755942617e-06 -7.9925869199e-07 -7.6484529e-07 2.0994177046e-07 2.525139651e-06 1.1552075744e-06 
3.8193282962e-07 -7.6904984211e-07 4.0934024588e-07 -6.5883774139e-08 -1.4310719055e-07 -1.0868199833e-06 2.9509628498e-07 -6.3091177727e-07 4.6351557028e-08 
-2.2529311074e-06 3.0856898423e-06 1.4344300784e-06 1.1248963048e-06 -6.2049924016e-07 -1.7685650509e-06 1.9751877906e-06 7.5770163017e-07 1.771668706e-07 
7.4744618663e-07 -7.8688278935e-07 1.6487464438e-07 1.5511329929e-06 8.7875748769e-07 2.830847263e-07 -1.3063741804e-06 -1.0272718702e-06 -5.9390801002e-07 
6.662129052e-07 1.1544160351e-06 -1.9545149446e-07 1.3015327022e-07 -4.9119310839e-07 2.212231799e-08 1.1415369573e-06 -6.6584834033e-08 2.3599564086e-06 
1.7997749127e-07 9.8070560512e-07 -3.7525079735e-07 5.8743510569e-07 -1.5774075027e-06 1.2318720879e-06 -3.9376079318e-07 -1.6648937543e-06 -4.6265397394e-07 
6.4455323511e-07 7.8416447216e-07 8.6808234371e-07 -8.3067984854e-07 3.2872487047e-07 -2.8136508027e-07 3.9161259077e-07 -5.6910392053e-08 -7.9766895013e-07 
-2.7665282321e-07 4.2951309846e-08 2.6326220451e-07 -5.0475383913e-07 1.7254774806e-06 -1.6241052686e-07 -8.3596582841e-08 -3.9457987773e-08 -4.2624343538e-07 
4.8060241083e-07 4.376358535e-07 3.8066867615e-07 1.0757667802e-07 -3.4564941963e-07 4.6416054138e-07 -6.8181563629e-07 -3.1212202647e-08 7.8131798161e-07 
-3.2678506965e-07 -2.9080081537e-07 -3.4776893125e-07 4.1659500899e-07 2.6370531942e-07 4.4767656866e-07 6.5314583907e-07 1.1332653322e-06 -1.0178695828e-07 
-2.2193083421e-07 -4.5906938305e-08 3.6750452259e-07 5.0425807574e-08 -8.6676927349e-07 -6.3828572906e-07 -6.0315834294e-08 1.3475052737e-06 5.6637604923e-07 
4.1862616367e-07 1.8998056194e-06 3.4114796427e-07 -1.5149134435e-07 9.410614392e-08 -5.3635743635e-07 -6.0789935374e-07 7.1485345639e-07 -1.1571505363e-07 

f 3 69 double
0.00090353270781 -0.0010416336823 0.00033801173522 -0.00042475058046 -0.00015938943315 -2.602285405e-05 -5.0191444246e-05 0.0001130415505 -0.0002468264622 
-0.00011016447722 -8.6975628324e-05 -3.7791377604e-05 0.00024352627113 0.0003189634304 -0.0013656639251 -0.00039703860913 -0.00030474044876 0.00061859221573 
0.00061832757813 0.0010762466323 0.0013127356244 -0.00059459651579 0.0015071009781 0.0023132882166 -0.00074720760058 -0.0011091923714 -0.0012518137788 
6.4667336399e-05 -0.0005793328543 -0.00014094325034 5.9408396148e-05 -0.0023839446295 0.00034838792095 0.00068404747136 -0.00061166063161 -0.00062327354882 
-0.00069770248232 0.00039571121672 6.4265848876e-05 -0.0014235022811 -0.00017863924473 0.0006104368434 -0.00023724963041 -4.7547223775e-05 -0.00069428082996 
0.00016373915225 -0.00060292248202 0.00034566611201 0.00016062137634 -1.6997523721e-05 5.4727956693e-05 0.00024145033514 0.00017544768902 0.00016090567655 
-0.00033963273809 0.00016401376143 -5.2326833055e-07 -0.00038799878257 -0.00010217306243 -6.033970115e-06 0.00013763857288 -0.00012579943795 0.00011814196595 
0.00019711092372 -0.00016568045928 0.00030280448117 0.00022025322432 -0.0002367556186 0.00040216965507 -7.02460843e-05 0.00015008605096 1.4638812243e-05 
-7.3043041143e-05 -0.00026919901039 -0.00021140177317 -0.00027920299702 -5.3173489835e-05 -0.00028653833214 0.00011763790681 -0.00014303613932 -0.00018060550239 
-0.00011161942903 -0.00010678463355 0.00040105743733 -6.1319845181e-05 0.00069404231811 -0.00010574397124 -0.00047049348567 0.00028283367552 0.00036009190935 
-0.00018213030858 4.920066049e-05 0.00017061658979 9.1994679981e-05 -8.4224966011e-05 -0.0002710173237 -2.5184245421e-05 0.00012630562798 -0.00024430494367 
-4.6169105121e-05 -0.00017387818377 0.00019723507476 0.00019877837518 0.00036067877627 -0.00011142814062 -2.4926070402e-05 -0.00015425092462 2.5244713618e-05 
8.4440437852e-05 -0.00019631399214 -0.00013539627077 -0.00012087889784 8.7903321221e-05 -9.7448814678e-05 -6.4116899964e-05 2.3394750398e-05 -0.00013060735467 
7.7012892717e-05 -0.00012762657156 -4.513936472e-05 3.7694467667e-05 -5.9352415938e-05 9.249885171e-05 -0.00065963235766 -0.00017533940179 -0.00022586840079 
-2.6476512401e-05 3.1570683972e-05 9.9315338069e-05 3.5659201908e-05 0.00033314288572 0.00020355738774 -0.00010100414646 3.4914539383e-05 -2.9153232229e-05 
8.2819814185e-05 -2.3343269929e-05 -3.7044865643e-05 -1.1948321035e-05 6.0933661641e-05 -5.576340869e-05 -6.0290773802e-05 -0.00019182548371 0.00017505939944 
0.00015051883806 8.1584572189e-05 5.2839336428e-05 7.5613861008e-06 3.6592907e-05 -3.621147441e-05 7.3567142307e-05 -0.00018680789477 1.2370906886e-05 
-5.1331001865e-05 9.8766288158e-05 0.00024297549806 -3.685370453e-05 -1.2622589149e-05 1.1008761942e-05 0.00039566921553 0.00018043899146 -7.1811091232e-05 
4.4937384488e-05 -5.1820313592e-05 6.9466256481e-05 -6.2422786373e-06 -8.7762356594e-05 5.7514134885e-06 -4.7796217248e-05 3.2280825323e-05 -3.4046105478e-05 
-9.2568334418e-05 9.7628077924e-05 2.8369312186e-05 -4.1076115916e-06 -1.2680662558e-05 5.0895958341e-05 4.8071419108e-05 4.5625966614e-05 -1.0944680648e-05 
4.5989415961e-05 4.6894664613e-05 0.00013438889978 -4.6201601951e-05 -0.00010653401219 -0.0001155558478 -0.00011534455438 -3.1939435969e-06 1.4071405028e-05 
0.00010810337909 -1.2886981507e-05 1.8191439343e-05 -3.4878158994e-05 1.2040232273e-05 1.2403569489e-05 8.3945992828e-05 0.00010106837275 6.2559285239e-05 
3.7593688916e-05 -3.5804489903e-05 7.1361011852e-06 -2.9671501297e-05 1.3515206265e-05 -3.5251299967e-05 7.9646631486e-06 -3.9488432792e-05 6.9797009332e-06 

radius 1 69 double
0.006 0.006 0.006 0.006 0.006 0.006 0.006 0.006 0.006 
0.006 0.006 0.006 0.006 0.006 0.006 0.006 0.006 0.006 
0.006 0.006 0.006 0.006 0.006 0.006 0.006 0.006 0.006 
0.006 0.006 0.006 0.006 0.006 0.006 0.006 0.006 0.006 
0.006 0.006 0.006 0.006 0.006 0.006 0.006 0.006 0.006 
0.006 0.006 0.006 0.006 0.006 0.006 0.006 0.006 0.006 
0.006 0.006 0.006 0.006 0.006 0.006 0.006 0.006 0.006 
0.006 0.006 0.006 0.006 0.006 0.006 
omega 3 69 double
-0.00090651791951 0.0010657846296 -0.00066247648713 0.00067793703998 -0.00075209425995 -0.0011005927043 0.001860513607 0.0016064475063 -0.00018332637422 
0.0014939626416 0.00053129205631 -0.00022371768939 -0.00023380142345 1.7671851471e-07 0.0001378198662 0.00066676818561 -0.00044549618342 -0.00060171933484 
-0.00032519663327 -0.00086902531678 0.00042729388974 -0.001500618927 0.00056188154564 -0.00049091568467 -5.0240314742e-06 -0.00063443136438 0.0019115881976 
0.00017389888725 -0.00090712292904 0.00020586338534 -0.00078392637046 -0.0021554382394 -0.0011743706273 -0.00067058992017 -0.00093910913579 0.00027570839968 
-0.00013104477637 -0.00025125247915 -0.00061617066318 0.0014475988689 -0.00092867122924 -0.00080908819346 0.0013671133711 -0.00030482542576 0.00031323302367 
-0.00057056983376 0.0011272261062 0.00026551802394 0.00053168964652 -0.00017431601637 -0.0003091186651 0.00060966011824 0.00034818060514 0.00026630040083 
-5.3286438183e-05 -8.8147899416e-05 0.00026299292071 -0.00022976826388 -1.7806716883e-05 0.00045859473313 0.00015408306089 -0.0016969525036 -0.00089519629238 
0.00045578307497 -0.0007271865753 0.00062558252689 -0.00085137185223 0.00018447120277 0.00022837581745 -4.4763356151e-05 -0.0002891137303 0.00038463672611 
-2.2484585647e-05 0.00018816158758 -0.00025701003711 -0.00212303182 1.1444110303e-05 -0.0008899103003 0.00039640356472 -0.00059923425794 0.00035002803222 
-0.00032901692689 0.00037530815276 0.00022016164004 0.00044614276053 -0.0007118068756 0.00057727400844 0.0021438522749 0.00012072120779 -0.0011317281976 
-0.00050911092492 0.00074104854531 -0.00046820259207 0.00045140626323 5.6633409396e-05 0.00026019258011 -0.00011636663348 -0.00051316291326 -6.5574876937e-05 
-0.00041712687366 9.598628801e-05 0.00016971617987 -4.45481634e-05 -0.00082358022635 -0.00021502122955 -0.00059273702505 -0.00023071199141 0.00056743299914 
0.00013404266968 -4.5803296802e-05 0.00041709299388 -2.9428227195e-05 0.00022426765504 2.4089382764e-05 -0.00020137779714 -0.0001302971461 8.8637534508e-05 
0.0011064549145 -0.00016413469563 -0.00028880704925 0.00051319025711 -0.00019161056207 -0.00041770963839 0.0010435181634 -0.00053021917549 -0.00049842463908 
0.00015633411266 -0.00011032826801 0.00032442473407 0.00081136217206 -0.00016272947808 1.0810176043e-05 -8.9879131601e-05 -0.00012276558662 0.00022659631088 
-0.00014859261652 -0.00011554590038 0.00013309569843 3.3353766667e-05 0.00017574070338 0.00010925354693 -1.6966837575e-05 -3.6451155378e-05 -8.0762163579e-05 
0.0006135852834 -0.00046914341244 0.00014307342739 -4.9939415477e-05 8.9804991705e-05 -0.00019411523176 0.00054212620961 -0.00040548917275 -0.00045807885604 
0.00012475400234 -0.00019538474772 -0.00016069872769 6.4694789022e-06 0.00024343472198 -6.8167862524e-05 0.00015284910128 -4.6959358144e-05 0.00016243828196 
0.00031092971549 -0.00017461199293 -0.0001647572227 0.00021758771224 8.8752670972e-05 -0.00013584138865 -0.00022978830734 0.00032722013527 0.00025291716462 
0.00042955560774 -0.00018730889853 -0.00023121416367 -0.00015894821503 -0.00014691990263 -7.8770607974e-05 -4.6994126079e-06 -0.00023561265854 -5.9920935374e-05 
8.1496358097e-05 -6.8083160323e-05 -5.1105053692e-05 -9.7153081284e-05 -0.00041103685419 -6.2909028996e-05 -1.2378073671e-05 -0.0001441798359 -7.1118411747e-06 
0.00010964749124 -4.4023075569e-05 3.9299762656e-05 0.00022526360708 -0.00018261497212 3.3790943419e-05 -9.2764570954e-05 -8.8196205099e-05 1.3401767852e-05 
0.00047536932561 -0.00010372208273 6.399193993e-05 4.6554321473e-05 -0.00013229036418 -0.00010339992142 -8.3269780591e-05 3.6095404004e-05 -4.4527742898e-06 

