# vtk DataFile Version 4.2
Generated by LIGGGHTS
ASCII
DATASET POLYDATA
POINTS 69 float
0.00444787 -0.0262607 0.036521 0.0123908 -0.0313041 0.0555926 -0.0347718 -0.0050046 0.0600774 
-0.0229243 0.0275297 0.0523664 -0.010726 -0.0237696 0.0707814 0.00946195 -0.00748149 0.0693009 
0.00402047 0.0151737 0.0681553 -0.00255061 -0.0344866 0.0772957 -0.0375957 -0.0131075 0.0758635 
0.00180274 -0.0069098 0.0785176 -0.0238322 0.0150064 0.0807489 -0.0132303 0.03347 0.0862006 
-0.0330646 -0.0189033 0.0970379 -0.0241437 -0.0138377 0.103386 -0.019811 -0.0028418 0.0957805 
-0.0146674 0.00999377 0.0994247 -0.000786159 -0.00473334 0.114228 -0.0280518 0.00852131 0.11327 
-0.00278769 0.0134908 0.108736 -0.0112836 -0.00774279 0.119196 0.0408435 -0.00337358 0.121236 
-0.0190579 -0.0278753 0.127423 -0.0109084 -0.0316567 0.137017 -0.0019268 -0.00918932 0.130886 
0.0117856 -0.00652846 0.131564 0.027732 -0.0030841 0.133945 -0.00432114 0.0146631 0.130504 
-0.0221852 -0.027096 0.147814 0.00454177 -0.0340324 0.145425 -0.0175682 -0.0215709 0.138217 
0.00901708 -0.0184218 0.141877 0.0253294 -0.0171952 0.137548 0.0141025 0.00976846 0.143 
0.0333067 0.00892399 0.145057 -0.00981799 0.0190974 0.140204 0.00152553 -0.0282943 0.157163 
-0.00638424 -0.0194878 0.159126 0.0221376 -0.0143056 0.155687 0.00942713 0.00235871 0.151369 
-0.0147094 0.0130204 0.149542 -0.00673094 0.0163489 0.157861 -0.0229589 0.0239727 0.152734 
0.0109777 0.0311873 0.149313 -0.0142549 -0.0383728 0.163429 -0.0150907 -0.0202257 0.169963 
0.0197608 -0.0192084 0.16639 0.0381605 -0.0149077 0.168698 -0.0319852 -0.000132633 0.162693 
0.016535 -0.000724428 0.168991 -0.0311925 0.0106201 0.167959 -0.021527 0.00622702 0.162367 
-0.00649989 0.00127171 0.167254 0.0294518 0.00279803 0.166601 0.0118363 0.0132789 0.166865 
-0.00491796 0.023926 0.166987 -0.00749874 0.0333054 0.159964 0.00408363 0.0302909 0.160828 
-0.0183404 -0.0138378 0.179587 -0.0042063 -0.0189728 0.179086 0.00733126 -0.0222654 0.179266 
-0.0366835 -0.00401837 0.181396 -0.0012883 -0.00544066 0.176628 0.0107744 -0.0107721 0.179443 
0.0251996 -0.0038158 0.176694 -0.00867488 0.0037666 0.178787 0.0312541 0.0109342 0.175234 
-0.0143533 0.016567 0.18147 0.014569 0.0152702 0.178378 0.000441924 0.021737 0.181779 

VERTICES 69 138
1 0 
1 1 
1 2 
1 3 
1 4 
1 5 
1 6 
1 7 
1 8 
1 9 
1 10 
1 11 
1 12 
1 13 
1 14 
1 15 
1 16 
1 17 
1 18 
1 19 
1 20 
1 21 
1 22 
1 23 
1 24 
1 25 
1 26 
1 27 
1 28 
1 29 
1 30 
1 31 
1 32 
1 33 
1 34 
1 35 
1 36 
1 37 
1 38 
1 39 
1 40 
1 41 
1 42 
1 43 
1 44 
1 45 
1 46 
1 47 
1 48 
1 49 
1 50 
1 51 
1 52 
1 53 
1 54 
1 55 
1 56 
1 57 
1 58 
1 59 
1 60 
1 61 
1 62 
1 63 
1 64 
1 65 
1 66 
1 67 
1 68 

POINT_DATA 69
FIELD FieldData 7
id 1 69 int
44 510 458 208 557 366 598 506 411 
485 587 612 723 835 875 1056 1185 892 
976 1228 1078 1645 1680 1410 1344 1321 1354 
1569 1931 1538 1502 1612 1730 1856 1405 2238 
2122 2138 1686 2042 1794 1920 1832 1947 2347 
2031 2327 2277 2160 2220 2188 2196 2279 2304 
2166 1985 1917 2427 2471 2477 2388 2474 2476 
2442 2475 2370 2438 2403 2486 
type 1 69 int
2 2 2 2 2 2 2 2 2 
2 2 2 2 2 2 2 2 2 
2 2 2 2 2 2 2 2 2 
2 2 2 2 2 2 2 2 2 
2 2 2 2 2 2 2 2 2 
2 2 2 2 2 2 2 2 2 
2 2 2 2 2 2 2 2 2 
2 2 2 2 2 2 
i 3 69 int
0 0 0 0 0 0 0 0 0 
0 0 0 0 0 0 0 0 0 
0 0 0 0 0 0 0 0 0 
0 0 0 0 0 0 0 0 0 
0 0 0 0 0 0 0 0 0 
0 0 0 0 0 0 0 0 0 
0 0 0 0 0 0 0 0 0 
0 0 0 0 0 0 0 0 0 
0 0 0 0 0 0 0 0 0 
0 0 0 0 0 0 0 0 0 
0 0 0 0 0 0 0 0 0 
0 0 0 0 0 0 0 0 0 
0 0 0 0 0 0 0 0 0 
0 0 0 0 0 0 0 0 0 
0 0 0 0 0 0 0 0 0 
0 0 0 0 0 0 0 0 0 
0 0 0 0 0 0 0 0 0 
0 0 0 0 0 0 0 0 0 
0 0 0 0 0 0 0 0 0 
0 0 0 0 0 0 0 0 0 
0 0 0 0 0 0 0 0 0 
0 0 0 0 0 0 0 0 0 
0 0 0 0 0 0 0 0 0 

v 3 69 double
-8.322699473e-07 -2.8126562745e-06 -2.470720827e-06 -3.5496196497e-06 -5.9749191084e-08 -1.6315320803e-06 3.2309122106e-06 1.6154657802e-06 -6.8099993989e-07 
5.2090823002e-06 -1.4963893829e-06 -1.3659197253e-06 -3.0251205318e-06 1.7582287234e-06 5.0394395451e-06 -4.7165007149e-06 2.7792377528e-06 -1.3943287106e-06 
2.834246739e-06 1.3346662493e-06 -1.8265803916e-07 6.1675178202e-07 -1.1344625338e-07 -2.6139424364e-06 4.2654137674e-06 9.9392404097e-07 -3.9119927723e-06 
-3.1845401026e-06 3.6982686951e-07 -7.5678446682e-07 -8.1739049555e-06 -7.5792742084e-06 3.9304812055e-06 3.0591860484e-06 -4.1897617254e-06 -3.2716512344e-06 
-1.3833135649e-06 8.7730363403e-07 7.5849640569e-07 -1.5212386373e-06 5.7178507657e-07 -3.8326171874e-06 -2.0235317468e-06 3.9801603353e-06 -1.692323284e-06 
1.9294061519e-06 6.2267413947e-07 -1.2913995671e-06 -5.3492395018e-07 -1.9958242721e-06 -2.9590124207e-07 1.4844377349e-06 -1.4073044535e-06 -2.1839312246e-06 
-3.9759620969e-06 -9.18058569e-07 -2.7401569411e-06 -3.6678803064e-07 -1.6676628198e-06 7.2715383653e-07 1.0641484639e-06 6.2936310165e-06 -2.1953928996e-06 
1.313208028e-06 -3.6259598039e-08 6.5733510398e-07 9.4106567262e-07 2.108630118e-06 2.2903827028e-07 6.7643651132e-08 3.8224384331e-07 -4.2803779982e-07 
-2.8570230133e-07 1.8995920634e-06 1.383932341e-06 -1.9159676456e-06 -3.8849764842e-06 -1.487520487e-06 -1.5395505672e-06 1.2891880988e-06 -1.2798541553e-06 
-1.1961778338e-06 -3.1734901835e-06 -4.277729425e-07 1.0868642882e-06 2.6122414322e-06 1.1318851526e-07 3.6894768033e-07 -2.8704111986e-06 -3.6466730481e-06 
-6.9826543267e-08 -1.8183227271e-06 -3.1534206062e-06 5.0480218841e-07 1.3176350293e-06 -6.3166483074e-07 4.5389932506e-07 7.0895165164e-08 4.827651484e-07 
7.3749181488e-07 -1.5145218607e-07 -6.201183843e-07 2.6756520533e-06 2.3393913885e-06 1.1369587112e-06 -3.2508559056e-06 -2.9015709454e-07 5.1313705721e-07 
1.2078892381e-06 -8.6593248217e-07 2.671264018e-07 5.3990301692e-07 -6.6472272423e-07 5.172789454e-07 -7.7336473264e-07 -2.4274999785e-06 6.6122048553e-07 
1.4102424487e-06 -1.0238922019e-06 -9.5964096076e-07 -1.5498325604e-06 2.9069775597e-07 1.6541169534e-07 -2.7298610791e-06 1.0518102039e-06 -1.9611579177e-06 
1.0584807314e-06 3.7475247907e-08 -7.4068731549e-07 -1.5276643011e-06 1.2914372363e-06 4.0454593295e-07 -5.450304423e-07 -3.907584714e-07 2.6261602463e-07 
5.5699121895e-07 4.74554665e-07 9.9043730523e-07 -4.3329089984e-07 -7.744812618e-07 8.0280499155e-07 1.5458068927e-06 -6.6030495173e-07 1.9241073243e-06 
2.1150774978e-08 -1.4753261107e-07 6.4817307252e-07 -4.9389566059e-08 2.0710992982e-06 -5.4216210484e-08 -1.3426942094e-06 1.2542032459e-06 -5.1959035906e-07 
-1.0936100271e-06 -1.0609268943e-06 -1.2497530018e-06 4.3340167814e-07 -2.0221400809e-07 -5.3484989044e-08 -6.8388931112e-08 -2.8107497327e-07 3.6441349769e-07 
-6.4038570807e-07 7.2585539119e-07 -5.547921653e-07 8.5658731762e-07 -2.4531654477e-06 2.830346034e-08 5.853691256e-07 7.9879683972e-07 -8.4237109821e-07 
-6.0178256378e-07 1.3715695681e-07 1.2962507968e-06 -8.2158867133e-08 -2.4024972107e-07 8.9953303177e-07 4.9614293955e-07 -1.0911236615e-06 8.0524321041e-07 
-6.6546403894e-07 9.1955466677e-08 -1.185019031e-07 -8.3121821611e-07 -3.0379506454e-07 -8.9057478448e-07 -9.5931728443e-07 -1.3320229466e-07 3.2911862448e-08 
6.501226576e-07 -6.2223898543e-07 3.3849444607e-07 -6.3586293342e-08 4.8411638057e-07 5.5296149586e-07 -4.4806355429e-07 1.6287411933e-07 3.8537383497e-07 
-5.1113108931e-08 -1.114580796e-06 3.0429692847e-07 2.6989254398e-07 -1.0294815851e-08 -2.7055803567e-07 6.3509806977e-08 3.4729284278e-08 -9.4287482995e-07 

f 3 69 double
-0.00031822166522 -0.00014644996353 -0.00035480233397 0.00050031122251 -8.8698338631e-05 0.00032654192397 -0.00016735751049 0.0010322727964 0.00040468522473 
-0.00044718822249 0.00076707179322 -0.0001489178932 -0.00034403721857 0.00014850458965 -2.3755478433e-05 -0.00017481302382 -0.00027122891847 0.00038830636376 
-7.5243563883e-05 -0.00010313264763 0.00052802338515 0.00032211218412 0.00025700219823 -0.0003773578256 -0.00033266167036 -0.00063753699688 -0.0011554893361 
0.00016329543041 -0.00050116938097 -0.00041443266414 0.00040548573347 0.00033564804832 -0.0001152281524 -0.00051615859562 0.00014972565327 -0.00036764270177 
-0.00045636023118 8.3948781462e-05 0.00012692353953 0.00067693382589 -0.00025096504417 -0.00048348993119 6.9253638865e-05 2.8812720578e-05 0.00023066745699 
0.00015139239707 0.00063881202461 -0.00021137140034 7.3423384552e-05 -0.00025373916794 -0.00028145301749 -0.00052463246219 0.00038262550386 0.00043032595275 
-3.3985353335e-05 0.00016612993428 -0.00052744749338 0.00037716795748 -0.00014863717981 0.00016967915173 6.8241752248e-05 0.00034274557691 -0.0013034642176 
-0.00059878681439 -0.00020496143781 -8.8259487728e-05 -1.6224633848e-05 0.00033140316795 -0.00048243055631 9.096316798e-05 0.00019289240741 2.4254256971e-05 
-3.2324958368e-05 -6.0833633496e-05 -0.00014307535695 -0.00084040974143 -0.00073259680384 -0.00018322813071 -3.0808717903e-05 0.00035792876485 3.7307659133e-05 
-0.00030577179589 -0.00023093437458 -0.00021518675107 -0.00014345311404 0.0007082750971 -1.6345492801e-05 0.00013336374362 -9.1186136251e-05 -0.00025491118726 
0.0002893778487 9.6310562125e-05 0.00010046407288 -0.00012013750495 -6.5494355197e-05 0.00010641943824 -8.5607965933e-05 -0.00017062199106 0.00014726241696 
1.6924900199e-05 -6.3753108008e-05 0.00011700617452 2.4045420351e-05 0.0001545805719 -0.00025231769601 7.2915809479e-05 -0.00032502386463 -0.00020110353108 
8.6752755315e-05 0.00016803656039 0.00011732041121 -6.6412499323e-05 5.9888709057e-05 4.3679898075e-05 7.8142330041e-05 -0.00028930849573 0.00013536090921 
0.00027514248271 0.00048189710232 -3.5997122603e-06 -1.5115267564e-05 -1.2500682693e-05 -8.0587289839e-06 0.00011570428605 8.5706126863e-05 0.00035144942743 
9.0753515071e-05 -0.00012026155704 3.4781732548e-05 -2.8368590381e-05 4.4558552229e-05 -7.1072060878e-06 -1.4528144592e-05 9.8333864926e-05 -2.1994230055e-05 
9.8515347119e-05 -0.0001072815458 2.2294326081e-05 2.5068986006e-05 2.4858018746e-05 -5.2338177047e-06 -0.00015189125285 -8.9396192129e-05 -0.00017468025894 
-2.7862262526e-05 -3.3552552711e-06 -0.00011410777381 1.9390077896e-05 0.00011194512376 -4.8748495514e-05 -9.7509110743e-05 -7.8963236628e-05 0.00024286727653 
-3.3525462858e-05 -9.5665719183e-05 -5.7505728007e-05 -2.8342597515e-05 8.5586904301e-07 2.7076721771e-05 0.00028573534107 1.8238234624e-05 -6.1207932967e-05 
-6.22172691e-05 -5.9632830703e-05 -0.00013290541799 -3.1955522537e-06 2.1615674843e-05 -9.0226216274e-06 3.3228625231e-05 -1.2239830921e-05 -0.00011197941549 
5.5378148538e-05 -0.00013576308516 -6.9982544375e-05 5.1943238041e-06 1.6879228187e-05 -2.8154450418e-05 -2.248440356e-05 1.7078677911e-05 1.6301559664e-05 
5.8186614283e-05 8.0520444483e-05 -3.6050085619e-06 3.7749172948e-05 -7.6992778849e-05 8.2787460235e-05 0.00011319424337 3.2601841477e-05 -4.1826610227e-05 
0.0001136060114 2.9857299719e-05 2.2668752882e-05 -6.5974522332e-06 5.769034762e-05 2.2685923948e-06 8.9339668395e-05 5.8199582591e-05 8.3414460655e-05 
0.00010054655994 0.00015913880738 1.7609522641e-06 3.3249577618e-05 -2.0681549277e-05 -1.1637834848e-05 -2.0473703356e-05 3.8738778675e-05 -3.356887085e-05 

radius 1 69 double
0.006 0.006 0.006 0.006 0.006 0.006 0.006 0.006 0.006 
0.006 0.006 0.006 0.006 0.006 0.006 0.006 0.006 0.006 
0.006 0.006 0.006 0.006 0.006 0.006 0.006 0.006 0.006 
0.006 0.006 0.006 0.006 0.006 0.006 0.006 0.006 0.006 
0.006 0.006 0.006 0.006 0.006 0.006 0.006 0.006 0.006 
0.006 0.006 0.006 0.006 0.006 0.006 0.006 0.006 0.006 
0.006 0.006 0.006 0.006 0.006 0.006 0.006 0.006 0.006 
0.006 0.006 0.006 0.006 0.006 0.006 
omega 3 69 double
0.0018188296947 -0.0020966646062 -1.0890884508e-05 -0.00086643848842 0.00054618084258 0.0015716030548 0.00022797810911 -0.00026209655952 -0.00036733367712 
9.8689167431e-05 0.00053926951127 -0.0009217369249 -0.00046203867935 0.0001796516481 -0.00032657139134 -0.00024600200502 -1.4243213922e-05 -0.00032007928033 
-0.00018580991977 0.00094804154664 -0.0013736693078 0.0017600815641 -8.342944157e-05 0.00020382152215 0.0010946054491 -4.5218826064e-05 -0.0020687735889 
-0.00031999179409 -0.00014470423799 5.567427222e-05 -0.00030675301431 -0.0020184938507 -0.0027939867659 0.0012373235225 -0.00058720639317 0.00064333637707 
-0.00077320147576 0.00031399324846 -0.00038729052227 -0.00073255196904 0.00033177884682 -0.0016145728132 -0.00043661318963 0.0019653128746 0.0019160107629 
0.0010165605188 0.0012732002866 -0.00010278983855 0.00093253999665 0.00033596022767 -0.00093220869017 -0.00090835403901 0.00037836695911 -0.0010568390832 
0.00060241910661 0.00028647333919 0.00023425065945 6.5218626984e-05 0.00044956495227 0.00012975318721 -0.00010020449457 -0.0014942723788 -0.0009256262267 
-0.00044338615242 0.00045495094764 -0.00047786492404 6.1946963687e-06 -0.00035857961939 -0.00056706975899 7.7260799727e-05 7.8748210441e-05 -0.00017193565794 
-0.00091684223888 -0.00032518250689 -0.00019378499512 -0.00087006267872 0.00012894086071 3.0560495755e-05 3.6431888513e-05 0.00034844783205 0.00034020726503 
-0.00019535140929 -0.00011349132173 0.00020723962581 -0.0001616224312 0.0002231900507 -0.00024517353467 -0.00058172394552 -0.00021933280507 0.00038628514315 
-0.0010816281042 0.00073006903805 -0.0013844363534 -0.00033740539029 2.8034464423e-05 -0.00050976092322 -7.4234434982e-06 -4.5870551713e-05 -0.00016413528247 
5.1676918574e-05 0.00040418441853 -0.00025472627672 0.00104904629 0.00055496825514 -0.00016864844506 0.00017671809424 -0.00017981784568 -8.7952213429e-05 
0.00016061766736 -0.00022349881867 8.9541066298e-05 -0.00010489766449 0.00012394559009 6.2669746632e-05 -0.00099675273571 0.0007346457644 -0.00038480681598 
0.00044575143003 -0.00059443201702 3.718319532e-05 -0.00094383311444 0.0003584924632 0.00043520694859 -0.00024961103379 0.00026152889309 0.00054806728018 
0.00028514195216 0.00020213676487 0.00017162799676 -0.00054702231968 0.0005612978589 -2.2519061909e-05 0.00038810482201 2.3781723676e-05 -0.00031946362288 
-6.3305455358e-07 9.4117439519e-05 0.00030825876407 -0.00011587603994 0.00013934816137 5.9846901589e-05 6.3709449014e-05 8.7492089093e-05 7.7961913073e-05 
-1.4498728798e-05 0.00013892663733 6.9815899205e-05 -9.9954935271e-05 -2.5978664052e-05 0.00013076975834 -0.00035576657538 -8.2970829926e-05 0.00038360636451 
-0.00046204270033 0.00035924429153 -2.0219821515e-05 4.96317858e-05 8.5824200535e-05 -4.0953670413e-05 -2.899335654e-05 4.9015247733e-05 2.2512583295e-06 
-0.00013902081305 5.6691518707e-05 0.00034021760393 -0.00019233683421 0.00011503361863 0.0003099729451 -7.8665837838e-05 -1.9843427144e-05 0.00020354062228 
-0.0001952542606 0.00010425918052 0.00016533307424 0.0001524149754 -2.969920528e-06 2.3632489803e-05 -9.1653010371e-05 9.1945988311e-05 2.5244091117e-05 
-9.1409128247e-05 2.3443498684e-05 8.5965137151e-05 5.5506202559e-05 0.00039584457604 0.00011318377218 7.7308508887e-05 0.00015549359816 0.00015901689078 
1.7970843169e-05 4.8342290423e-05 8.6618727995e-05 0.00010543573555 0.00019909370919 9.790060777e-06 0.00011354526684 0.00020533405987 8.8042707077e-05 
-0.00036506382485 -4.5430396545e-05 -9.3160986312e-05 9.8415242009e-05 -0.00028833192364 0.00011224356814 3.2936195796e-05 -0.00012909787869 -6.7793463182e-05 

