# vtk DataFile Version 4.2
Generated by LIGGGHTS
ASCII
DATASET POLYDATA
POINTS 69 float
0.00444786 -0.0262607 0.036521 0.0123908 -0.0313041 0.0555926 -0.0347718 -0.0050046 0.0600774 
-0.0229243 0.0275297 0.0523664 -0.010726 -0.0237696 0.0707814 0.00946194 -0.00748149 0.0693009 
0.00402047 0.0151737 0.0681553 -0.00255061 -0.0344866 0.0772957 -0.0375958 -0.0131075 0.0758635 
0.00180274 -0.0069098 0.0785176 -0.0238322 0.0150064 0.0807489 -0.0132303 0.03347 0.0862006 
-0.0330646 -0.0189033 0.0970379 -0.0241437 -0.0138377 0.103386 -0.019811 -0.0028418 0.0957805 
-0.0146674 0.00999377 0.0994247 -0.000786159 -0.00473334 0.114228 -0.0280518 0.00852131 0.11327 
-0.00278769 0.0134908 0.108736 -0.0112836 -0.00774279 0.119196 0.0408435 -0.00337358 0.121236 
-0.0190579 -0.0278753 0.127423 -0.0109084 -0.0316567 0.137017 -0.00192681 -0.00918931 0.130886 
0.0117856 -0.00652846 0.131564 0.027732 -0.0030841 0.133945 -0.00432114 0.0146631 0.130504 
-0.0221852 -0.027096 0.147814 0.00454177 -0.0340324 0.145425 -0.0175682 -0.0215709 0.138217 
0.00901708 -0.0184218 0.141877 0.0253294 -0.0171952 0.137548 0.0141025 0.00976846 0.143 
0.0333067 0.00892399 0.145057 -0.00981799 0.0190974 0.140204 0.00152553 -0.0282943 0.157163 
-0.00638424 -0.0194878 0.159126 0.0221376 -0.0143056 0.155687 0.00942713 0.00235871 0.151369 
-0.0147094 0.0130204 0.149542 -0.00673094 0.0163489 0.157861 -0.0229589 0.0239727 0.152734 
0.0109777 0.0311873 0.149313 -0.0142549 -0.0383728 0.163429 -0.0150907 -0.0202257 0.169963 
0.0197608 -0.0192084 0.16639 0.0381605 -0.0149077 0.168698 -0.0319852 -0.00013263 0.162693 
0.016535 -0.000724429 0.168991 -0.0311925 0.0106201 0.167959 -0.021527 0.00622702 0.162367 
-0.00649989 0.00127171 0.167254 0.0294518 0.00279803 0.166601 0.0118363 0.0132789 0.166865 
-0.00491796 0.023926 0.166987 -0.00749874 0.0333054 0.159964 0.00408364 0.0302909 0.160828 
-0.0183404 -0.0138378 0.179587 -0.0042063 -0.0189728 0.179086 0.00733126 -0.0222654 0.179266 
-0.0366835 -0.00401836 0.181396 -0.0012883 -0.00544066 0.176628 0.0107744 -0.0107721 0.179443 
0.0251996 -0.0038158 0.176694 -0.00867488 0.00376661 0.178787 0.0312541 0.0109342 0.175234 
-0.0143533 0.016567 0.18147 0.014569 0.0152702 0.178378 0.00044193 0.021737 0.181779 

VERTICES 69 138
1 0 
1 1 
1 2 
1 3 
1 4 
1 5 
1 6 
1 7 
1 8 
1 9 
1 10 
1 11 
1 12 
1 13 
1 14 
1 15 
1 16 
1 17 
1 18 
1 19 
1 20 
1 21 
1 22 
1 23 
1 24 
1 25 
1 26 
1 27 
1 28 
1 29 
1 30 
1 31 
1 32 
1 33 
1 34 
1 35 
1 36 
1 37 
1 38 
1 39 
1 40 
1 41 
1 42 
1 43 
1 44 
1 45 
1 46 
1 47 
1 48 
1 49 
1 50 
1 51 
1 52 
1 53 
1 54 
1 55 
1 56 
1 57 
1 58 
1 59 
1 60 
1 61 
1 62 
1 63 
1 64 
1 65 
1 66 
1 67 
1 68 

POINT_DATA 69
FIELD FieldData 7
id 1 69 int
44 510 458 208 557 366 598 506 411 
485 587 612 723 835 875 1056 1185 892 
976 1228 1078 1645 1680 1410 1344 1321 1354 
1569 1931 1538 1502 1612 1730 1856 1405 2238 
2122 2138 1686 2042 1794 1920 1832 1947 2347 
2031 2327 2277 2160 2220 2188 2196 2279 2304 
2166 1985 1917 2427 2471 2477 2388 2474 2476 
2442 2475 2370 2438 2403 2486 
type 1 69 int
2 2 2 2 2 2 2 2 2 
2 2 2 2 2 2 2 2 2 
2 2 2 2 2 2 2 2 2 
2 2 2 2 2 2 2 2 2 
2 2 2 2 2 2 2 2 2 
2 2 2 2 2 2 2 2 2 
2 2 2 2 2 2 2 2 2 
2 2 2 2 2 2 
i 3 69 int
0 0 0 0 0 0 0 0 0 
0 0 0 0 0 0 0 0 0 
0 0 0 0 0 0 0 0 0 
0 0 0 0 0 0 0 0 0 
0 0 0 0 0 0 0 0 0 
0 0 0 0 0 0 0 0 0 
0 0 0 0 0 0 0 0 0 
0 0 0 0 0 0 0 0 0 
0 0 0 0 0 0 0 0 0 
0 0 0 0 0 0 0 0 0 
0 0 0 0 0 0 0 0 0 
0 0 0 0 0 0 0 0 0 
0 0 0 0 0 0 0 0 0 
0 0 0 0 0 0 0 0 0 
0 0 0 0 0 0 0 0 0 
0 0 0 0 0 0 0 0 0 
0 0 0 0 0 0 0 0 0 
0 0 0 0 0 0 0 0 0 
0 0 0 0 0 0 0 0 0 
0 0 0 0 0 0 0 0 0 
0 0 0 0 0 0 0 0 0 
0 0 0 0 0 0 0 0 0 
0 0 0 0 0 0 0 0 0 

v 3 69 double
7.9019354977e-07 2.6920885281e-06 1.1765642984e-06 -1.6094932636e-06 2.0800585827e-06 -7.8179247196e-07 6.53901217e-06 7.5057321465e-07 -3.986191932e-06 
-3.9671312767e-06 -1.014047283e-05 -5.6099307202e-06 -1.8077994272e-06 2.086897689e-07 2.9708123769e-06 -5.5657244988e-06 1.9853568732e-06 -1.5619543554e-06 
3.0241973799e-06 1.2957833679e-06 -7.046167864e-07 -3.1640562689e-06 -2.3460915557e-06 5.2862570512e-06 1.7041137506e-06 -1.8509068569e-06 -7.933885497e-06 
-2.0771483656e-06 1.9412052861e-06 -7.7883718889e-07 7.4080654055e-06 4.6041141878e-06 8.0849481498e-07 -3.9437718025e-07 1.0144029897e-06 1.1797916195e-06 
-9.5837334503e-08 1.6068348337e-06 6.1797010814e-07 -6.2858224368e-06 9.5047460697e-07 1.3953492887e-06 2.0897644137e-06 9.5877812715e-07 5.3312078287e-06 
-4.9730712406e-06 3.0087854614e-06 -5.0547482921e-06 -7.2736612974e-07 2.6641581607e-06 1.4673826236e-06 -1.6567144118e-06 -2.5287521318e-06 4.860541858e-09 
2.9902530932e-06 -2.4501853829e-06 3.578228523e-06 1.607984983e-06 1.0289050795e-07 3.4648455703e-07 -1.3483344042e-06 -4.7596404651e-06 2.8351392948e-06 
-9.0294522947e-07 -1.7735951609e-06 1.5437265136e-06 -1.5361979657e-07 -6.0462911492e-08 -2.2768409924e-06 4.2524574821e-07 3.5290856096e-07 -4.5713438596e-07 
3.5955671379e-07 4.1102963499e-07 -2.0755435909e-06 -9.8627611739e-07 -2.8726955732e-06 -1.0775088264e-06 2.9446443976e-07 -2.0457495156e-07 -3.195741476e-07 
1.8737492742e-06 1.9590287032e-06 -3.7959888133e-07 -8.2667270758e-07 -1.1236719813e-06 7.9188552331e-07 1.4386037359e-06 1.4742650138e-06 -1.0730659903e-06 
9.8131577056e-07 2.6322761064e-06 6.8548131765e-07 -3.5272323628e-07 -3.6420622245e-07 1.2041888021e-06 6.2373898316e-07 -8.1069073289e-07 -3.4609763431e-07 
2.5642884646e-07 1.5642382099e-07 6.4218605195e-07 -1.4404590993e-07 1.1124724282e-06 3.4500202955e-06 9.8101687742e-07 7.773271472e-07 9.7747094969e-07 
1.6648934133e-07 1.4539282205e-06 1.4323851212e-07 7.8685497583e-07 5.1046778875e-07 1.4763956826e-07 1.6586124496e-06 -1.3416916133e-06 1.3789645481e-06 
1.4218487254e-06 -2.9355381092e-06 -2.233388867e-06 -1.161993439e-06 1.2007882732e-06 5.761111331e-07 -2.3437492463e-06 -8.090074925e-07 2.8331768508e-07 
1.0187447912e-06 -3.8454026288e-07 1.8121009128e-06 8.5862492893e-07 -7.6342085579e-07 5.3871752638e-07 1.0546562961e-07 7.8362034886e-07 9.801385025e-07 
-3.2760264001e-07 6.5279589507e-07 1.2198548417e-06 -3.5234298171e-07 -1.4124496115e-06 9.8650035996e-07 6.6001012454e-07 -1.755800162e-06 6.7307546426e-07 
8.4757804696e-07 8.706827395e-07 2.5903902855e-07 9.8765979565e-07 -1.6694042384e-06 4.9698590318e-07 1.6836673247e-06 1.0448738569e-07 1.1965710145e-06 
-6.6623924287e-07 7.9531530112e-07 -2.3100616691e-07 -4.1714466309e-07 3.3941292458e-07 9.5501030402e-07 -1.2235653499e-07 -2.0361880945e-07 1.0662367877e-07 
-1.3408923779e-07 8.8912989251e-08 1.4056870468e-06 6.4980649678e-07 -3.5046483011e-07 -7.93374382e-07 -9.223302862e-08 6.4773085546e-07 1.8416155308e-07 
-6.2100092048e-07 3.7525762359e-07 1.0097553731e-06 9.5888144894e-07 -2.6228130152e-07 5.8052952667e-07 5.6141097144e-07 -7.4654700242e-07 6.1121470889e-07 
-3.4510110019e-07 -7.7336367262e-08 -7.196531483e-07 -2.4909703435e-07 1.8136853745e-07 3.3568372277e-07 6.1309962548e-07 9.8483457619e-08 9.0890468023e-07 
3.1795494613e-07 -8.4565495356e-07 8.5153277163e-07 -1.9654204392e-07 5.1703135812e-07 1.4578853401e-06 6.6593976314e-07 3.5463720152e-07 1.8983523403e-06 
-1.3982457734e-06 -9.3878897854e-07 6.3065005723e-07 6.7586252735e-07 -3.9412910954e-07 5.2380744577e-07 6.1490510851e-07 -6.9611734291e-07 -1.2719024511e-07 

f 3 69 double
0.00027876727296 -0.00059868666026 0.00014037554976 0.00099982126265 -0.00027251969236 -3.1637466165e-05 0.00056130544657 -0.00062268745975 7.6557296356e-05 
-0.00025197662532 -0.00063373108487 -0.00041212167883 -0.00066088443446 -0.00046622527567 -0.0008440074024 -0.0003234596614 -0.00014081802798 -6.6802962413e-05 
-0.00020880193703 0.00041350786988 0.00085089310453 -0.00054033185119 0.0011378440831 0.00053998221014 0.00059370230676 0.00092283019725 0.00041739143378 
3.0841815425e-05 -0.0004282568324 -1.324151494e-05 6.722103017e-05 0.00023635604536 7.0403194733e-05 -0.00022922529723 7.7603686482e-05 -0.00010007722641 
-6.3503536645e-05 2.4143133616e-05 6.2201639255e-06 -0.0012301642379 0.00042711732671 0.00054176363182 0.00088485131619 4.8053028356e-06 4.4872419913e-05 
-0.00085234047391 -0.00018712964077 9.2951802554e-05 0.00012256892071 -4.6396874153e-05 0.00047055847424 7.9000680731e-05 -0.00017961356843 -6.1211748551e-05 
-4.6036236892e-05 -0.00021728454479 0.00024615870008 9.3793041027e-05 -6.4465607195e-05 9.5170971764e-05 4.6592467302e-05 -3.6370612885e-05 0.00044402309467 
0.00010815883797 8.0501961474e-05 8.5676350598e-05 -3.081922081e-06 -0.00015434243652 0.0001283039093 -4.6928665269e-05 7.4850620057e-05 -3.9308821368e-05 
-4.9426332871e-05 -0.00013794974841 1.9165060111e-05 0.00079767120416 0.00069026052241 -0.00027686770285 -2.5303345361e-05 0.00023834239118 0.00016239431594 
-3.8553059751e-05 4.2036047122e-05 0.00040810667303 0.00016203811126 0.00027302171631 4.9425363307e-06 -0.00034906372869 0.00088264997256 0.00034450525398 
0.00023381329813 -3.1778872135e-05 -0.0002739709341 0.00015750390005 0.00028192812446 -0.00028167319737 -7.5830756635e-05 2.8353804496e-05 -0.00017512174155 
-8.1814531338e-05 -5.7596659516e-05 0.00011971197959 3.2848624141e-05 0.00035222924246 -0.00028603271155 -9.8044103642e-05 0.00030056870435 3.9305344866e-05 
-4.4352382671e-05 2.3244376261e-05 -1.0434876857e-05 3.0536971091e-05 -6.1248720712e-05 5.9993542733e-06 0.00011081536719 -0.00032152113207 6.7225295926e-05 
0.00030278809734 0.00053327573141 0.00011925360536 4.5314013094e-05 -6.1365092984e-05 -0.00017935172686 -0.00041093668055 0.00013567889827 0.00013927788863 
8.0203744053e-06 -1.9377867659e-05 -0.00012414952777 1.7881549706e-05 0.00016587889913 3.9348929774e-05 -5.7805484562e-05 0.00014020173951 -0.00028550939283 
4.8127531982e-05 -6.5136439224e-05 5.0252473728e-05 -5.9795308405e-05 9.4079883012e-05 4.3686583317e-05 -0.00012859063444 -0.00015660645371 2.3096860858e-05 
-0.00031259172742 -0.00020643501112 -0.00016711971471 -3.8495029624e-05 0.00015107277185 -9.5592733703e-05 0.00014622521766 -0.0001744774072 0.00026709183161 
-4.7976425489e-05 6.322365546e-05 3.6137517561e-05 -2.5088188944e-05 -1.3456947387e-06 -1.127057073e-05 0.00028247174616 -6.7875437661e-05 -0.00014133569702 
9.1875952233e-05 -7.43640839e-05 0.00013205767791 -8.494066624e-05 0.00012971897001 -8.0383551692e-05 7.3122992726e-05 -1.9512192388e-05 -0.00010999934515 
6.9635944248e-05 -2.3212600805e-05 -7.8019827498e-05 -0.00014928361754 -6.2235225857e-05 -9.6419561097e-06 1.7431425233e-05 -2.450562352e-05 3.6740061581e-05 
7.1613799244e-05 0.00011302479079 6.0704599854e-05 6.677523821e-05 -0.00010711380363 0.00013633988961 0.00014929453106 8.3028334795e-05 4.3055920133e-06 
0.0001739680728 -1.710935132e-05 4.5415377991e-05 2.6532252019e-05 5.8067792794e-05 1.5289641542e-05 -3.1689935699e-05 -4.1657887094e-05 -2.2043394151e-05 
2.4655395179e-06 -6.7922604736e-05 -3.6980258008e-05 -2.4912942179e-06 1.4857839072e-05 4.6526738027e-05 7.651155088e-06 5.9997763663e-05 -1.8455924506e-05 

radius 1 69 double
0.006 0.006 0.006 0.006 0.006 0.006 0.006 0.006 0.006 
0.006 0.006 0.006 0.006 0.006 0.006 0.006 0.006 0.006 
0.006 0.006 0.006 0.006 0.006 0.006 0.006 0.006 0.006 
0.006 0.006 0.006 0.006 0.006 0.006 0.006 0.006 0.006 
0.006 0.006 0.006 0.006 0.006 0.006 0.006 0.006 0.006 
0.006 0.006 0.006 0.006 0.006 0.006 0.006 0.006 0.006 
0.006 0.006 0.006 0.006 0.006 0.006 0.006 0.006 0.006 
0.006 0.006 0.006 0.006 0.006 0.006 
omega 3 69 double
-0.00068866497517 0.0013024137761 -9.8859810292e-05 0.00079835283159 0.00017528617078 0.00060701431121 -0.0014482911348 -0.0019000394449 -0.00041693037277 
0.0023061290105 0.0010941529823 0.0013897076705 0.0012829775066 -0.0011895399218 0.00043216606278 -0.00030834705024 0.0012042977428 5.4606914673e-05 
-0.00047779345451 -0.00025970025951 0.00075790075213 8.6566267076e-05 -0.00027117692683 0.00032957842461 -0.0008753233647 -0.00042007103221 -0.0011544887403 
-0.00033269552694 0.0015552752119 -0.00032961920196 -0.0034105051292 0.0034168617195 0.0047596130857 -0.0015289823925 0.00028978980399 0.0010025665392 
-0.0009653483974 0.00067778047765 0.0001631648888 0.0010206387671 -0.00057943823715 -0.0013620759622 0.0016422433808 -0.0022781579337 -0.0019119867563 
-0.00048128382013 0.00067580706296 0.00070470397231 -0.00065520844443 -0.0008272486859 -0.00035973479286 0.00032867622204 -0.00019396122751 0.00060045152326 
2.4273681528e-05 -0.00059238725925 -0.00035321363342 -0.00026677274287 -0.00037439896059 -0.00036387924275 0.00011235861721 0.0030335006057 0.0011108383291 
0.00031130942564 -0.00027571508569 0.00037572078995 -0.00041238218665 -1.8399117606e-06 0.00080252533432 0.00092660421855 -0.00053130526914 -2.4175754419e-05 
-0.00017305025968 0.00060428217172 -0.00022109062497 0.0010250700131 0.00027579780131 0.00012269988224 -0.00024246891202 -3.2000957655e-05 6.2891972345e-05 
0.00061470229754 1.7018177632e-05 -0.00027934903871 0.00067061430269 -0.00019051836963 0.00025070872789 0.00065554234617 -4.4239307778e-05 -0.00036773194988 
0.00066265341204 -0.00041049537745 0.0010014144552 0.00042530185484 -7.3325607235e-05 0.00071204313562 0.00037604238835 -0.00010440552442 -0.0003239232248 
1.8528650544e-05 3.1040811277e-06 -0.00010932944153 -0.0002973526624 0.00040005413923 0.00062967493792 0.00020865870411 0.00060025067534 -0.00046482525107 
-0.00014868364805 0.00068047403497 -0.00044732662192 2.9485183735e-05 0.00010384099237 -0.00016183096515 -0.00088402093862 0.00079459217836 0.00036625283129 
0.00044172952587 1.9864974506e-05 0.00058335881542 -0.00027109150407 0.00027655016904 0.00051303863978 0.00040047675902 0.00072283991297 -0.00052827129756 
0.00014529780704 -0.00019113523815 3.6967531584e-05 0.00036111346381 -0.00077038793102 5.7335181192e-06 -0.00025249655437 0.00023253633033 0.00029974543365 
0.00016292745056 6.4829195638e-05 0.00028219706485 8.5370866742e-05 0.00015763048791 0.00011340819854 -0.00027304191255 2.9138614011e-05 0.00033722580394 
0.00013324072791 -0.00045713677683 -0.00011019554137 0.00040247058552 -0.00052783956799 -0.00042130309247 0.0002030342544 -0.00031824369399 -0.00037642260263 
-0.00014536827936 0.00023176891897 -8.6906493217e-05 0.00019137931739 9.746194398e-05 -9.6716894104e-05 -9.006797534e-05 8.3274554373e-05 -0.00026785407516 
-0.00060413393557 0.00031211692987 0.00019341203407 -0.00020206763222 -5.7013319452e-05 1.9654239071e-05 0.00024018456869 -0.00038251364828 0.00016520824012 
0.00041363384712 0.00021488598516 -6.2445740902e-05 -7.5635752692e-05 7.9507373867e-05 6.4101660603e-05 -7.3226102566e-05 7.8741673601e-05 0.00011286389997 
-0.0001740020606 0.0003380889734 -4.4075943434e-05 -0.00019024569404 0.00013598323124 1.8536304581e-05 -1.9259538782e-05 -8.7513218784e-05 1.4162360407e-05 
6.6384617223e-05 0.00018584632963 0.00022443936017 -8.4015173445e-05 0.00025330701356 -0.00018153832393 0.00010329044615 -4.9909710131e-05 1.9925192387e-05 
-9.2222747474e-05 0.00014137813966 0.00015888921873 5.9353941494e-05 -6.0103923379e-05 0.00014153789282 9.5283533936e-05 2.2809119771e-06 6.9033635932e-05 

