# vtk DataFile Version 4.2
Generated by LIGGGHTS
ASCII
DATASET POLYDATA
POINTS 69 float
0.00444786 -0.0262607 0.036521 0.0123908 -0.0313041 0.0555926 -0.0347718 -0.0050046 0.0600774 
-0.0229243 0.0275297 0.0523664 -0.010726 -0.0237696 0.0707814 0.00946195 -0.00748149 0.0693009 
0.00402047 0.0151737 0.0681553 -0.00255061 -0.0344866 0.0772957 -0.0375957 -0.0131075 0.0758635 
0.00180274 -0.0069098 0.0785176 -0.0238322 0.0150064 0.0807489 -0.0132303 0.03347 0.0862006 
-0.0330646 -0.0189033 0.0970379 -0.0241437 -0.0138377 0.103386 -0.019811 -0.0028418 0.0957805 
-0.0146674 0.00999377 0.0994247 -0.000786159 -0.00473334 0.114228 -0.0280518 0.00852131 0.11327 
-0.00278769 0.0134908 0.108736 -0.0112836 -0.00774279 0.119196 0.0408435 -0.00337358 0.121236 
-0.0190579 -0.0278753 0.127423 -0.0109084 -0.0316567 0.137017 -0.00192681 -0.00918932 0.130886 
0.0117856 -0.00652846 0.131564 0.027732 -0.0030841 0.133945 -0.00432114 0.0146631 0.130504 
-0.0221852 -0.027096 0.147814 0.00454177 -0.0340324 0.145425 -0.0175682 -0.0215709 0.138217 
0.00901708 -0.0184218 0.141877 0.0253294 -0.0171952 0.137548 0.0141025 0.00976845 0.143 
0.0333067 0.00892399 0.145057 -0.00981799 0.0190974 0.140204 0.00152553 -0.0282943 0.157163 
-0.00638424 -0.0194878 0.159126 0.0221376 -0.0143056 0.155687 0.00942713 0.00235871 0.151369 
-0.0147094 0.0130204 0.149542 -0.00673094 0.0163489 0.157861 -0.0229589 0.0239727 0.152734 
0.0109777 0.0311873 0.149313 -0.0142549 -0.0383728 0.163429 -0.0150907 -0.0202257 0.169963 
0.0197608 -0.0192084 0.16639 0.0381605 -0.0149077 0.168698 -0.0319852 -0.00013263 0.162693 
0.016535 -0.00072443 0.168991 -0.0311925 0.0106201 0.167959 -0.021527 0.00622702 0.162367 
-0.00649989 0.00127171 0.167254 0.0294518 0.00279803 0.166601 0.0118363 0.0132789 0.166865 
-0.00491796 0.023926 0.166987 -0.00749874 0.0333054 0.159964 0.00408364 0.0302909 0.160828 
-0.0183404 -0.0138378 0.179587 -0.0042063 -0.0189728 0.179086 0.00733126 -0.0222654 0.179266 
-0.0366835 -0.00401836 0.181396 -0.0012883 -0.00544066 0.176628 0.0107744 -0.0107721 0.179443 
0.0251996 -0.0038158 0.176694 -0.00867487 0.0037666 0.178787 0.0312541 0.0109342 0.175234 
-0.0143533 0.016567 0.18147 0.014569 0.0152702 0.178378 0.000441927 0.021737 0.181779 

VERTICES 69 138
1 0 
1 1 
1 2 
1 3 
1 4 
1 5 
1 6 
1 7 
1 8 
1 9 
1 10 
1 11 
1 12 
1 13 
1 14 
1 15 
1 16 
1 17 
1 18 
1 19 
1 20 
1 21 
1 22 
1 23 
1 24 
1 25 
1 26 
1 27 
1 28 
1 29 
1 30 
1 31 
1 32 
1 33 
1 34 
1 35 
1 36 
1 37 
1 38 
1 39 
1 40 
1 41 
1 42 
1 43 
1 44 
1 45 
1 46 
1 47 
1 48 
1 49 
1 50 
1 51 
1 52 
1 53 
1 54 
1 55 
1 56 
1 57 
1 58 
1 59 
1 60 
1 61 
1 62 
1 63 
1 64 
1 65 
1 66 
1 67 
1 68 

POINT_DATA 69
FIELD FieldData 7
id 1 69 int
44 510 458 208 557 366 598 506 411 
485 587 612 723 835 875 1056 1185 892 
976 1228 1078 1645 1680 1410 1344 1321 1354 
1569 1931 1538 1502 1612 1730 1856 1405 2238 
2122 2138 1686 2042 1794 1920 1832 1947 2347 
2031 2327 2277 2160 2220 2188 2196 2279 2304 
2166 1985 1917 2427 2471 2477 2388 2474 2476 
2442 2475 2370 2438 2403 2486 
type 1 69 int
2 2 2 2 2 2 2 2 2 
2 2 2 2 2 2 2 2 2 
2 2 2 2 2 2 2 2 2 
2 2 2 2 2 2 2 2 2 
2 2 2 2 2 2 2 2 2 
2 2 2 2 2 2 2 2 2 
2 2 2 2 2 2 2 2 2 
2 2 2 2 2 2 
i 3 69 int
0 0 0 0 0 0 0 0 0 
0 0 0 0 0 0 0 0 0 
0 0 0 0 0 0 0 0 0 
0 0 0 0 0 0 0 0 0 
0 0 0 0 0 0 0 0 0 
0 0 0 0 0 0 0 0 0 
0 0 0 0 0 0 0 0 0 
0 0 0 0 0 0 0 0 0 
0 0 0 0 0 0 0 0 0 
0 0 0 0 0 0 0 0 0 
0 0 0 0 0 0 0 0 0 
0 0 0 0 0 0 0 0 0 
0 0 0 0 0 0 0 0 0 
0 0 0 0 0 0 0 0 0 
0 0 0 0 0 0 0 0 0 
0 0 0 0 0 0 0 0 0 
0 0 0 0 0 0 0 0 0 
0 0 0 0 0 0 0 0 0 
0 0 0 0 0 0 0 0 0 
0 0 0 0 0 0 0 0 0 
0 0 0 0 0 0 0 0 0 
0 0 0 0 0 0 0 0 0 
0 0 0 0 0 0 0 0 0 

v 3 69 double
2.262681125e-08 -3.2457686367e-06 -1.2314075955e-06 -1.1744640972e-07 -1.0832952377e-06 3.1680338782e-06 2.6444420558e-06 -3.4528375838e-06 2.6409639491e-06 
-5.9764407567e-06 3.702080355e-06 1.5917927758e-06 -2.053475457e-06 -2.4542681955e-06 -4.4898951844e-06 3.0487556567e-06 -8.4182879731e-07 1.1428769452e-07 
-2.5347571602e-06 -9.564309538e-08 1.6407520079e-06 -1.1464040355e-06 9.6061023127e-07 -1.5527723267e-06 -4.0322561317e-06 -4.7011867087e-07 1.3101845004e-06 
4.5677356872e-06 -2.658820886e-06 -5.2370645118e-06 1.9242821484e-06 2.359530543e-06 2.6764806775e-06 2.7910440627e-07 -2.1209575727e-07 3.976842457e-06 
1.6030668146e-06 1.0997990311e-06 -1.594924624e-07 -2.5126839988e-06 -4.5096803337e-06 3.7861940526e-06 -4.6604072003e-07 1.5216551837e-06 -2.1950099673e-06 
7.284410707e-07 5.9048880961e-07 -3.0741283432e-06 -1.7024676315e-06 -1.0410640906e-06 1.1171954722e-06 -1.0750605817e-06 -1.18308467e-06 -3.9723857501e-07 
7.2036687924e-07 1.1266145415e-07 1.5565881399e-06 1.3335974807e-06 -1.9518052646e-06 8.9455814687e-07 2.4373674414e-07 -3.2705793353e-06 -5.3613350257e-06 
-2.0330400475e-06 5.8833501189e-07 -1.6423086114e-08 -2.7188146809e-06 1.6396777695e-06 -6.2470614417e-06 3.4852998158e-07 3.3492126132e-09 2.1873716919e-06 
4.3902018889e-07 8.20046389e-07 4.8966170157e-07 -2.6315796919e-07 1.2158076577e-07 2.6485516991e-08 -1.112183356e-06 1.7967599821e-06 -1.7209940146e-06 
1.2820061433e-06 8.8306768234e-07 -2.0129559537e-06 -3.3090918201e-06 -1.0886697487e-06 -8.0827891169e-07 -6.2474516845e-07 -6.8853126538e-07 4.7608909329e-06 
-8.8738078765e-07 -3.2586830831e-06 -4.319784818e-06 -1.199243118e-06 1.209922865e-06 1.7267185094e-07 -4.7698300519e-07 5.9397991343e-07 2.3399571246e-07 
2.4731224912e-07 1.1194343478e-06 9.1025254089e-09 -9.1312478924e-07 1.1099365555e-06 -1.1348088173e-06 1.6776845011e-06 1.3262423798e-06 2.6303012742e-06 
-1.6062843911e-07 4.0194082007e-07 2.485471724e-06 -4.332190146e-07 7.0334763969e-07 4.7555220531e-07 -9.2976350609e-07 2.098604036e-07 1.1315667346e-06 
1.2725850761e-06 -3.0947181068e-06 -2.1505838108e-06 -1.2260590809e-06 1.5660192433e-06 2.5205530512e-06 -2.376055727e-06 1.4342649098e-06 1.2842506642e-06 
2.3666306376e-08 9.105286371e-07 6.5855567538e-07 -4.9263421941e-07 -2.6689169213e-07 -5.1707331837e-07 -2.4643774269e-07 1.1080133877e-06 3.8774874317e-07 
7.2610599551e-08 8.0045913069e-07 1.6234555661e-07 9.2873649742e-07 -2.4601367958e-07 1.0368984847e-08 -1.3339512148e-06 1.3925800714e-06 -8.7279435351e-07 
1.6328164086e-07 5.8681439938e-07 -7.1054231749e-07 1.6496887329e-06 -8.9825171553e-07 -2.2100336814e-07 -2.191302885e-06 1.5022855741e-06 6.0023115052e-08 
-1.700294015e-06 -5.7282214568e-07 -1.2963178116e-06 9.539148736e-07 7.3354545294e-07 -1.6877839247e-07 1.4919029009e-06 7.908974393e-07 -4.1667833877e-07 
3.8342055195e-07 -4.460512145e-07 -7.2102311022e-08 -1.1668955837e-06 -4.0679490922e-07 2.538283156e-07 8.5128914049e-07 1.0710854206e-07 4.6811576399e-07 
3.6223105338e-07 -1.8477833148e-07 -9.6390023488e-07 -1.1388595206e-07 -1.6191040571e-07 -1.6831339742e-06 -9.4340902126e-07 -3.9666732401e-07 -8.1129951283e-07 
5.7630122936e-07 -7.9843670229e-07 -4.9196954918e-07 2.3695781671e-07 -4.0568673737e-07 -1.5006478588e-06 9.3640940895e-08 -1.6962959367e-07 -2.1126156264e-06 
-6.9313104748e-07 5.2186917482e-07 -5.6116299038e-07 6.5286619595e-07 -1.0166555252e-06 -7.8180563865e-07 4.0932916812e-07 1.8362217246e-07 3.5221645946e-07 
-5.2033865078e-07 7.8074844028e-07 5.3033847446e-07 3.8947876383e-07 -1.7768798453e-07 -9.7162988028e-07 8.4875873535e-07 9.9228804399e-08 -3.9956805759e-07 

f 3 69 double
-0.00012492990384 4.6744857326e-05 -0.00022594838237 0.0010048090539 -0.00012561627036 -4.1609186604e-06 0.0006909508727 7.4210698195e-05 0.00034134232201 
-0.00057377039299 0.00064749471132 0.00083381703195 -0.00058530266576 -0.00014275656847 0.00017568532584 -0.00075927489323 0.00035276408744 -0.00012539132096 
0.00012109105106 4.5371246434e-05 -2.2178231461e-05 -0.00016361934674 0.00084401477325 0.0001471548019 -0.00046069002106 -0.00093479764235 -0.00073028804283 
-0.00014193201322 0.0010829382383 0.00034640801406 0.0008270600651 0.0001303723224 0.00062452247089 -9.7846765188e-05 -3.8880900539e-05 -0.00013334103733 
0.00019752972675 -0.00025521549394 5.2638298386e-05 0.00078912336197 7.7337910308e-05 -0.00053396466095 -1.0523215176e-05 -0.00044917654537 0.00015796634454 
0.00020096004052 -0.00051951430576 0.00046324587205 -8.4725228112e-05 -0.0002152170394 -1.3422737514e-05 4.5636296413e-05 3.079744567e-05 0.00012729960344 
-4.930373749e-05 -0.00012653533973 0.0007072382034 -1.4924943304e-05 -0.00028134423256 0.00013110208441 -3.1971681153e-05 -0.00015412859485 -3.6846812118e-05 
9.9231891693e-05 -2.3324979941e-05 7.2501472473e-05 7.8499666406e-05 -7.4263420343e-06 6.6819860889e-05 2.1218281969e-05 8.2863628623e-05 -9.7847266275e-05 
-9.2032684778e-05 -0.00014859007748 -0.00015590223229 -0.00022049311421 -0.00020287033135 -0.00027597562989 -0.00022297034963 0.00032448581229 -5.2106178568e-05 
-1.7848106565e-05 6.7821368392e-05 0.00021040996875 2.200078555e-05 0.00070472699373 -0.00016268759401 -0.00029436614663 0.00025940411545 0.00018435224497 
0.00034846081003 0.00045239157087 0.00029108241348 8.244265026e-05 4.7853630678e-05 -0.00020057787483 -2.5334155899e-05 -8.8166357201e-05 -1.2715954757e-06 
-6.6608515637e-05 1.9482907326e-05 0.00025340564995 -7.0651946236e-05 0.00047915009542 -0.00044478708513 -8.3100247121e-05 0.00014198697232 -4.2984384493e-05 
-0.00016527767985 0.00015561813338 5.8684859918e-05 -0.00016530109109 6.1159198468e-05 -9.1002916575e-05 5.7690383697e-05 -0.00022096389948 0.00015317546073 
0.00030311906542 0.0006153920087 -0.00012322107915 3.7427130305e-05 -6.4047657854e-05 -0.00023223727766 -0.00044960371099 -0.00018222645914 -6.2054413576e-05 
7.8443194455e-06 2.5020268166e-05 -0.00024613781142 -0.00013368012409 0.0001433017572 0.00018334750057 2.4419357072e-05 -3.7119745998e-05 2.0096976854e-06 
4.3083699925e-05 0.0001970593728 -2.2156018418e-05 -1.4345366468e-05 -0.00013151112039 1.4979196632e-05 -0.00021951472746 -1.5835679649e-06 -0.00018781528063 
-8.1490334012e-05 -0.00021421855585 0.00012686137026 -5.3929544088e-05 -0.00017147689683 3.9410678217e-05 -7.1502719992e-06 -0.0004227587428 0.00015374131784 
-2.7737130873e-05 6.0590201733e-05 0.00026317989779 -2.9507463287e-05 2.154237416e-05 4.3973525565e-05 7.5606909886e-05 2.5526901063e-05 -8.6718322207e-05 
-7.2225836455e-05 -7.1044587171e-05 -8.5072508571e-05 7.8656582952e-05 -1.8610465497e-05 -2.3635611751e-05 7.7019725088e-05 -1.3520550277e-05 -7.4477115413e-05 
1.3134336324e-05 -4.0528669674e-05 7.1326359775e-05 2.6866927951e-06 -1.8495748747e-05 1.0036397898e-05 -6.9135454495e-06 1.5615729799e-05 8.1313615191e-05 
-5.2112174651e-05 -1.0020220138e-05 -7.8614947237e-05 -0.00011267573371 -0.00013422154838 -9.3059853076e-05 -0.00020003440882 1.3992081249e-05 -2.8361980085e-06 
5.3873567361e-05 -3.5092628982e-06 1.3667068478e-05 3.9121303907e-06 2.216573669e-06 -6.2900674948e-06 -1.5554331834e-05 1.1337670788e-05 8.642244008e-06 
4.0575509342e-05 0.00024442643542 7.8965448031e-05 -2.0553861762e-06 -1.1166748766e-05 1.689587173e-05 -6.3021206005e-06 1.4486010985e-05 -2.060191671e-05 

radius 1 69 double
0.006 0.006 0.006 0.006 0.006 0.006 0.006 0.006 0.006 
0.006 0.006 0.006 0.006 0.006 0.006 0.006 0.006 0.006 
0.006 0.006 0.006 0.006 0.006 0.006 0.006 0.006 0.006 
0.006 0.006 0.006 0.006 0.006 0.006 0.006 0.006 0.006 
0.006 0.006 0.006 0.006 0.006 0.006 0.006 0.006 0.006 
0.006 0.006 0.006 0.006 0.006 0.006 0.006 0.006 0.006 
0.006 0.006 0.006 0.006 0.006 0.006 0.006 0.006 0.006 
0.006 0.006 0.006 0.006 0.006 0.006 
omega 3 69 double
-0.0019787253772 0.0016992771238 -7.3826261225e-05 -0.00083840972565 0.00015613432824 0.00080500072893 -0.0015886160431 -0.0010287476389 0.0016920945625 
-0.0013395282361 1.7015838264e-05 3.5800345287e-05 -0.0010371059451 -0.00032953862039 0.00026886071203 0.00055053362371 0.0010459549648 -0.00098426969109 
-0.0008652148639 0.0011714365099 -0.0013392379011 0.0014168820854 -0.00037842456192 0.00072886132862 -0.0022901209537 0.0010052509436 0.00063026255378 
-0.00053630850145 -0.00082188150496 -1.8177773415e-05 -0.00067411402339 -0.0012880145413 0.00054723774705 -0.00085099426684 -0.00011501175877 0.00021699393031 
0.0001328272112 -0.0010623452126 2.8357997626e-05 -0.00067085387708 0.00070556651687 -0.0003801580517 -0.0015919753149 0.0015706079987 0.00030337219735 
-0.0014169795765 0.0011279032995 0.0016758386068 0.00048742982162 -0.00049257063153 0.00011484933589 -0.00084580773231 0.000803182253 -0.00030257322967 
0.00062829547242 0.00088356994832 -0.00023962031662 0.00049222204723 -0.0003561504588 0.00041846879034 -0.00035942725046 -0.0011418443079 -0.00068192761973 
0.0010516230863 -0.0001638171595 0.00036159061378 -0.00043407732732 -0.00034510402404 0.00097098357327 0.00044576978289 -0.0001339546537 9.3310896504e-05 
0.0003874419038 -0.00017371809607 -0.00022517073281 -0.0020011159606 -0.00045157868026 -0.00055527685953 0.0004489530187 9.9711233345e-05 0.00019814606225 
-0.00040544190758 -0.00038601640864 0.00072802595527 0.00032003273271 -0.0010018965627 0.001207956346 0.00078833645383 -0.00046106614756 -6.2591192748e-05 
-0.00024088146663 0.00013730168689 -9.7606834451e-05 0.0004924792475 9.4227040368e-05 -6.250672433e-06 0.00017792987538 -0.00066713141349 -0.00017733356611 
-0.00016795238165 0.00025526445816 -0.00016410985787 -0.0003146814913 -0.00019254796887 0.00044829530893 -4.9273885992e-05 -0.00040410737745 6.4074056737e-06 
0.0001469125657 6.2442983044e-05 -0.00020914619029 -4.237178361e-05 0.00046210953725 -4.7958742e-06 -0.00058280207457 0.00063436076055 -0.00014732143548 
-0.00027642645596 0.00016265917921 7.5484141362e-05 -0.00058482619044 -0.00010815902847 -0.00037278735879 0.00069989162489 -0.00011050463807 7.2490186396e-05 
0.00018227566987 -0.00018451682367 -0.00011115851077 0.0001252261075 6.8829035024e-05 8.0643160842e-06 -0.00010895253828 0.00010384732166 -0.00010769135253 
1.9299165905e-06 0.00011944411713 -4.1594463833e-05 4.7357132204e-06 -4.6269539295e-05 2.2601799117e-05 0.00040400892445 0.00032774343031 -0.00017541545561 
0.00012532202234 -0.00028112179666 -5.7639783077e-06 -0.00058918751412 0.00049472464018 0.00056378196716 4.9505541499e-05 4.5963100859e-05 9.3426238142e-05 
-0.00032926613386 -5.4216184507e-05 -0.00011050731151 0.00014786312703 -0.00026586243653 0.00023163927347 -9.2000284116e-05 -0.00041947954837 -0.00012471154491 
-5.7890246032e-05 7.2680589218e-05 8.1947235236e-05 0.00015406857056 -0.00021022446013 6.0225801533e-05 0.00015627609969 -0.00023609169742 -0.00013596550933 
-0.00040715655192 -0.00017437175941 -0.00016068866754 0.00020039580179 -8.9776366882e-05 5.7961467538e-06 -6.3480679334e-05 1.5667811362e-05 -5.6980738573e-06 
-9.5904765947e-05 -0.00015650395602 -0.00010965608167 6.7682736442e-05 -0.00040394393209 -6.5106887229e-05 -0.00026447610002 -0.00010217899861 -0.00029553115371 
-3.607382395e-05 -0.00012078301974 -6.4055359155e-05 0.00019562887829 -0.00019136253049 -3.2728528595e-05 0.00025530847093 -0.00017201793508 -1.3065817275e-05 
0.00010365948434 -0.00013808670835 -0.00023160458119 -0.00019851677035 0.00037194535943 4.4331593195e-05 0.00021359134046 -0.00013409611734 0.00016500950724 

