# vtk DataFile Version 4.2
Generated by LIGGGHTS
ASCII
DATASET POLYDATA
POINTS 69 float
0.00444787 -0.0262607 0.036521 0.0123908 -0.0313041 0.0555926 -0.0347718 -0.00500462 0.0600774 
-0.0229243 0.0275296 0.0523664 -0.010726 -0.0237696 0.0707814 0.00946195 -0.00748149 0.0693009 
0.00402047 0.0151737 0.0681553 -0.0025506 -0.0344866 0.0772957 -0.0375957 -0.0131075 0.0758635 
0.00180274 -0.0069098 0.0785176 -0.0238322 0.0150064 0.0807489 -0.0132303 0.03347 0.0862006 
-0.0330646 -0.0189033 0.0970379 -0.0241436 -0.0138377 0.103386 -0.019811 -0.0028418 0.0957805 
-0.0146674 0.00999377 0.0994247 -0.000786158 -0.00473334 0.114228 -0.0280518 0.00852131 0.11327 
-0.00278769 0.0134908 0.108736 -0.0112836 -0.00774279 0.119196 0.0408435 -0.00337357 0.121236 
-0.0190579 -0.0278753 0.127423 -0.0109084 -0.0316567 0.137017 -0.0019268 -0.00918932 0.130886 
0.0117856 -0.00652846 0.131564 0.027732 -0.00308409 0.133945 -0.00432115 0.0146631 0.130504 
-0.0221852 -0.027096 0.147814 0.00454177 -0.0340324 0.145425 -0.0175682 -0.0215709 0.138217 
0.00901708 -0.0184218 0.141877 0.0253294 -0.0171952 0.137548 0.0141025 0.00976846 0.143 
0.0333067 0.008924 0.145057 -0.009818 0.0190974 0.140204 0.00152553 -0.0282943 0.157163 
-0.00638424 -0.0194878 0.159126 0.0221376 -0.0143055 0.155687 0.00942713 0.00235871 0.151369 
-0.0147094 0.0130204 0.149542 -0.00673094 0.0163489 0.157861 -0.0229589 0.0239727 0.152734 
0.0109777 0.0311873 0.149313 -0.0142549 -0.0383728 0.163429 -0.0150907 -0.0202257 0.169963 
0.0197608 -0.0192084 0.16639 0.0381605 -0.0149077 0.168698 -0.0319852 -0.000132636 0.162693 
0.016535 -0.000724425 0.168991 -0.0311925 0.0106201 0.167959 -0.021527 0.00622702 0.162367 
-0.00649989 0.00127171 0.167254 0.0294518 0.00279804 0.166601 0.0118363 0.0132789 0.166865 
-0.00491797 0.023926 0.166987 -0.00749874 0.0333054 0.159964 0.00408363 0.030291 0.160828 
-0.0183404 -0.0138378 0.179587 -0.00420629 -0.0189728 0.179086 0.00733126 -0.0222654 0.179266 
-0.0366835 -0.00401837 0.181396 -0.0012883 -0.00544066 0.176628 0.0107744 -0.0107721 0.179443 
0.0251996 -0.0038158 0.176694 -0.00867488 0.0037666 0.178787 0.0312541 0.0109343 0.175234 
-0.0143533 0.016567 0.18147 0.014569 0.0152702 0.178378 0.000441926 0.021737 0.181779 

VERTICES 69 138
1 0 
1 1 
1 2 
1 3 
1 4 
1 5 
1 6 
1 7 
1 8 
1 9 
1 10 
1 11 
1 12 
1 13 
1 14 
1 15 
1 16 
1 17 
1 18 
1 19 
1 20 
1 21 
1 22 
1 23 
1 24 
1 25 
1 26 
1 27 
1 28 
1 29 
1 30 
1 31 
1 32 
1 33 
1 34 
1 35 
1 36 
1 37 
1 38 
1 39 
1 40 
1 41 
1 42 
1 43 
1 44 
1 45 
1 46 
1 47 
1 48 
1 49 
1 50 
1 51 
1 52 
1 53 
1 54 
1 55 
1 56 
1 57 
1 58 
1 59 
1 60 
1 61 
1 62 
1 63 
1 64 
1 65 
1 66 
1 67 
1 68 

POINT_DATA 69
FIELD FieldData 7
id 1 69 int
44 510 458 208 557 366 598 506 411 
485 587 612 723 835 875 1056 1185 892 
976 1228 1078 1645 1680 1410 1344 1321 1354 
1569 1931 1538 1502 1612 1730 1856 1405 2238 
2122 2138 1686 2042 1794 1920 1832 1947 2347 
2031 2327 2277 2160 2220 2188 2196 2279 2304 
2166 1985 1917 2427 2471 2477 2388 2474 2476 
2442 2475 2370 2438 2403 2486 
type 1 69 int
2 2 2 2 2 2 2 2 2 
2 2 2 2 2 2 2 2 2 
2 2 2 2 2 2 2 2 2 
2 2 2 2 2 2 2 2 2 
2 2 2 2 2 2 2 2 2 
2 2 2 2 2 2 2 2 2 
2 2 2 2 2 2 2 2 2 
2 2 2 2 2 2 
i 3 69 int
0 0 0 0 0 0 0 0 0 
0 0 0 0 0 0 0 0 0 
0 0 0 0 0 0 0 0 0 
0 0 0 0 0 0 0 0 0 
0 0 0 0 0 0 0 0 0 
0 0 0 0 0 0 0 0 0 
0 0 0 0 0 0 0 0 0 
0 0 0 0 0 0 0 0 0 
0 0 0 0 0 0 0 0 0 
0 0 0 0 0 0 0 0 0 
0 0 0 0 0 0 0 0 0 
0 0 0 0 0 0 0 0 0 
0 0 0 0 0 0 0 0 0 
0 0 0 0 0 0 0 0 0 
0 0 0 0 0 0 0 0 0 
0 0 0 0 0 0 0 0 0 
0 0 0 0 0 0 0 0 0 
0 0 0 0 0 0 0 0 0 
0 0 0 0 0 0 0 0 0 
0 0 0 0 0 0 0 0 0 
0 0 0 0 0 0 0 0 0 
0 0 0 0 0 0 0 0 0 
0 0 0 0 0 0 0 0 0 

v 3 69 double
2.7332775721e-07 -3.4581414672e-06 2.4360548544e-06 2.5305116778e-07 -1.3441359582e-06 5.6930849059e-07 -3.4721166877e-06 -4.5703282179e-06 1.0966038427e-06 
-5.797087833e-07 3.0740466947e-06 2.989221997e-07 -1.322677441e-06 -2.2494315445e-06 -5.4246574088e-06 1.9279746972e-06 -1.1034251935e-06 2.0541474387e-07 
-2.5500170209e-06 -8.7404872879e-08 -7.097511323e-08 2.545861925e-06 1.8557155837e-06 -6.0737903119e-06 -2.8437133901e-06 3.4500875722e-06 4.9097806039e-06 
2.8507759656e-06 2.3615529372e-07 -4.3667911845e-07 3.8669207578e-06 6.895708371e-06 -5.4734087972e-06 -9.8675918165e-07 1.2695731182e-06 1.2152771706e-06 
-7.2478880188e-07 1.1663916374e-06 -1.8331833715e-07 -7.4966179768e-07 -3.0868759383e-06 -2.7050202328e-07 2.5776431673e-06 -1.3147678915e-06 1.3519860868e-06 
-2.6000801843e-06 1.3254956394e-06 -1.1838898115e-06 -1.5165747642e-06 -2.7536320467e-07 -1.4041397444e-06 -1.0699135639e-07 2.5328533351e-07 8.8154574628e-08 
4.3699177616e-07 1.1763055872e-06 -1.4697545247e-06 -1.1460839847e-06 8.9308329706e-07 1.0562076465e-06 -1.0073553712e-06 -3.4540388544e-06 -4.1283773297e-06 
1.8391521446e-06 -1.4767734191e-07 -1.3183040365e-06 1.8245498658e-06 -2.2291872309e-06 3.1836752776e-06 3.3790358017e-07 1.0947320701e-06 -4.7304487408e-07 
2.6629160617e-06 1.0859348682e-06 2.4326567808e-07 -2.5759712667e-08 2.0875735813e-06 3.1677079589e-06 -1.1625353098e-06 -1.6262508835e-06 -1.5518232404e-06 
5.9521803429e-07 -7.2747856879e-07 -3.6915932643e-07 4.6104223166e-06 4.3192412621e-07 1.3830552903e-07 2.9239240716e-06 6.1580205542e-07 -1.0213964226e-06 
-2.4392258623e-06 4.2391469835e-07 -1.5146532335e-06 1.1163353002e-07 -2.4991062709e-06 -3.9970433309e-07 3.8025401326e-07 6.0921736898e-07 -1.9530769636e-06 
-3.2703534053e-07 4.421209244e-07 -5.7504394444e-07 5.718952234e-07 6.0889655228e-07 -1.3241094418e-06 -1.6970942015e-07 -4.2281990932e-07 8.1848378558e-08 
1.7138021449e-06 -1.4475456222e-06 2.2531281704e-07 5.2957552327e-07 3.1250594633e-07 -1.4109324554e-08 2.9436017857e-07 -1.1405659125e-07 -7.2042832617e-07 
-1.0224086689e-06 2.7851804818e-06 1.3650445496e-06 4.2432229844e-08 -1.4352916948e-06 -1.0011725416e-06 -4.4578305962e-06 -1.1992796021e-06 -5.8668096073e-07 
-1.5455333769e-07 -4.28941756e-08 -4.4189961539e-07 1.2385474355e-06 4.5910722252e-07 9.4183675773e-07 2.9601322365e-07 -1.2157514812e-06 1.0405560695e-06 
3.404290681e-07 -4.5730199441e-07 -6.501942181e-07 -1.4543539785e-07 -6.9871437841e-08 7.8773195519e-08 8.1833638696e-07 -7.1085133239e-07 1.2547503262e-06 
-1.1170991965e-07 -5.8578040316e-07 6.8057797725e-07 4.8111193357e-07 -1.1851006247e-06 1.3352462933e-06 -1.5023513205e-06 -1.4209524584e-06 1.059810736e-06 
-1.2621627757e-07 1.0407060131e-07 1.9662048655e-06 1.4072272872e-07 -8.8847166171e-07 3.3929600479e-07 1.1869034723e-07 9.9444852513e-08 -4.65313755e-07 
6.5879674384e-07 -7.5757206922e-07 1.1444115201e-06 -8.605909619e-08 -5.1588365731e-08 -3.2032988324e-07 -1.5669133797e-07 -1.2196683935e-07 2.0528586123e-07 
2.8774888499e-07 -1.2834682841e-06 1.2969362698e-06 9.5358634665e-07 -4.4017684879e-07 9.9551563748e-07 4.9142613839e-07 -9.2518991966e-07 -8.5769805436e-08 
1.2900506777e-07 -4.9092188069e-07 8.2462193589e-07 -4.2120906524e-07 -3.3564633451e-07 -6.3797071517e-07 -1.4797890676e-06 -4.9430829054e-07 5.5831476872e-07 
-1.0599486803e-06 -5.4633097602e-07 -8.3217129803e-09 1.2831730108e-07 -4.4083795414e-07 7.0063497997e-07 2.7586742803e-07 -4.9475131035e-07 -7.4649005841e-07 
1.4671007021e-07 1.0082417433e-06 6.9409517022e-07 -1.9185975205e-07 5.4277383933e-07 1.2055760413e-06 -6.2654400192e-07 2.0532011896e-07 6.1998429607e-07 

f 3 69 double
-5.0611751206e-06 -0.00077154735583 -0.00015225542324 -0.00070601503991 -0.00020361869759 4.5977311777e-06 0.00047701126626 -0.00027508259376 2.4185519511e-05 
5.9162791623e-06 0.0010659265862 0.0006289518766 -0.00032909484848 8.744813732e-05 -3.4168283644e-05 -0.00076764209164 9.2236061401e-05 0.00025147723423 
-0.00035083737305 0.0001703192908 0.00012836534917 -0.00010200555623 0.0012949036029 0.0010492968915 0.00057778198199 0.0009750207214 0.00084206063658 
9.8864255675e-05 -7.2784185951e-05 9.2622849537e-06 -0.00019403958452 -4.5808355168e-06 0.00038290845509 -0.00068870507765 -0.00051572702982 -0.00058922721886 
0.00019025969191 -0.00023067217308 0.00022161335974 0.0013947675536 -0.00034017201712 -0.00041374750274 0.00024959152307 -9.3476122546e-05 7.4753336495e-06 
-0.00066664838355 -0.00055542345994 0.00047155925487 -0.00022967126204 -0.00028698079536 -8.0699679487e-05 0.0004035585412 -2.7605363327e-05 -9.2160221636e-06 
-0.00014684272448 6.7089250965e-06 0.00024293140427 1.8137170389e-05 0.00012059618736 0.00014777402383 0.00011800146793 0.00042664293983 -0.00096922880904 
-0.00057615563203 -0.0003277482035 0.00025380852759 0.00022636624523 -2.5750887698e-05 -0.00011603038631 7.8539572136e-05 0.00024791803463 -0.00019657746736 
0.00020272473492 0.00027227175309 0.00027209437086 -0.00050136754295 -0.00057709923938 -7.3627389147e-05 -3.6999048096e-05 0.00025368718271 3.7244841444e-05 
-0.00041241629274 -0.0004257775582 -0.00017083898016 3.918071037e-05 -0.00058695283363 4.0651172934e-05 0.00053556819897 -0.0003619987729 -0.00027805972204 
2.5418547319e-05 6.3529217863e-05 -6.7896950023e-05 -0.00017433990368 8.7802995675e-05 -8.170106412e-05 5.7369450691e-05 -0.00014789752887 2.1463458448e-05 
1.3138778008e-05 -6.5379843951e-05 9.751974283e-05 0.00031380673983 -3.8768182082e-05 0.00046934506411 4.7122820432e-06 -0.00039068676041 -0.00023844472834 
-5.7993625026e-05 -4.8868425638e-05 7.2577507378e-05 -4.3535511882e-05 -2.2917963476e-05 -9.5573439063e-05 0.00012770034382 0.00011691757284 -3.151719997e-05 
-0.00024516666341 -0.00048389981417 0.0002214511862 8.2540015079e-05 -8.2927121357e-05 -7.6413164257e-05 -0.00011745042063 -9.7342354165e-05 0.00058241195061 
-0.00018344233107 2.9452281447e-05 -0.00022515251315 1.1493739302e-05 0.00011254726447 0.00015950414234 -1.4797514108e-05 0.00011571389398 -0.00012656037521 
2.6655929569e-05 7.4801700051e-05 1.3670794583e-05 9.969821621e-05 -7.770009709e-05 -2.0972207213e-05 -0.00011153796442 -0.00018396289255 -5.2253206141e-05 
-6.9623045203e-05 -5.1647947469e-05 -2.1205222416e-05 3.1616004413e-05 -4.3214832038e-05 -6.816902195e-05 -0.00011609708997 -0.00014884178078 0.0001709916045 
-4.3133204286e-05 5.0675131184e-05 0.00010257572986 0.00012940451835 -1.832467589e-06 1.0631808915e-05 0.00018946059617 3.3998204374e-05 2.6344446564e-05 
3.8701091754e-06 -6.6690389384e-06 -0.00015194548184 0.00012707488281 -0.0001068414985 0.00013439965785 5.2879212465e-05 -9.6419115043e-05 -4.8065203236e-05 
5.1435017635e-05 -5.6377954923e-05 1.4688432568e-05 -2.8729333197e-05 9.3042257239e-06 1.2365544247e-05 -3.5565617217e-05 -9.2800434535e-06 -1.2765793974e-05 
2.1809226734e-05 -1.6023716473e-05 -6.6996951351e-06 2.0288309952e-07 -8.1450049377e-05 3.6371616916e-05 -8.9849862767e-06 3.2792629626e-05 -2.3582368699e-05 
-4.7469526596e-05 2.7248039721e-05 -4.3922946655e-08 -7.0981954816e-06 -1.0796150663e-05 2.591300692e-06 0.00010491237932 9.6980070248e-05 8.1018468404e-05 
9.6226044995e-05 0.00011538609534 9.0163943154e-05 1.7772811711e-05 -2.7675295672e-05 -1.7836298275e-05 -1.5511298864e-05 -2.2388438699e-05 3.1371289109e-05 

radius 1 69 double
0.006 0.006 0.006 0.006 0.006 0.006 0.006 0.006 0.006 
0.006 0.006 0.006 0.006 0.006 0.006 0.006 0.006 0.006 
0.006 0.006 0.006 0.006 0.006 0.006 0.006 0.006 0.006 
0.006 0.006 0.006 0.006 0.006 0.006 0.006 0.006 0.006 
0.006 0.006 0.006 0.006 0.006 0.006 0.006 0.006 0.006 
0.006 0.006 0.006 0.006 0.006 0.006 0.006 0.006 0.006 
0.006 0.006 0.006 0.006 0.006 0.006 0.006 0.006 0.006 
0.006 0.006 0.006 0.006 0.006 0.006 
omega 3 69 double
0.00035748824958 -8.8026713971e-06 0.001011738849 -0.00021741793842 0.00049604554991 0.00086798670089 -0.00066599352589 -0.00031398283532 0.0001664786346 
-0.0011131310005 -0.00029384488354 -0.00060938962294 0.0004406003741 0.00079052734055 0.00046791961838 0.00037759093836 0.00012222301335 -0.00023403049027 
0.00064268578891 0.001143854114 -0.00054883074993 0.0017165980913 0.00023022878297 9.7834512784e-05 0.00076131070545 0.00087590371902 -0.00054462204015 
0.000268636872 -9.5213794399e-05 3.8582733018e-05 -0.0006103902986 0.0036872595588 0.0036939746249 0.001464723256 0.0012072015782 0.00079982293594 
0.00012240166492 -0.0001008856506 0.0002778742416 -0.00041296983715 -1.325303539e-05 0.002176485583 0.00018249722782 -0.00056027533524 -0.0028537628346 
-0.0003937664377 -5.6717407953e-05 0.00043987844892 0.00016216287065 0.00021522484693 0.00026862070549 -0.00088151362885 0.00021003322583 -0.00069909806584 
0.0011335945596 0.0011335475681 -1.2215286177e-05 0.00042564080907 -0.00039678474589 -0.00047436225642 4.3938929531e-05 -0.00085617376556 -0.00027306305926 
-2.1102904541e-05 0.00060439242133 -0.00042339815806 -9.0140950237e-05 -0.00019581284573 -0.00030598226542 0.00021351481387 -9.5169480178e-05 -0.00017060442332 
0.00021149384002 -0.0004081186209 0.00038834783505 0.00043141715726 -0.00039283170471 -0.00016959155404 -0.00023225218646 0.00018184767114 -0.00013828884725 
-0.0007229891714 -0.00021752248426 -0.00052112013234 8.1346083447e-05 -0.00077109793602 -4.9157575734e-05 0.0010240663384 0.00033560393564 -0.0012170277027 
-0.00055677170129 -0.00012110045393 -0.00049434611252 -0.00022349824561 0.00011121729846 -0.00078559899985 -0.00018583954342 -0.0008240442633 -0.0009216875771 
-0.00055296185069 -0.00049752574406 -0.00026942959494 0.0009585637995 0.0005626313128 -0.00048732004666 0.0003854742452 -0.00073475102452 0.00032742091849 
-0.00027541973317 -0.00085744933372 0.0006164789406 1.1088622985e-06 1.18306053e-05 0.00011435393711 0.00037604823448 0.00029693860854 -0.0009493128783 
0.00056238969906 8.2383701234e-05 0.00062533735115 -0.00039512970974 0.00042904243867 0.00057396465846 -0.00085695650465 0.0010924259252 -0.0006142145124 
0.00023851030436 0.00027947226966 -7.8807902933e-05 7.7233215202e-05 0.00052700742616 -1.1785826532e-05 0.00024835983994 7.1277602726e-05 -0.00032401406698 
1.9449807563e-05 -7.0272073369e-05 -0.0001824833703 -0.00017475289915 -8.132200943e-05 -6.7859640947e-05 6.3276150866e-05 -0.00015460094028 -0.00015374637079 
-0.00022969140405 0.00031121962261 5.4596931523e-05 -0.00011275286814 -0.00011065497573 -2.3038587031e-05 -0.00012361091776 -0.00027644344874 9.7842148966e-05 
0.00018796188097 -8.8312018381e-05 0.00036596651846 6.2246495059e-05 -0.00021141588428 0.00030370414944 5.1412589636e-05 -5.3748977898e-05 -2.1224273547e-05 
0.00026818272217 -0.00024299627401 0.00011583176457 0.00017227733528 -0.00016671517319 7.0688350535e-05 0.00021122310547 -0.00026107789969 -9.9503758631e-05 
-0.00028364342962 -0.00012041490279 -1.5353187032e-05 0.00012201601968 -5.4761800536e-05 0.0001350593638 -0.00015039726985 6.2237990967e-05 0.00012438858734 
-0.0001572998625 -0.00010052819691 -1.5741341476e-06 -5.3096740387e-05 7.0461457077e-05 0.00026679129981 0.00013589887586 0.00022496483084 0.00037889891067 
-0.00013537058247 0.00022693281664 6.6392410034e-05 6.2465671828e-06 -0.00013287384974 0.00012475872395 0.00018666297376 -3.3653994965e-05 -0.00010717944293 
0.00023177307904 -0.00016211559431 8.1194092721e-05 0.00011414215784 -0.00032923912922 -2.7682641168e-05 0.00011292374039 -9.4927583499e-06 0.00016583673956 

