# vtk DataFile Version 4.2
Generated by LIGGGHTS
ASCII
DATASET POLYDATA
POINTS 69 float
0.00444787 -0.0262607 0.036521 0.0123908 -0.0313041 0.0555926 -0.0347718 -0.00500462 0.0600774 
-0.0229243 0.0275296 0.0523664 -0.010726 -0.0237696 0.0707814 0.00946195 -0.00748149 0.0693009 
0.00402047 0.0151737 0.0681553 -0.0025506 -0.0344866 0.0772957 -0.0375957 -0.0131075 0.0758635 
0.00180274 -0.0069098 0.0785176 -0.0238322 0.0150064 0.0807489 -0.0132303 0.03347 0.0862006 
-0.0330646 -0.0189033 0.0970379 -0.0241436 -0.0138377 0.103386 -0.019811 -0.0028418 0.0957805 
-0.0146674 0.00999377 0.0994247 -0.000786158 -0.00473334 0.114228 -0.0280518 0.00852131 0.11327 
-0.00278769 0.0134908 0.108736 -0.0112836 -0.00774279 0.119196 0.0408435 -0.00337357 0.121236 
-0.0190579 -0.0278753 0.127423 -0.0109084 -0.0316567 0.137017 -0.0019268 -0.00918932 0.130886 
0.0117856 -0.00652846 0.131564 0.027732 -0.00308409 0.133945 -0.00432115 0.0146631 0.130504 
-0.0221852 -0.027096 0.147814 0.00454177 -0.0340324 0.145425 -0.0175682 -0.0215709 0.138217 
0.00901708 -0.0184218 0.141877 0.0253294 -0.0171952 0.137548 0.0141025 0.00976846 0.143 
0.0333067 0.008924 0.145057 -0.009818 0.0190974 0.140204 0.00152553 -0.0282943 0.157163 
-0.00638424 -0.0194878 0.159126 0.0221376 -0.0143055 0.155687 0.00942713 0.00235871 0.151369 
-0.0147094 0.0130204 0.149542 -0.00673094 0.0163489 0.157861 -0.0229589 0.0239727 0.152734 
0.0109777 0.0311873 0.149313 -0.0142549 -0.0383728 0.163429 -0.0150907 -0.0202257 0.169963 
0.0197608 -0.0192084 0.16639 0.0381605 -0.0149077 0.168698 -0.0319852 -0.000132636 0.162693 
0.016535 -0.000724423 0.168991 -0.0311925 0.0106201 0.167959 -0.021527 0.00622702 0.162367 
-0.00649989 0.00127171 0.167254 0.0294518 0.00279804 0.166601 0.0118363 0.0132789 0.166865 
-0.00491797 0.023926 0.166987 -0.00749875 0.0333054 0.159964 0.00408363 0.030291 0.160828 
-0.0183404 -0.0138378 0.179587 -0.00420629 -0.0189728 0.179086 0.00733126 -0.0222654 0.179266 
-0.0366835 -0.00401837 0.181396 -0.0012883 -0.00544065 0.176628 0.0107744 -0.0107721 0.179443 
0.0251996 -0.00381579 0.176694 -0.00867487 0.0037666 0.178787 0.0312541 0.0109343 0.175234 
-0.0143533 0.016567 0.18147 0.014569 0.0152702 0.178378 0.000441926 0.021737 0.181779 

VERTICES 69 138
1 0 
1 1 
1 2 
1 3 
1 4 
1 5 
1 6 
1 7 
1 8 
1 9 
1 10 
1 11 
1 12 
1 13 
1 14 
1 15 
1 16 
1 17 
1 18 
1 19 
1 20 
1 21 
1 22 
1 23 
1 24 
1 25 
1 26 
1 27 
1 28 
1 29 
1 30 
1 31 
1 32 
1 33 
1 34 
1 35 
1 36 
1 37 
1 38 
1 39 
1 40 
1 41 
1 42 
1 43 
1 44 
1 45 
1 46 
1 47 
1 48 
1 49 
1 50 
1 51 
1 52 
1 53 
1 54 
1 55 
1 56 
1 57 
1 58 
1 59 
1 60 
1 61 
1 62 
1 63 
1 64 
1 65 
1 66 
1 67 
1 68 

POINT_DATA 69
FIELD FieldData 7
id 1 69 int
44 510 458 208 557 366 598 506 411 
485 587 612 723 835 875 1056 1185 892 
976 1228 1078 1645 1680 1410 1344 1321 1354 
1569 1931 1538 1502 1612 1730 1856 1405 2238 
2122 2138 1686 2042 1794 1920 1832 1947 2347 
2031 2327 2277 2160 2220 2188 2196 2279 2304 
2166 1985 1917 2427 2471 2477 2388 2474 2476 
2442 2475 2370 2438 2403 2486 
type 1 69 int
2 2 2 2 2 2 2 2 2 
2 2 2 2 2 2 2 2 2 
2 2 2 2 2 2 2 2 2 
2 2 2 2 2 2 2 2 2 
2 2 2 2 2 2 2 2 2 
2 2 2 2 2 2 2 2 2 
2 2 2 2 2 2 2 2 2 
2 2 2 2 2 2 
i 3 69 int
0 0 0 0 0 0 0 0 0 
0 0 0 0 0 0 0 0 0 
0 0 0 0 0 0 0 0 0 
0 0 0 0 0 0 0 0 0 
0 0 0 0 0 0 0 0 0 
0 0 0 0 0 0 0 0 0 
0 0 0 0 0 0 0 0 0 
0 0 0 0 0 0 0 0 0 
0 0 0 0 0 0 0 0 0 
0 0 0 0 0 0 0 0 0 
0 0 0 0 0 0 0 0 0 
0 0 0 0 0 0 0 0 0 
0 0 0 0 0 0 0 0 0 
0 0 0 0 0 0 0 0 0 
0 0 0 0 0 0 0 0 0 
0 0 0 0 0 0 0 0 0 
0 0 0 0 0 0 0 0 0 
0 0 0 0 0 0 0 0 0 
0 0 0 0 0 0 0 0 0 
0 0 0 0 0 0 0 0 0 
0 0 0 0 0 0 0 0 0 
0 0 0 0 0 0 0 0 0 
0 0 0 0 0 0 0 0 0 

v 3 69 double
4.8970369218e-07 3.7283910517e-06 -1.6387887298e-06 1.3397220101e-06 3.0255161247e-06 -2.8590565987e-06 -1.2482028956e-06 -3.2920761176e-06 6.7337847754e-06 
4.8027952869e-06 4.9163046169e-06 5.5131201216e-06 1.851116556e-07 -9.191118366e-07 8.1382471284e-06 1.2164710292e-06 -4.2652679547e-07 1.289393293e-07 
-1.3477703997e-06 -3.8489862742e-06 -2.9988822221e-06 -2.7213033529e-06 6.4773127685e-07 1.4597902009e-06 -2.5163980352e-07 -3.0701341448e-06 -8.8108868842e-07 
1.4801662452e-09 -2.3342164328e-06 -2.1642063138e-06 -4.5733005992e-07 -1.7271257949e-07 3.8084679832e-06 5.2087484456e-07 1.0010741928e-06 -1.3520607922e-06 
-1.7805293384e-06 4.1336736211e-07 -3.0765654373e-06 1.4815169338e-06 -1.3497096398e-06 1.8823291851e-07 -2.0515512024e-06 -7.2319713655e-07 8.4078460812e-07 
-9.6857359228e-07 -1.2536599501e-07 1.0505589572e-06 1.6884693914e-07 -5.4452812908e-07 -2.7654235454e-06 1.9757103729e-08 -8.2773079911e-07 4.3020062921e-07 
1.0161093203e-06 -1.154329455e-06 1.1197333169e-06 6.8626296409e-08 -1.3013612499e-06 -5.6274706648e-07 7.7923004859e-07 4.9927274752e-06 -2.1214254443e-06 
7.6344402931e-09 -5.0266912001e-07 4.4034721759e-07 1.9940938078e-06 2.2794549724e-07 4.1703797213e-07 1.9699124817e-07 -3.6751609466e-07 1.0261104194e-06 
6.4351906399e-07 2.5222840432e-06 1.5107275046e-06 -1.2214448763e-06 -1.5461005572e-07 -4.949985014e-07 5.5970034336e-07 5.6754720696e-07 8.7400982463e-07 
-5.8828958065e-07 -2.9550767028e-06 1.5172923735e-07 -3.4112931145e-06 4.7534049671e-06 2.3028815144e-06 8.0422559609e-07 -4.0745456646e-06 3.7180134162e-06 
3.9953731052e-07 -2.6488691708e-06 -2.841265721e-06 -2.1472146702e-07 4.4664029124e-07 1.1856387519e-07 4.3925807996e-07 -1.2721989264e-06 9.0559602982e-08 
2.0678270572e-07 -1.221941301e-06 1.8381554147e-06 9.7564402551e-07 2.6641421293e-07 8.9404571274e-07 4.8469083165e-07 -3.7491038074e-06 -1.4607339618e-06 
-1.1108638666e-06 -9.3107927055e-07 -1.5495481348e-08 1.383941307e-08 -4.9781484842e-07 1.7044847075e-07 6.678922393e-07 -1.2777867228e-06 -6.6400188184e-08 
1.1208251503e-06 -2.236567122e-06 -8.4550183728e-07 1.2137764439e-06 -7.926133826e-08 1.3473684196e-06 -1.0962077779e-07 -3.2932495684e-06 3.2785559758e-06 
8.6686914111e-07 -9.31233412e-07 1.0023945386e-07 -1.0638231572e-06 6.7437075579e-07 9.7437359495e-07 4.1704091665e-07 -2.6789992364e-07 1.0792995692e-07 
4.9997784969e-08 -3.3205618968e-07 2.4032021998e-08 -2.1925579949e-07 -1.166920856e-06 2.0052666002e-07 -6.665553179e-10 -8.7673564929e-07 3.531592212e-07 
-2.9848024648e-08 -5.8153238542e-07 1.3374421804e-07 -5.2913333101e-07 -2.3148650944e-07 3.6594861427e-07 -1.9464725139e-08 -1.5715219049e-06 5.7537567529e-07 
-1.3872764473e-07 -7.4346635184e-08 9.5290991645e-08 6.9804456738e-07 -7.2706667193e-07 5.3147600682e-07 2.6601221941e-07 -3.1434239705e-07 1.4780059164e-06 
1.7733903975e-07 2.1721980236e-06 -3.0348064505e-07 7.2158010987e-07 5.8314696024e-07 4.6061368398e-07 6.3715772597e-07 -3.7206127329e-07 -4.1376289608e-07 
6.5544398677e-07 1.5902576556e-07 1.0794407601e-06 5.9600080052e-07 -1.0454231209e-07 8.00934728e-07 7.9229099692e-07 -6.844159874e-07 1.7426214737e-07 
5.6895151223e-08 -5.8273750532e-07 -8.61834571e-07 3.4183030311e-07 4.0616040287e-07 1.6448198148e-07 1.3636001332e-07 -4.6880544482e-07 9.5188647889e-07 
4.3057953357e-07 -4.378853676e-07 1.311801521e-06 -2.128745639e-07 3.37844693e-07 9.2661309026e-07 9.2189862145e-07 -5.1360617555e-07 -1.0037834517e-06 
-9.0055575048e-08 -4.4259108568e-07 -4.397612689e-08 5.6805122253e-07 3.2195448622e-07 -7.9299099049e-07 2.0125341796e-07 -1.6031324799e-07 -2.3540204444e-07 

f 3 69 double
0.00023704585862 -0.00048140179841 0.00045921040513 0.00088429831956 -0.00021042332383 1.4753852211e-05 0.0001848185331 -0.00045018664518 -0.00027530698331 
-0.00056601165516 -0.0006446972294 0.00021238630526 -2.0500963821e-05 1.467207081e-06 -0.00024815720681 -0.00025631797918 -1.9395093527e-06 0.0002335957213 
0.00041867584797 0.00044473741286 0.001144138896 0.0002936565064 0.00073272493703 0.00055172593864 7.5546029981e-05 -0.00038322218798 -0.00029879225923 
-5.8037738438e-05 0.00098662518014 0.00041876641699 0.00082748545641 -0.00045343769617 0.00039548410004 6.4766177852e-05 2.4317709382e-05 -0.00018425865431 
-0.00039974566697 0.00026512347752 4.2349948118e-05 -0.00035551501189 0.00035379380129 0.00040749171513 -8.9055785006e-05 -2.8375785755e-05 -0.00016541715793 
0.00049648808752 -0.00040520201376 0.00083560273941 0.00012507627372 -0.00026553032773 -0.00046622358166 -0.00038829309477 1.1903195788e-05 0.00031550712786 
7.613899184e-05 -0.00020863673617 0.00014777043306 8.5389913942e-05 0.00011718107482 0.00020993024587 0.00014260045229 4.5036885821e-05 -0.00090782094398 
-0.00050893449975 -0.00024905044647 0.00016381519038 -0.00028912047452 0.00048857944891 -0.00056839877142 0.00020089351934 0.00014965156338 -0.00022612422156 
0.00010620618307 1.2615987199e-05 -0.00010591819526 -0.00057432975152 -0.00076285848597 -0.00055721590435 4.2390184182e-05 0.00010953007194 7.5421776336e-05 
-9.5797932249e-05 -0.0001576464672 -1.216381713e-05 -0.0003526189504 0.00063479587665 8.1014201248e-05 7.5859757975e-05 0.00019640261122 -0.00033938931024 
0.00047508717286 0.00038469011694 5.836893314e-05 7.9990892375e-05 0.00018061650156 -0.00023185635972 -9.2554025627e-05 -1.4376317532e-06 -3.0574109173e-05 
-1.7708946691e-05 -5.4292611004e-05 0.00024670431263 -0.0002883156275 -0.00024874069679 -0.00011976656008 0.00026470577982 1.2685925232e-05 -6.5539904366e-05 
-1.59862609e-05 0.00019556757653 0.00025777888692 -2.4582879263e-05 -4.517343402e-06 1.4863805084e-05 -4.3620259463e-05 -0.00019072330517 0.00012828450169 
-2.101404662e-05 4.406454828e-05 -0.00049561356216 8.0182111985e-05 0.00010915201592 0.00012649953513 0.00062393282406 -0.00013367004543 7.0389179709e-05 
8.5718660758e-05 -0.0001055485244 4.3176852774e-06 -7.3437406872e-05 -4.8563151404e-05 7.6493663373e-06 8.2708461831e-05 0.00011924865724 -0.00014794330165 
6.5553740004e-05 -0.0001030989987 -4.4099840289e-05 5.477479721e-06 8.1340222402e-05 -4.1197193604e-05 2.3141481878e-05 -6.2861285303e-05 -0.00016214845373 
-0.00020124631838 -9.0526282201e-05 -0.0001201081595 -2.1369595405e-05 0.00010756302163 6.6053170415e-05 1.7757541058e-05 9.4714471466e-05 -7.3882742407e-05 
-0.00024579858021 -8.537167123e-05 -0.00019380230489 7.8246459264e-05 3.2792365534e-05 2.1796850479e-05 -0.00011910046438 0.0001041661069 -7.8677924784e-06 
-4.4333903118e-05 7.8827035887e-05 -6.0590327842e-05 -5.8382721921e-05 7.1764309254e-05 -7.7097094437e-05 -9.849805435e-05 6.6679082008e-05 2.0161486096e-05 
2.3764991572e-05 1.4143125276e-06 -5.1935086351e-05 -0.00018980844618 -0.00014984631467 2.0554418634e-05 -6.6124996691e-05 -3.8955855491e-05 -1.730246368e-05 
3.2282043347e-05 -1.1131432076e-05 -9.362824019e-05 3.0294373695e-05 0.00014584713051 6.9478677405e-05 0.00012021542767 -2.522107576e-05 3.5481214493e-05 
9.4226416337e-05 -2.5983836949e-06 0.00010033150582 -9.3191358227e-06 5.9912717112e-05 6.4473681719e-05 -0.00013974240795 -0.00014554984476 -8.3646679238e-05 
-6.5489587202e-05 -0.00014089126471 -2.2475312942e-05 1.1430530433e-05 1.2243768547e-05 2.816829192e-05 2.7843421216e-05 1.2345748766e-05 -6.8065379789e-06 

radius 1 69 double
0.006 0.006 0.006 0.006 0.006 0.006 0.006 0.006 0.006 
0.006 0.006 0.006 0.006 0.006 0.006 0.006 0.006 0.006 
0.006 0.006 0.006 0.006 0.006 0.006 0.006 0.006 0.006 
0.006 0.006 0.006 0.006 0.006 0.006 0.006 0.006 0.006 
0.006 0.006 0.006 0.006 0.006 0.006 0.006 0.006 0.006 
0.006 0.006 0.006 0.006 0.006 0.006 0.006 0.006 0.006 
0.006 0.006 0.006 0.006 0.006 0.006 0.006 0.006 0.006 
0.006 0.006 0.006 0.006 0.006 0.006 
omega 3 69 double
0.00022278290614 -0.00052241468855 -0.00094862567647 0.00054211413507 -0.001316262886 -0.00093957380783 0.0011579262125 0.00018171676218 0.00099312581786 
-0.00083731030859 -0.00066978835674 -0.0003015395871 -3.3387536368e-05 0.00073185972265 -0.0003603079708 -0.00010748690586 -0.00048377992624 0.00058051384297 
0.00015445705004 -0.0016575476316 0.00077251407487 -0.0011065498538 -6.9183820921e-05 0.00052200818954 -0.00079728912813 -0.0010292746857 0.001641012027 
-0.00036580477258 -0.00030623446884 0.00012462444684 -0.00044631864265 -0.0020292225192 0.00032455503644 0.0011064176376 0.0017740374112 -5.7910513306e-05 
0.00062030385187 0.00041613844872 2.6055561203e-05 0.00031024645073 0.0010028754882 5.6318896413e-05 -0.0014505623753 0.001057387369 0.0011734622649 
-0.00016572334094 0.0003952839657 -0.00014476922543 8.7737648893e-05 0.0005228475668 3.0177548652e-05 -0.00016180266889 0.0005258900188 0.00027844661634 
-0.00016913316623 -0.00029392411199 -0.00074779435317 -0.00013826755977 -0.00013431184896 -0.00069272020712 -0.00031077582688 -0.0014074524615 -0.00092459017764 
-0.00091367557655 0.00033876018988 -0.00054611238688 0.00014126034285 0.00022267264708 -0.00035700653437 -0.00024406089248 -0.0002605854637 5.1343516462e-05 
-0.00037182004196 -0.00019818420058 8.099273668e-05 -0.00048013510042 -0.00011889047961 -0.00037531156576 0.00088366652719 0.00069497745469 -9.1028335395e-05 
1.9124735378e-05 -0.00019172117021 -2.4041917544e-05 0.0009115072215 -4.5333417238e-05 -0.00034724277901 -0.00052881555809 -0.00014722382276 0.00020674738309 
-0.0011784351243 0.00073789164913 -0.00058809794067 0.00013597447272 -0.00017130338029 -0.00053259535248 0.0002704323819 -0.00033577193473 -0.00022558738786 
-0.00055432759222 0.00020392828828 -0.00028546842142 -0.0003404270195 0.00054401924136 0.00017133986245 0.00033568954948 -0.00011904299967 -0.00048445441897 
-0.0004231233954 4.8149694894e-05 -0.00017413252197 -0.0001281986981 0.00012277707036 -0.000108053477 -0.0011183980902 0.00058755997029 -7.6606152183e-05 
-0.00034914848414 -0.00042556788789 -0.00095882491956 0.00042123857127 -0.00014228169951 -0.0006176145943 -0.00089744806135 -7.2945786564e-05 0.00089840292161 
-0.00034585162882 -0.00028218070853 9.357179207e-05 -0.00035902490763 0.00025406461545 -1.9150175998e-05 0.00030188114908 0.00013821332202 -0.00039308641148 
-0.00040074742543 0.00020028992317 2.9689763993e-05 -2.6375230996e-05 4.2498167299e-05 -4.1521826608e-06 -0.00026508114273 -0.00019957320423 7.8769724726e-05 
-0.00032040597486 0.00027882307303 2.3327761942e-05 0.00036790804905 -0.00058111203103 -0.0004340526665 -0.00068103472776 7.1161606845e-05 8.9078087906e-05 
-2.1618097228e-05 0.00019820374276 -0.00045164879635 3.1821960941e-05 -0.00020212173008 -3.9160619283e-05 0.00013073974954 4.3379760769e-05 -0.00017993740572 
-8.4322488932e-05 0.00042168036049 -0.00058255258084 -0.0002331717162 6.4589499239e-05 9.5327138661e-05 -0.00022544483846 0.00022539435321 -1.1686114577e-05 
-0.00015566149229 5.6591760809e-05 5.9764760375e-05 0.00020163111663 0.00017508696327 1.094275867e-05 1.9184516717e-05 0.00016410880546 7.5967108639e-05 
-0.00020029932852 0.00026398269479 -0.00022652083356 1.1753292728e-05 0.00039966026617 -0.00016894563638 -0.00027682000834 -8.0138848131e-05 0.00025006216542 
-4.1695141394e-05 -0.00036007596359 -3.1650239288e-06 -9.9710498187e-05 0.00025210621382 -2.9968601122e-05 3.4296609521e-05 -0.0001308709008 -3.582197798e-05 
-0.000125528839 0.00045352782089 0.00015451893499 0.00012652142532 7.7580717961e-05 -0.00013954950063 2.1469696065e-05 -1.3926008523e-05 1.3427493112e-05 

