# vtk DataFile Version 4.2
Generated by LIGGGHTS
ASCII
DATASET POLYDATA
POINTS 69 float
0.00444786 -0.0262607 0.036521 0.0123908 -0.0313041 0.0555926 -0.0347718 -0.00500459 0.0600774 
-0.0229243 0.0275297 0.0523664 -0.010726 -0.0237696 0.0707814 0.00946194 -0.00748149 0.0693009 
0.00402047 0.0151737 0.0681553 -0.00255062 -0.0344866 0.0772957 -0.0375957 -0.0131075 0.0758635 
0.00180274 -0.0069098 0.0785176 -0.0238322 0.0150064 0.0807489 -0.0132303 0.03347 0.0862006 
-0.0330647 -0.0189033 0.0970379 -0.0241437 -0.0138377 0.103386 -0.019811 -0.00284179 0.0957805 
-0.0146674 0.00999378 0.0994247 -0.00078616 -0.00473334 0.114228 -0.0280518 0.00852132 0.11327 
-0.00278769 0.0134908 0.108736 -0.0112836 -0.00774279 0.119196 0.0408435 -0.00337358 0.121236 
-0.0190579 -0.0278753 0.127423 -0.0109084 -0.0316567 0.137017 -0.00192681 -0.00918932 0.130886 
0.0117856 -0.00652846 0.131564 0.027732 -0.00308411 0.133945 -0.00432114 0.0146631 0.130504 
-0.0221852 -0.027096 0.147814 0.00454176 -0.0340324 0.145425 -0.0175682 -0.0215709 0.138217 
0.00901707 -0.0184218 0.141877 0.0253294 -0.0171953 0.137548 0.0141025 0.00976845 0.143 
0.0333067 0.00892398 0.145057 -0.00981799 0.0190974 0.140204 0.00152552 -0.0282943 0.157163 
-0.00638425 -0.0194878 0.159126 0.0221376 -0.0143056 0.155687 0.00942713 0.0023587 0.151369 
-0.0147094 0.0130204 0.149542 -0.00673094 0.0163489 0.157861 -0.0229589 0.0239727 0.152734 
0.0109777 0.0311873 0.149313 -0.0142549 -0.0383728 0.163429 -0.0150907 -0.0202257 0.169963 
0.0197608 -0.0192084 0.16639 0.0381605 -0.0149077 0.168698 -0.0319852 -0.000132627 0.162693 
0.016535 -0.000724435 0.168991 -0.0311925 0.0106201 0.167959 -0.021527 0.00622703 0.162367 
-0.00649989 0.00127171 0.167254 0.0294517 0.00279802 0.166601 0.0118363 0.0132789 0.166865 
-0.00491796 0.023926 0.166987 -0.00749873 0.0333054 0.159964 0.00408364 0.030291 0.160828 
-0.0183404 -0.0138378 0.179587 -0.0042063 -0.0189728 0.179086 0.00733125 -0.0222654 0.179266 
-0.0366835 -0.00401836 0.181396 -0.0012883 -0.00544067 0.176628 0.0107744 -0.0107721 0.179443 
0.0251996 -0.00381582 0.176694 -0.00867487 0.00376659 0.178787 0.0312541 0.0109342 0.175234 
-0.0143532 0.016567 0.18147 0.0145689 0.0152702 0.178378 0.000441912 0.0217369 0.181779 

VERTICES 69 138
1 0 
1 1 
1 2 
1 3 
1 4 
1 5 
1 6 
1 7 
1 8 
1 9 
1 10 
1 11 
1 12 
1 13 
1 14 
1 15 
1 16 
1 17 
1 18 
1 19 
1 20 
1 21 
1 22 
1 23 
1 24 
1 25 
1 26 
1 27 
1 28 
1 29 
1 30 
1 31 
1 32 
1 33 
1 34 
1 35 
1 36 
1 37 
1 38 
1 39 
1 40 
1 41 
1 42 
1 43 
1 44 
1 45 
1 46 
1 47 
1 48 
1 49 
1 50 
1 51 
1 52 
1 53 
1 54 
1 55 
1 56 
1 57 
1 58 
1 59 
1 60 
1 61 
1 62 
1 63 
1 64 
1 65 
1 66 
1 67 
1 68 

POINT_DATA 69
FIELD FieldData 7
id 1 69 int
44 510 458 208 557 366 598 506 411 
485 587 612 723 835 875 1056 1185 892 
976 1228 1078 1645 1680 1410 1344 1321 1354 
1569 1931 1538 1502 1612 1730 1856 1405 2238 
2122 2138 1686 2042 1794 1920 1832 1947 2347 
2031 2327 2277 2160 2220 2188 2196 2279 2304 
2166 1985 1917 2427 2471 2477 2388 2474 2476 
2442 2475 2370 2438 2403 2486 
type 1 69 int
2 2 2 2 2 2 2 2 2 
2 2 2 2 2 2 2 2 2 
2 2 2 2 2 2 2 2 2 
2 2 2 2 2 2 2 2 2 
2 2 2 2 2 2 2 2 2 
2 2 2 2 2 2 2 2 2 
2 2 2 2 2 2 2 2 2 
2 2 2 2 2 2 
i 3 69 int
0 0 0 0 0 0 0 0 0 
0 0 0 0 0 0 0 0 0 
0 0 0 0 0 0 0 0 0 
0 0 0 0 0 0 0 0 0 
0 0 0 0 0 0 0 0 0 
0 0 0 0 0 0 0 0 0 
0 0 0 0 0 0 0 0 0 
0 0 0 0 0 0 0 0 0 
0 0 0 0 0 0 0 0 0 
0 0 0 0 0 0 0 0 0 
0 0 0 0 0 0 0 0 0 
0 0 0 0 0 0 0 0 0 
0 0 0 0 0 0 0 0 0 
0 0 0 0 0 0 0 0 0 
0 0 0 0 0 0 0 0 0 
0 0 0 0 0 0 0 0 0 
0 0 0 0 0 0 0 0 0 
0 0 0 0 0 0 0 0 0 
0 0 0 0 0 0 0 0 0 
0 0 0 0 0 0 0 0 0 
0 0 0 0 0 0 0 0 0 
0 0 0 0 0 0 0 0 0 
0 0 0 0 0 0 0 0 0 

v 3 69 double
-2.1149317717e-06 4.9040814876e-07 5.0078810261e-06 1.959756973e-06 -4.1037829641e-07 2.5672697546e-06 9.5468066399e-06 2.2312382569e-06 -2.2577970685e-06 
-5.1544309043e-06 -1.0698745338e-05 -5.1065806889e-06 2.6106904704e-07 9.2904387721e-07 8.9274265767e-07 -1.624852401e-06 -7.1442024378e-07 1.0370816607e-06 
6.8919494363e-07 7.8668978161e-07 -2.3069714877e-06 2.403787612e-06 2.6260842452e-06 7.8964393336e-07 1.4709642805e-06 -9.2144694505e-07 -4.5672092361e-06 
-9.7127331241e-07 -1.3828344428e-06 -1.2425321368e-06 -1.1463216761e-06 6.2267360895e-06 -2.0017937379e-06 -1.4736019686e-06 3.2225771515e-06 3.9109879927e-07 
3.5092450837e-06 9.5321272573e-08 2.5728187299e-06 3.2011285814e-06 2.1773109597e-06 4.6750327589e-07 -5.2661875015e-07 -3.4980291759e-06 1.5655436151e-07 
4.7611730668e-06 3.218663863e-06 -2.1516671613e-06 1.2493866177e-07 -6.048466783e-07 -1.9290606622e-06 6.0210954913e-06 2.0252509052e-07 2.090419045e-07 
1.0263533283e-06 -3.6752010405e-07 3.8741807305e-06 5.7202425441e-07 -5.432406805e-08 4.2435465277e-07 8.1332714568e-07 2.6472090938e-06 -3.7012266689e-07 
-1.2233430802e-06 1.9093810318e-06 4.7405552336e-07 -1.5777715618e-06 4.6605322214e-07 -1.8953148933e-06 -6.9931852451e-09 1.0269325977e-06 -3.520188502e-07 
-1.0319277777e-06 -4.1593748088e-07 -1.419385034e-06 -3.7703367564e-06 -1.541786754e-06 -1.8592205996e-06 -6.6286510265e-07 -1.3361014155e-06 4.15211395e-07 
6.3083064647e-07 8.8544342925e-07 4.837111505e-07 2.9952010431e-06 -6.309559783e-06 7.2760019781e-07 2.1279937022e-06 -7.4874260192e-07 -1.2291904426e-06 
-1.5866456172e-06 -6.1907867266e-07 4.509859884e-07 -1.3284701057e-06 -5.6129306653e-07 2.9131654243e-07 5.8983243394e-07 1.2234787714e-06 -6.2492664311e-07 
4.9732476592e-07 -4.4184458137e-07 -4.360034114e-07 -1.7052490941e-06 8.875450349e-07 -3.1314709495e-06 2.9045420316e-06 2.2069804207e-06 6.4248505612e-07 
-1.8086419631e-07 1.8897104018e-06 1.518465675e-06 1.1785440897e-06 4.9135811989e-07 1.8516934517e-07 8.9788652423e-07 8.3769051861e-07 -9.7205019206e-07 
-2.8438417264e-06 4.9000054957e-06 1.239044633e-06 1.772570284e-06 5.6672386855e-07 -2.0135966148e-06 4.4930552764e-07 1.0212690889e-07 2.1044702293e-06 
-4.2716467957e-07 7.080236722e-08 1.2663356445e-06 2.9635296195e-07 -5.4832408169e-07 2.7745969377e-07 5.4407550365e-07 8.5182813722e-07 5.5856620563e-07 
-5.3328304548e-07 -2.2618741801e-07 -1.7050735912e-07 -2.03165229e-07 5.0688368804e-07 8.3710625331e-08 2.600807649e-07 -5.8566145097e-07 -1.5083511119e-06 
4.2761576523e-07 8.0090886788e-07 -8.4414578227e-08 1.2071015265e-06 -2.6035237498e-07 -1.0094278371e-06 -1.1243588597e-06 1.1786525638e-06 -1.8940170564e-06 
-2.8740735367e-07 -5.5873243864e-08 -4.4997484681e-07 3.6936679104e-07 -6.3969100511e-08 5.5799865312e-07 1.3771753937e-06 3.6687206264e-07 1.8271565955e-07 
8.0640172942e-07 1.0922688778e-06 3.6272703648e-07 -8.8791077217e-07 -2.0063407233e-07 -1.5445087629e-07 4.7431223126e-07 -1.1459956545e-07 9.6197036329e-07 
4.975864718e-07 4.1016207389e-07 8.9999911264e-07 1.750636729e-07 -2.7788973813e-07 -5.2046003892e-07 8.5328472372e-08 -1.0397680406e-07 6.8444667443e-08 
-2.6993329812e-07 7.0896292816e-08 -1.0065907528e-06 9.9835173657e-07 -4.5188189347e-07 7.5632594477e-07 4.9582959241e-07 -3.142453733e-07 1.0273775222e-07 
-6.6758800853e-07 -1.5393899259e-07 8.8984035067e-08 4.4066181671e-07 3.7128945069e-07 2.5219516893e-07 6.7367856451e-07 2.3970823622e-07 6.0716527035e-07 
-1.7899052942e-07 -2.9261147176e-07 6.14411431e-08 -4.3296916155e-07 -4.9662931074e-07 3.0411329574e-07 -4.5394172699e-07 2.234890955e-07 -2.8569334418e-07 

f 3 69 double
-0.00014174969326 -0.00034760205462 0.00042054186755 -0.00062744373141 0.00014928565321 0.00023718080059 0.00031572686473 -0.00055993786213 0.00042614888252 
-0.00017119256551 -0.00052884962767 5.4613426687e-05 0.00036784995353 7.4398501703e-06 -0.00058117469568 -0.00040491308639 -0.00024491933781 0.00043428427719 
0.00038190078605 0.0007974961848 0.0014551199376 -0.00034661099169 0.00075457115452 0.00090422302889 -0.00048714083502 -0.00049521059663 -0.0009448027617 
-0.00019028643842 -0.00053550494899 -3.5559465863e-06 0.0012268801586 1.9553368265e-05 2.5072337873e-05 0.00034941330451 -0.00063306441439 9.9500836799e-05 
-0.00030176801016 0.00025769271552 9.0258416941e-05 -0.00060865304196 -0.00047826368478 0.00019445482835 0.00093598402238 -0.00071981314752 0.0010876434357 
-0.0010699782668 -0.00061835869004 0.00057429873116 0.00015830792535 -0.00012006238972 0.00015898887536 0.00025860086647 -0.00020700950748 -0.0004407682279 
9.6190591232e-05 -7.5263333865e-05 0.00077737468803 0.00026910257606 -9.1916358446e-05 0.00010141596447 6.6414614222e-05 -0.0003275129131 0.0011092267161 
-0.00018286925584 1.7637988077e-05 0.00010030925496 5.598875053e-05 0.00030144013763 -0.00020780798248 6.9693035745e-05 1.0980828391e-05 -4.4258942869e-05 
2.6978130253e-06 -4.7391173865e-05 -0.0001995887836 0.00030446289838 -5.2518291117e-05 -0.00033754129663 0.00016416112207 -0.00011707070433 -4.2936975775e-05 
6.5254038947e-06 0.000198848097 0.00015963339797 0.0003697253623 -0.00090812498267 -9.7573604665e-06 -0.00036017762691 0.00094985122699 3.8927074814e-05 
-0.00017781978931 0.00021679855025 5.0780049139e-05 -1.0533601088e-05 -1.7474442568e-06 0.00014712619152 0.00028588749484 0.00029377102061 -0.00016353409626 
-0.00010907093364 3.9765697455e-05 0.00021522036846 0.00026846482672 0.00035329084625 -1.2428439723e-05 -0.00016175007794 -0.0001828498757 -2.9520183403e-05 
-0.00010412141429 2.3293556595e-05 -0.00010875301325 5.9543364667e-05 1.9779840062e-05 -5.8841289625e-05 0.00015825681131 0.00039138913359 -0.00033145357186 
0.00013350795863 -3.6865969143e-05 0.00021835726957 -0.00019378690997 7.0213013778e-05 4.0240535696e-05 -0.00033867903371 0.00018689984549 -0.00018305882706 
-6.7474520807e-05 -2.3967130158e-05 4.8033029939e-05 6.1844617518e-05 0.00030668046836 5.7151825047e-05 -2.2102708907e-05 0.00010016186044 -0.00014190710126 
2.5011445382e-05 5.3864208355e-05 -3.0749524354e-05 0.00012203190275 -7.5350473933e-05 -3.1716028414e-05 -5.9893703043e-05 -2.8083497121e-05 3.2141972465e-05 
-0.00011395170585 -0.00027634993895 -9.2582023306e-06 6.8617996721e-06 -0.00013002788444 1.8326509827e-05 -1.7622938747e-05 -0.00011021969729 3.9434130049e-05 
3.6995316737e-05 2.9928560305e-05 9.939786762e-05 7.1705798259e-05 -7.2207442904e-06 5.6328845022e-05 0.00024196834926 7.2163025743e-06 -8.84560565e-05 
4.0849969509e-05 -0.00017574155059 -0.00013361432728 -8.3712773936e-05 -6.7202287138e-05 -6.4169668171e-05 -1.7334721638e-05 4.7991441014e-05 2.3254516126e-05 
6.8616138876e-05 -5.9479984105e-05 -8.8988607238e-05 -4.6660618909e-05 -8.3692457333e-06 3.0350069354e-05 4.8617733187e-06 -1.6760137086e-05 -2.5117809266e-05 
5.9975985222e-06 6.2951345063e-05 6.6019434943e-05 -5.7672624473e-05 6.0849615282e-06 -5.0518130993e-05 -0.00015841319836 4.6593509385e-05 3.7562931172e-05 
-7.7294499343e-05 -2.2754768414e-06 -5.6958148051e-06 6.9741615755e-06 -7.6270836848e-06 2.5681560823e-05 -9.2068637096e-05 -6.7669123183e-05 -5.1171572605e-05 
6.5011911165e-05 0.00014461294707 7.541758805e-05 8.2346792598e-06 1.0477000731e-05 -3.0555807189e-05 4.3995468191e-05 5.6736809897e-05 -4.0781550844e-05 

radius 1 69 double
0.006 0.006 0.006 0.006 0.006 0.006 0.006 0.006 0.006 
0.006 0.006 0.006 0.006 0.006 0.006 0.006 0.006 0.006 
0.006 0.006 0.006 0.006 0.006 0.006 0.006 0.006 0.006 
0.006 0.006 0.006 0.006 0.006 0.006 0.006 0.006 0.006 
0.006 0.006 0.006 0.006 0.006 0.006 0.006 0.006 0.006 
0.006 0.006 0.006 0.006 0.006 0.006 0.006 0.006 0.006 
0.006 0.006 0.006 0.006 0.006 0.006 0.006 0.006 0.006 
0.006 0.006 0.006 0.006 0.006 0.006 
omega 3 69 double
0.00050178687077 0.00086234987586 0.00053841924549 -0.00036330860777 -0.00018590465201 -0.00085286524958 0.00035701312299 -0.00075537502118 0.00024268803855 
0.0012919285897 -0.00010745306172 0.00098596083902 8.5092136006e-05 -0.00065783685208 0.00010206570133 0.00025435990617 -0.00061545543571 -0.00027236527862 
0.0015659434891 -6.3355603961e-05 0.0010575136192 -0.0026381013411 0.00010986926523 -0.0013730052388 -0.00057016800359 -0.00042787073371 -0.00010984052223 
0.00033320821538 -0.00054789633088 0.00024541652579 -0.0011182039141 0.0030382976167 0.0036318557813 -0.00020383873521 0.0010223605248 0.00040490667696 
4.6342143609e-05 0.00066433003536 0.00069449914882 0.00084136645839 -0.00057836104682 0.0011514646453 0.00073573788218 -0.0020594487064 -0.0014014501884 
0.0016532628164 -0.002787872207 -0.0014413814758 5.273811259e-05 -0.00021320612622 -8.2065531053e-05 -0.00046745519356 -8.3733576193e-05 0.0007721054581 
0.00072338798657 4.6601126247e-05 0.00066337784076 0.00021946296397 0.00013083831297 0.00012431047053 6.3708007002e-06 0.00027159101152 0.00015396249727 
-0.00028327337202 -0.0003947985484 0.00017821635843 -7.1558628448e-05 0.00011113960835 -3.2385801295e-05 0.00078114906293 -5.2141614619e-05 -0.00077390078028 
-0.00086547135095 0.00024769975171 0.00045535103135 -0.0010944666325 4.2601721476e-05 0.00077569731728 -0.00070304003087 -0.00060754159749 -0.0001711939804 
0.00014436690381 0.00054896080199 -0.00046456564769 -0.0009870407967 -6.0678757941e-06 -0.00061495745555 -0.00040567892952 0.00056492283184 -0.00010602537291 
0.00096081743574 -0.00057245935771 0.00037914035391 0.00013933266929 0.00030760543576 -0.0001444488208 -5.630254244e-05 0.00064276474343 -0.00021398003267 
0.00016185289881 0.00046961483408 -1.4050819759e-05 0.0017110347416 0.00018326209536 -0.00059889822847 -7.4125407009e-05 0.00036504267608 -0.00083849045352 
-0.00031766789363 0.00010532494615 -0.00070250421086 0.00026505863271 -6.6541461635e-05 -6.0804091917e-05 0.00046162091826 2.6228187755e-05 0.00021285838707 
0.0017586653515 -0.00025312436277 -0.00018640695093 -0.00025271819713 0.00042312165321 -0.00036835744931 -0.00061109903284 2.428365242e-05 -0.00024966360377 
0.00012347696607 2.9059335463e-05 -0.00015209857733 0.00014650076143 -0.00045831526826 1.5280785612e-05 -0.00034988150819 -1.888827402e-05 1.1176465315e-05 
-9.3624231562e-05 0.00020005114636 8.9982870747e-05 -0.00013499996807 -0.00011232195688 -0.00010902113201 0.00071287169836 0.00011593024653 -0.00021829740514 
7.932037852e-05 -0.00025866406773 -0.00011685912801 -0.00015858132675 1.9633041099e-05 0.00028471975287 -9.8802973192e-05 -0.00040432128585 0.00034474019076 
-0.00039199920111 0.00016934021516 0.00017759054355 1.1033821106e-05 -0.00015048860927 6.8751583531e-05 -0.00016185404615 6.5250977574e-05 -0.0001296627833 
3.194764807e-05 -4.970618516e-05 -0.00019471232045 -0.00049987046939 0.00034554315265 0.000217307177 -3.9895567669e-05 0.00023776590352 2.7339349897e-05 
5.4685761684e-05 -7.5695989576e-05 -0.00037388039011 0.00014292158384 -0.00024887024677 1.8453418919e-05 -0.00013208011071 -0.00014265301859 -2.4362144982e-05 
0.00010157388856 0.00020519008591 -0.0004036525949 -0.00012407569696 -0.00036567858743 -4.099601987e-05 -0.00021837710267 -0.00015551176553 -1.6737931262e-05 
-0.00020854095104 2.4344025848e-05 -0.00015685124951 -2.3545317278e-05 4.8288719454e-05 -7.0154523178e-05 -4.9633477965e-05 -0.00032368510942 -0.00014785423169 
-0.00019866377245 -0.00018233284995 -6.2894093503e-05 -4.1993682395e-05 -6.1251715106e-05 0.00012983401601 -7.0411957431e-05 -0.00015066359876 0.00019576779103 

