# vtk DataFile Version 4.2
Generated by LIGGGHTS
ASCII
DATASET POLYDATA
POINTS 69 float
0.00444787 -0.0262607 0.036521 0.0123908 -0.0313041 0.0555926 -0.0347718 -0.00500462 0.0600774 
-0.0229243 0.0275296 0.0523664 -0.010726 -0.0237696 0.0707814 0.00946195 -0.00748149 0.0693009 
0.00402047 0.0151737 0.0681553 -0.0025506 -0.0344866 0.0772957 -0.0375957 -0.0131075 0.0758635 
0.00180274 -0.0069098 0.0785176 -0.0238322 0.0150064 0.0807489 -0.0132303 0.03347 0.0862006 
-0.0330646 -0.0189033 0.0970379 -0.0241436 -0.0138377 0.103386 -0.019811 -0.0028418 0.0957805 
-0.0146674 0.00999377 0.0994247 -0.000786158 -0.00473334 0.114228 -0.0280518 0.00852131 0.11327 
-0.00278769 0.0134908 0.108736 -0.0112836 -0.00774279 0.119196 0.0408435 -0.00337357 0.121236 
-0.0190579 -0.0278753 0.127423 -0.0109084 -0.0316567 0.137017 -0.0019268 -0.00918931 0.130886 
0.0117856 -0.00652846 0.131564 0.027732 -0.00308409 0.133945 -0.00432115 0.0146631 0.130504 
-0.0221852 -0.027096 0.147814 0.00454177 -0.0340324 0.145425 -0.0175682 -0.0215709 0.138217 
0.00901708 -0.0184218 0.141877 0.0253294 -0.0171952 0.137548 0.0141025 0.00976846 0.143 
0.0333067 0.008924 0.145057 -0.009818 0.0190974 0.140204 0.00152553 -0.0282943 0.157163 
-0.00638424 -0.0194878 0.159126 0.0221376 -0.0143055 0.155687 0.00942713 0.00235871 0.151369 
-0.0147094 0.0130204 0.149542 -0.00673094 0.0163489 0.157861 -0.0229589 0.0239727 0.152734 
0.0109777 0.0311873 0.149313 -0.0142549 -0.0383728 0.163429 -0.0150907 -0.0202257 0.169963 
0.0197608 -0.0192084 0.16639 0.0381605 -0.0149077 0.168698 -0.0319852 -0.000132636 0.162693 
0.016535 -0.000724425 0.168991 -0.0311925 0.0106201 0.167959 -0.021527 0.00622702 0.162367 
-0.00649989 0.00127171 0.167254 0.0294518 0.00279804 0.166601 0.0118363 0.0132789 0.166865 
-0.00491797 0.023926 0.166987 -0.00749874 0.0333054 0.159964 0.00408363 0.030291 0.160828 
-0.0183404 -0.0138378 0.179587 -0.00420629 -0.0189728 0.179086 0.00733126 -0.0222654 0.179266 
-0.0366835 -0.00401837 0.181396 -0.0012883 -0.00544066 0.176628 0.0107744 -0.0107721 0.179443 
0.0251996 -0.00381579 0.176694 -0.00867488 0.0037666 0.178787 0.0312541 0.0109343 0.175234 
-0.0143533 0.016567 0.18147 0.014569 0.0152702 0.178378 0.000441926 0.021737 0.181779 

VERTICES 69 138
1 0 
1 1 
1 2 
1 3 
1 4 
1 5 
1 6 
1 7 
1 8 
1 9 
1 10 
1 11 
1 12 
1 13 
1 14 
1 15 
1 16 
1 17 
1 18 
1 19 
1 20 
1 21 
1 22 
1 23 
1 24 
1 25 
1 26 
1 27 
1 28 
1 29 
1 30 
1 31 
1 32 
1 33 
1 34 
1 35 
1 36 
1 37 
1 38 
1 39 
1 40 
1 41 
1 42 
1 43 
1 44 
1 45 
1 46 
1 47 
1 48 
1 49 
1 50 
1 51 
1 52 
1 53 
1 54 
1 55 
1 56 
1 57 
1 58 
1 59 
1 60 
1 61 
1 62 
1 63 
1 64 
1 65 
1 66 
1 67 
1 68 

POINT_DATA 69
FIELD FieldData 7
id 1 69 int
44 510 458 208 557 366 598 506 411 
485 587 612 723 835 875 1056 1185 892 
976 1228 1078 1645 1680 1410 1344 1321 1354 
1569 1931 1538 1502 1612 1730 1856 1405 2238 
2122 2138 1686 2042 1794 1920 1832 1947 2347 
2031 2327 2277 2160 2220 2188 2196 2279 2304 
2166 1985 1917 2427 2471 2477 2388 2474 2476 
2442 2475 2370 2438 2403 2486 
type 1 69 int
2 2 2 2 2 2 2 2 2 
2 2 2 2 2 2 2 2 2 
2 2 2 2 2 2 2 2 2 
2 2 2 2 2 2 2 2 2 
2 2 2 2 2 2 2 2 2 
2 2 2 2 2 2 2 2 2 
2 2 2 2 2 2 2 2 2 
2 2 2 2 2 2 
i 3 69 int
0 0 0 0 0 0 0 0 0 
0 0 0 0 0 0 0 0 0 
0 0 0 0 0 0 0 0 0 
0 0 0 0 0 0 0 0 0 
0 0 0 0 0 0 0 0 0 
0 0 0 0 0 0 0 0 0 
0 0 0 0 0 0 0 0 0 
0 0 0 0 0 0 0 0 0 
0 0 0 0 0 0 0 0 0 
0 0 0 0 0 0 0 0 0 
0 0 0 0 0 0 0 0 0 
0 0 0 0 0 0 0 0 0 
0 0 0 0 0 0 0 0 0 
0 0 0 0 0 0 0 0 0 
0 0 0 0 0 0 0 0 0 
0 0 0 0 0 0 0 0 0 
0 0 0 0 0 0 0 0 0 
0 0 0 0 0 0 0 0 0 
0 0 0 0 0 0 0 0 0 
0 0 0 0 0 0 0 0 0 
0 0 0 0 0 0 0 0 0 
0 0 0 0 0 0 0 0 0 
0 0 0 0 0 0 0 0 0 

v 3 69 double
-3.42686838e-06 -1.588081067e-06 -6.6902947706e-07 7.1141141036e-07 4.2667412005e-07 8.5794991271e-08 6.4446483449e-06 3.0255838984e-07 3.0750307855e-06 
-1.596007041e-06 -7.8560447504e-06 -5.3220252334e-08 -2.7167816734e-06 -8.0597806231e-07 8.446070415e-07 -6.1649027315e-07 4.545508809e-07 -1.9620424481e-06 
-1.4044348919e-06 -1.3602316144e-06 -1.3019940769e-06 1.8980562369e-06 -1.4386778682e-06 -5.6163931068e-06 -1.4682754877e-06 1.469862635e-06 -2.7504925593e-06 
5.1312789106e-08 -5.6206650848e-07 1.5115238742e-06 -7.7676480585e-06 -8.3673240966e-07 -6.4753599309e-06 3.7320818745e-06 -6.8053158299e-06 1.387895113e-07 
9.4785588454e-07 1.3754741573e-06 -7.6496416164e-07 6.8499403947e-06 -1.437562852e-06 -1.6246936377e-06 2.5213306918e-06 3.9095698902e-06 -6.6254101278e-06 
-6.7425627205e-08 3.4872937324e-07 4.3688755993e-07 4.5782919593e-07 -1.6203656943e-06 -1.1967024196e-06 -2.1613165053e-06 -1.0321708712e-06 3.8297135155e-06 
-1.9402537421e-06 9.5511832774e-07 -8.1188752698e-07 1.7630621931e-06 3.9307253038e-07 8.8943174898e-07 -5.2657625838e-07 3.2677729059e-06 -2.8731426179e-06 
-1.3570905712e-06 1.1326288464e-06 4.3955219368e-07 -2.4686014886e-06 2.2609582562e-06 -4.3997399023e-06 -1.2699706979e-06 3.5287847583e-07 -6.8674015433e-07 
8.0993451356e-07 6.6746172997e-07 -2.4186735264e-07 5.6519858278e-07 -4.4454428461e-06 -1.1709829106e-06 -8.9465710265e-07 -1.1387377011e-07 5.563403859e-07 
1.1317643072e-06 -1.6948462324e-06 3.201616246e-08 -3.7440161638e-06 2.0996630015e-06 2.8393254608e-06 5.9816412757e-07 1.2032207922e-06 -1.2354460575e-06 
-1.0640343479e-07 -1.793380956e-06 -1.6662633974e-06 3.7673674882e-07 -6.4697753162e-07 -4.7899362184e-07 7.6917633748e-07 -2.6747603474e-07 1.7068429397e-06 
-6.7077109616e-08 -1.1529740694e-07 -5.1007045521e-07 2.2414323402e-06 -1.7835777152e-06 4.9391252392e-06 -2.6189554489e-07 1.8841934059e-06 2.6824837692e-06 
2.1555264758e-06 -1.7542943505e-06 -1.226564517e-06 5.9508324077e-08 -1.177290385e-07 -5.0835430642e-07 -4.2635101619e-07 9.0281706641e-07 2.7225334366e-07 
-2.6334714446e-06 1.0937524039e-06 -1.0099519535e-06 2.3046214247e-06 -7.3291021953e-07 -3.1426258581e-06 5.1485332353e-07 -1.016285313e-06 -4.6665766394e-06 
-7.2548655184e-08 4.7691535984e-07 -7.7316469199e-07 3.4330506825e-07 7.4189453577e-08 8.7730963069e-08 2.7878410536e-07 1.7759986414e-06 -4.4474141509e-07 
1.1918805328e-07 4.8113299854e-07 6.2645285873e-07 1.4061331213e-08 -1.6749632418e-07 -1.995138179e-07 -6.7644641124e-07 1.2879440314e-06 -1.3491551745e-06 
2.9162443142e-07 -9.0557163018e-07 9.0525290263e-07 -5.7958608581e-08 1.143702784e-07 -4.8831878216e-07 7.8506853127e-07 1.1242707418e-07 -1.200017735e-07 
-1.2441183178e-06 -1.2592960224e-06 2.6068203546e-07 -3.5630639065e-07 -1.952225765e-09 -1.2139813571e-07 -8.073528165e-07 -2.8148494863e-07 -3.8397674254e-07 
-4.4184186676e-07 -7.1200102258e-07 -4.8514279175e-07 4.5878315364e-07 -1.9890697988e-06 -6.5747674403e-07 -2.2914365663e-07 -8.4351650204e-07 1.0243217866e-06 
6.7752184156e-07 -1.5445124128e-07 -7.032546983e-07 4.3731642397e-07 5.9095055838e-07 -9.2970229013e-07 1.9845155775e-07 4.5334985622e-07 -1.4589418028e-07 
3.3846451538e-07 1.498091106e-07 -6.2153278025e-07 -1.3197449152e-06 -2.4564481863e-07 -1.0163964101e-06 -1.1963047306e-06 2.11527398e-08 -8.4936144139e-07 
-3.7307604736e-07 -4.0949072544e-07 -5.1990507635e-07 4.3287264747e-08 -6.5852764672e-07 3.451441603e-08 -2.49622714e-07 3.5246181366e-07 1.1004876687e-06 
-5.247981822e-07 -6.2789573811e-07 1.180461666e-07 1.6472992155e-08 -5.2779387503e-07 2.2781132806e-07 -1.3644502009e-07 -6.2315431141e-07 1.0760016334e-07 

f 3 69 double
0.00024545892965 -0.00010093570198 0.00064145940599 0.00058279619819 -0.0002102549309 0.00024537058713 -0.0002048980812 6.1362128691e-05 0.0004790424542 
0.00018467397205 0.0002892648103 3.6193349926e-05 0.00023553523353 0.00029819307034 0.00010152603623 0.00075389880978 -0.00013451455361 0.00065377037088 
-0.00016157346726 3.9428265398e-05 0.00014459799719 0.00025905387169 0.00034885017071 0.00075889515404 -0.00041861109819 -0.00058902340512 -0.00065427122809 
2.0271618364e-05 0.00021179977307 0.00014806202677 2.4751195258e-05 -0.00051014718923 0.00045937043843 -0.00012799853796 0.00046888863412 0.00013800098324 
-0.00043090226269 -3.2900495217e-05 0.00014907629517 -0.00035644041871 -0.00046606811328 0.00011429299031 -0.00081442812582 0.00018789571175 6.1011093053e-05 
0.00020247821701 0.00077292963477 -0.00032702891769 0.00021890048427 -0.00010360783001 0.00041663506016 -0.00041231419966 0.00015413339007 0.00015244409368 
-0.00017206655876 8.6700417142e-05 -0.00048092761182 0.00010483228454 -0.00010451919557 0.00020907447415 3.5719285922e-05 -0.00036710482575 0.00076751436138 
0.00010369213734 -1.6499407331e-05 -0.00016265799467 -0.00011100014542 8.702598364e-05 -9.803290193e-05 -0.00015969807559 -1.4537917225e-05 8.6441169278e-05 
-0.00027419869035 -0.00033760939963 -0.00037843249556 0.00074287536888 0.00033231862822 -0.00017725388058 -3.4773074895e-05 0.0003165824201 0.00010665144163 
-0.00020146916873 -0.00013657075669 9.0370526563e-05 0.00023565918275 0.00054995807781 4.1396229788e-06 -0.00022955632248 0.00087521925006 0.00017564272086 
9.8610177995e-05 0.00044326348133 0.00012840702032 -1.3425559306e-05 8.1019216258e-05 -0.00017338866349 -1.8807550787e-05 -2.6350349505e-05 0.00017573020652 
-6.4050884189e-05 -9.7998035721e-05 0.00029242936683 -0.00016345218293 -0.00035289183648 -5.9759984232e-05 -0.00022169614666 0.00021483146126 1.3048893896e-05 
-0.00010671658572 0.00011825377252 4.5968927357e-05 0.00014499996051 -3.8616091448e-05 2.9571752579e-05 0.00029793497374 -0.00019839673003 0.00025086910513 
-3.7786248642e-05 -1.099893234e-05 7.085902135e-05 -0.0001197635444 -4.8914555411e-05 -0.00012397136357 0.00084791481551 0.00018488616466 0.00010244484882 
-8.1806196231e-06 -5.5287006827e-05 -0.00013129380604 -6.2843058611e-05 0.00011619579353 0.00015318443776 2.0590049906e-05 4.0251164771e-05 5.04015596e-05 
2.4690607095e-05 0.00020799042847 5.381210118e-05 -4.3591774402e-06 -5.4487608648e-05 1.9412065541e-05 0.00017492228768 1.3936220515e-05 9.5077424258e-05 
6.9537375036e-06 -1.0774328895e-05 -3.4268626069e-05 8.5328166104e-05 0.000258020798 -6.7703014442e-05 9.6640715584e-05 0.000135288042 4.2954428076e-06 
9.0370698227e-05 -9.5201884759e-05 7.6684690924e-05 -6.0673378273e-05 -3.4940735048e-05 4.0294691353e-05 -2.3500996677e-05 2.5656442126e-05 0.00011280751066 
-4.4054115582e-05 6.1761134137e-05 -0.0002555538763 2.0576361399e-05 0.00021357790723 2.4094629435e-05 1.708332302e-05 1.2910081211e-05 -7.5004719998e-05 
-3.6232066474e-05 0.00012572991272 5.3404987005e-05 -0.00010692531044 -6.5006586384e-05 3.8112358823e-05 1.0026906038e-05 3.0882799436e-05 4.6550769504e-05 
-4.5377486864e-05 -1.376970207e-05 -8.0061965486e-05 -6.3002702667e-06 -1.8270227458e-05 8.4764536398e-05 2.1202343809e-05 -1.869319534e-06 -1.3089638332e-05 
-7.64332011e-05 -6.5776476486e-07 -1.3868255068e-05 2.8253110859e-06 1.4971090068e-05 -4.156559995e-05 0.0001162670907 7.1869793681e-05 9.7199293186e-05 
8.6396911164e-05 5.604086272e-05 4.7664723329e-05 2.7812731734e-07 -1.8741800292e-05 4.9369245809e-06 -1.8117094286e-05 -5.3537119687e-05 1.6336511003e-05 

radius 1 69 double
0.006 0.006 0.006 0.006 0.006 0.006 0.006 0.006 0.006 
0.006 0.006 0.006 0.006 0.006 0.006 0.006 0.006 0.006 
0.006 0.006 0.006 0.006 0.006 0.006 0.006 0.006 0.006 
0.006 0.006 0.006 0.006 0.006 0.006 0.006 0.006 0.006 
0.006 0.006 0.006 0.006 0.006 0.006 0.006 0.006 0.006 
0.006 0.006 0.006 0.006 0.006 0.006 0.006 0.006 0.006 
0.006 0.006 0.006 0.006 0.006 0.006 0.006 0.006 0.006 
0.006 0.006 0.006 0.006 0.006 0.006 
omega 3 69 double
0.0012255153532 0.00041714263849 -0.00026500681258 -7.444016657e-05 -0.0010793801105 0.0004230428358 0.00043184405319 -0.00072542298504 0.0013688666209 
0.0012047975549 0.00081564747776 0.00053630235985 0.0012288233556 0.0014763962451 -0.0012668351058 0.00070285828446 -0.00094893145992 -4.1700724742e-05 
-0.00031259784698 0.00090731668747 -0.00077020378739 0.00037843562288 -0.00024936499767 -0.00028329057532 -0.00025081682672 0.00015796671695 0.000377480238 
9.8201059212e-05 -0.00031549537211 0.00052305067645 0.00073734860977 -0.0018875128889 -0.0013039985603 -0.0014967408658 -0.00083173045206 3.5133752753e-05 
-0.00017740357755 0.00022966358424 0.00019582649293 0.00032618848899 -0.00088829093898 0.0010537415568 0.0017017500489 -0.0017555341919 -0.00036422221109 
7.0784132508e-05 -0.00033168661428 -0.00014787254736 2.7536373208e-06 -0.00080447271039 -0.00049436605995 0.00072786493881 5.9246465736e-06 -0.00055260520308 
0.00037399414805 0.0012320326188 0.0012722159807 5.6392530102e-05 -3.7785699626e-05 0.00028411487604 -0.00022434320905 -0.00038953748758 -0.0001369193093 
0.00098769629194 -0.00023342282567 -6.2615055948e-06 0.00036537167588 0.00062925635825 0.00049471655192 0.00066901142202 -0.00050349129869 -0.00011827619384 
-0.00033484140681 1.2289409045e-05 -0.00022845045133 -0.0013224578929 -8.3625409242e-05 -0.00014426276158 0.00040340465714 0.0010513577183 0.00064054654712 
0.00036784174618 0.00023411649129 -0.00021464428286 0.00023240516337 -0.00093409306238 0.00092846667545 -5.1125499271e-06 9.2766338601e-05 0.00011305094946 
0.00054319462333 -0.00058461789201 -8.4003307941e-05 0.0006026224279 0.00024466496863 0.0006541237246 0.0005766995611 0.00013187316632 -0.00025769993991 
-0.00050689608946 -0.00036865509313 0.00010181577424 -0.0012680372695 0.00032696102464 0.00074583237973 0.0005349587394 -0.00029203831409 -6.1135469096e-05 
0.00026712860708 0.00026738827255 -0.00017057275818 7.2841025689e-05 -3.4392607787e-05 -0.00051734493894 -0.00020868178621 0.00013682729639 8.9082426651e-05 
5.1681991274e-05 -3.3620850816e-05 0.00079119033655 -0.00082860416682 0.00027162317125 0.00083596242743 3.8319247365e-05 -0.00030370042401 0.00082803125838 
-0.00011077046503 0.00031526889084 9.5722228572e-05 0.00040428466292 -2.0995789938e-05 1.8529392034e-05 6.5292331407e-05 -0.00022059837809 -0.00036332498149 
6.2019788502e-05 0.00021120451659 -0.00011585426304 -0.00012147340453 -0.00014292043501 -0.00010751342064 7.5274846247e-05 -0.00016218389061 2.8737944271e-06 
0.00019167748599 0.00010108719691 0.00010981944036 0.0003602488864 -0.00032679991626 -0.00012792372709 -4.0995825846e-05 0.00049579500087 -0.00031829692046 
-0.0002758403036 0.00018377888355 8.9324802217e-05 8.8581703422e-05 -9.0390615634e-05 -0.00013792723581 -9.0051177085e-05 0.00038767873201 0.00027469004715 
-7.9765302485e-05 -0.00046232933486 0.00033487306052 -3.1932007756e-05 -0.00020506806316 7.6706504908e-06 -5.9619001154e-05 -0.00024396847957 -3.7340272434e-05 
0.00012283907328 -0.00015993597359 -0.0002346559926 0.00019629956273 3.7487094091e-05 9.0827912635e-05 -0.00020461389151 0.00020535257499 8.4002238952e-05 
-2.718913111e-06 6.9971201937e-05 -0.00022589688225 3.9774683614e-05 0.00044659812453 0.00023848849335 -2.7640921009e-05 0.00029430396261 0.00023839884622 
-0.00021982943471 0.00053368792631 7.6090633759e-05 -0.00022315039506 0.00012118964458 -0.00016133974216 0.00015260848947 6.9566997705e-05 0.00021409366216 
0.00013756993925 -0.00022107775706 5.5179516793e-05 -3.2613068167e-05 -0.00015607021061 5.0695001193e-05 4.5829303768e-05 -0.00017948263602 0.0001754848706 

