# vtk DataFile Version 4.2
Generated by LIGGGHTS
ASCII
DATASET POLYDATA
POINTS 70 float
0.00778084 -0.0167402 0.0181114 0.00311512 -0.0129808 0.0176796 0.0140882 -0.0112595 0.0173096 
-0.0163557 -0.00255347 0.017042 -0.0106298 0.00523121 0.0156687 0.00392901 0.00761032 0.0158419 
-0.0100568 0.0156787 0.0160458 -0.00283575 0.0111691 0.0149551 0.00734252 0.0145466 0.0182004 
0.0138674 0.0117946 0.0187678 -0.000250529 0.0217701 0.0191524 0.00312304 0.0180951 0.0157574 
0.00582286 -0.0210654 0.0282497 0.0106071 -0.0191149 0.0239201 -0.00817702 -0.0153246 0.0285852 
-0.0183951 -0.00785033 0.0274247 -0.0112556 -0.00347296 0.0230325 -0.00365554 -0.00488758 0.0286334 
0.0115782 -0.00498377 0.0223344 0.018354 -0.00826187 0.0221641 -0.0106571 0.00249131 0.0233038 
-0.0146881 0.00624503 0.0288169 -0.000207505 0.00162809 0.0277408 0.000371082 0.00383291 0.0221897 
0.00853759 0.00590676 0.0261935 0.0168028 0.00138872 0.0223469 0.00646567 0.0116796 0.0279225 
0.00804912 0.0201745 0.0226958 -0.011627 -0.0182548 0.0327475 -0.00536269 -0.0212685 0.0336824 
0.000835895 -0.021796 0.0354409 -0.00247808 -0.0163075 0.0302755 0.00664445 -0.0135557 0.0310209 
0.0138443 -0.0141131 0.029146 -0.0168056 -0.00148514 0.0309666 -0.0124363 -0.00557638 0.0314218 
-0.011114 0.00808414 0.033276 0.0188651 0.00683826 0.0339873 0.00441402 0.0213847 0.0295391 
-0.0131733 -0.0173766 0.0403051 0.00118731 -0.0166867 0.0433312 0.00597309 -0.0208432 0.0433206 
-0.016879 -0.0135768 0.0433437 -0.00372083 -0.00892853 0.0432234 -0.00797231 -0.0165594 0.0432572 
0.00586239 -0.00901017 0.0432945 0.0158118 -0.0147949 0.0430929 0.00957836 -0.0144947 0.0432355 
-0.0209931 -0.00105187 0.0433319 -0.020374 -0.00714143 0.0432453 -0.0104153 -0.00828439 0.0432886 
-0.00186674 -0.00189137 0.0433385 0.00598562 -0.00299152 0.0432508 0.0122749 -0.00816149 0.043109 
-0.0112134 0.00198252 0.0406006 -0.016436 0.00485613 0.0432751 -0.00555587 0.00293729 0.0432415 
-0.00181777 0.0018153 0.0384307 -0.00594856 0.00725122 0.0390727 0.00801463 0.0045448 0.043197 
0.0135997 0.00369462 0.0398191 0.0188484 0.00547713 0.043322 -0.0188682 0.0109032 0.0431063 
-0.0122521 0.0125857 0.0430594 -0.00482232 0.0156044 0.0428243 0.00800064 0.0136447 0.0433232 
-0.000147116 0.0115563 0.0433218 0.0140032 0.0156925 0.0426968 -0.0108999 0.0185583 0.0433357 
0.000645298 0.018121 0.0427093 
VERTICES 70 140
1 0 
1 1 
1 2 
1 3 
1 4 
1 5 
1 6 
1 7 
1 8 
1 9 
1 10 
1 11 
1 12 
1 13 
1 14 
1 15 
1 16 
1 17 
1 18 
1 19 
1 20 
1 21 
1 22 
1 23 
1 24 
1 25 
1 26 
1 27 
1 28 
1 29 
1 30 
1 31 
1 32 
1 33 
1 34 
1 35 
1 36 
1 37 
1 38 
1 39 
1 40 
1 41 
1 42 
1 43 
1 44 
1 45 
1 46 
1 47 
1 48 
1 49 
1 50 
1 51 
1 52 
1 53 
1 54 
1 55 
1 56 
1 57 
1 58 
1 59 
1 60 
1 61 
1 62 
1 63 
1 64 
1 65 
1 66 
1 67 
1 68 
1 69 

POINT_DATA 70
FIELD FieldData 7
id 1 70 int
436 44 401 3257 801 209 2836 1958 903 
292 2857 602 1401 1391 212 732 709 472 
388 573 2287 2199 672 535 1777 290 2611 
2180 952 1396 924 1507 657 1490 2676 911 
3144 1632 2712 851 2602 2301 3323 1459 2749 
1177 1511 2945 2208 3103 2454 2824 2015 2489 
2256 3312 2914 3036 2841 1168 1811 3042 2546 
1971 744 2664 2149 3277 3260 2133 
type 1 70 int
2 2 2 2 2 2 2 2 2 
2 2 2 2 2 2 2 2 2 
2 2 2 2 2 2 2 2 2 
2 2 2 2 2 2 2 2 2 
2 2 2 2 2 2 2 2 2 
2 2 2 2 2 2 2 2 2 
2 2 2 2 2 2 2 2 2 
2 2 2 2 2 2 2 
i 3 70 int
0 0 0 0 0 0 0 0 0 
0 0 0 0 0 0 0 0 0 
0 0 0 0 0 0 0 0 0 
0 0 0 0 0 0 0 0 0 
0 0 0 0 0 0 0 0 0 
0 0 0 0 0 0 0 0 0 
0 0 0 0 0 0 0 0 0 
0 0 0 0 0 0 0 0 0 
0 0 0 0 0 0 0 0 0 
0 0 0 0 0 0 0 0 0 
0 0 0 0 0 0 0 0 0 
0 0 0 0 0 0 0 0 0 
0 0 0 0 0 0 0 0 0 
0 0 0 0 0 0 0 0 0 
0 0 0 0 0 0 0 0 0 
0 0 0 0 0 0 0 0 0 
0 0 0 0 0 0 0 0 0 
0 0 0 0 0 0 0 0 0 
0 0 0 0 0 0 0 0 0 
0 0 0 0 0 0 0 0 0 
0 0 0 0 0 0 0 0 0 
0 0 0 0 0 0 0 0 0 
0 0 0 0 0 0 0 0 0 
0 0 0 
v 3 70 double
-0.025638877277 -0.0068408733985 -0.19213354047 -0.015498599953 -0.0029550087085 -0.18524079739 -0.02310142748 -0.022136098756 -0.19202984416 
-0.0021458577721 -0.010266981012 -0.19005349193 -0.01373028662 -0.012853238481 -0.19400547079 -0.02002600308 0.00018726579607 -0.18954187007 
-0.029070450801 -0.019108659891 -0.18968449583 -0.021088826897 -0.0057017725328 -0.18134464252 -0.028893607644 0.0089034661938 -0.19453366802 
-0.017213578265 0.010907573895 -0.19997419083 -0.042666066979 0.0039361874044 -0.2019338788 -0.035772549532 0.0056156861404 -0.19250809681 
-0.0049481508131 -0.019505517771 -0.19746350564 -0.018875098831 -0.014970339195 -0.18170587285 -0.001290523995 -0.00236345345 -0.19452097709 
-0.0088807769201 -0.0055146793118 -0.1916930819 -0.0022894185845 -0.0039978564642 -0.18651607642 0.01470247803 0.017984695075 -0.17783727587 
0.0012106410716 -0.011759490814 -0.20257766296 -0.0074328057203 -0.015960805463 -0.20225664863 -0.0008128465226 -0.0071650724383 -0.17966523995 
-0.0065646839874 0.0039690082762 -0.18292409664 -0.0048352511745 0.010145564116 -0.20069731432 -0.0040033196872 0.0013094146174 -0.18489423714 
0.014157264893 0.0060688638331 -0.20331582861 0.0001029249049 -0.0073258161795 -0.22533692675 0.016892334238 0.012070365006 -0.1930707972 
-0.034454092759 0.011171796074 -0.19889629992 0.038766196582 -0.061456812171 -0.18571743919 0.014457729171 -0.01333548265 -0.18725123615 
0.0096623031004 0.016027910574 -0.20980007667 0.014438388194 0.014292018622 -0.16385310389 0.028953397055 0.013307042265 -0.15585933762 
-0.013561248247 -0.016703665143 -0.18213830663 -0.0070672584216 0.02225159938 -0.19086567964 0.029542006802 0.012320716586 -0.21438758718 
-0.023111544861 -0.075948112031 -0.17006579206 0.029817296465 -0.080919253575 -0.22436363545 -0.011486841655 0.01269117032 -0.2012754599 
-0.011289300055 -0.1286250405 -0.34868411955 -0.0025653817943 0.11167918206 -0.32260899321 0.15608185231 0.037793821657 -0.21909742032 
-0.069608498365 -0.048050611021 -0.32585366472 0.16407310016 0.056707353715 -0.3686577436 0.11058516863 0.0096546506893 -0.41606088517 
0.088783461176 0.0099629806434 -0.43333567906 0.13760299086 -0.13591333243 -0.46736890627 0.044387164861 -0.03475883864 -0.4305811879 
-0.034837859135 0.006100353277 -0.27455242949 -0.12613279655 -0.10795274675 -0.38355289997 0.07127876158 -0.10023145507 -0.32806704108 
0.030174509353 -0.067294045996 -0.36008178623 0.040199333988 0.025349738636 -0.28445741721 0.17965963283 0.060319268347 -0.31794674277 
0.08106868014 0.15811091582 -0.25327214993 -0.070190611469 0.0093068259309 -0.45722432571 -0.02880131733 0.069726640371 -0.42302797742 
0.055011054396 0.01487577306 -0.25011865705 0.034950714896 0.096007106774 -0.2663486432 0.12543334655 0.087856307255 -0.42549851075 
0.08504026013 0.082220472767 -0.23384011904 -0.029563668863 -0.17122367959 -0.26939273444 0.045684349124 0.11119865564 -0.47623303314 
-0.017429410385 0.12315975152 -0.37186938429 -0.11210128569 -0.122702922 -0.3717646178 0.026857784158 -0.060935206667 -0.33190279483 
-0.21418998579 -0.034540266447 -0.36868071045 -0.01039794941 -0.016530745497 -0.17193198465 0.027698535347 0.0328732447 -0.15397483061 
0.18962270588 0.13763337016 -0.24101766777 
f 3 70 double
-0.001635980205 0.0003249025437 0.0016635086661 0.00025290441571 -0.00044165367473 -0.00038382588581 -0.00022184884868 0.00075273519699 0.00076427902822 
-0.00084862766479 0.0011850883169 -0.00029670557164 0.00017680680832 0.00020340187329 -0.00040978196167 4.8663261268e-06 -3.3459318916e-06 -0.00031767843562 
0.0014814962363 -0.00041053127005 -0.00050301103407 0.00022091182422 -0.00015239725868 -0.00018696335989 7.0600899588e-05 -3.1215617568e-06 -0.00023860542147 
0 0 -0.00027737121539 0.00019882720847 -5.9066694135e-05 2.8745503449e-06 0 0 -0.00027737121539 
-0.0037871403099 0.0034503872627 0.0028270378211 -0.0023164803592 0.003414747084 -0.00032255525311 7.5496257946e-05 0.0022004989799 -0.0013600807486 
0.00072792500686 -0.0022464949266 0.0020682983893 -0.0025082454011 -0.00051452452957 -0.0023873738811 -0.0042393499252 -0.0012257527853 -0.00043195759294 
0.0026072433761 0.00019336429656 0.0022271528416 0 0 -0.00027737121539 -0.0018165095847 -0.0012004639332 -0.0022554164771 
0 0 -0.00027737121539 -3.3474327834e-05 0.0011358401881 -0.0044138184176 0.00040318426911 -0.00076997635649 -6.9420362644e-05 
-1.0433095133e-05 2.3672517075e-06 -0.00027482474083 0.0013082973513 -0.001022344986 0.0057155361117 0 0 -0.00027737121539 
0 0 -0.00027737121539 0.05917197157 0.0018646746553 0.012946612273 0 0 -0.00027737121539 
0 0 -0.00027737121539 0 0 -0.00027737121539 0 0 -0.00027737121539 
0 0 -0.00027737121539 0 0 -0.00027737121539 0 0 -0.00027737121539 
-0.00051367193509 -0.00047946615852 -0.00035640602876 0.00027209270764 0.0001221699697 0.0011613776977 -0.014909853371 0.0016974025223 0.0015232174043 
0 0 -0.00027737121539 0 0 -0.00027737121539 0 0 -0.00027737121539 
0 0 -0.00027737121539 0 0 -0.00027737121539 0 0 -0.00027737121539 
0 0 -0.00027737121539 0 0 -0.00027737121539 0 0 -0.00027737121539 
0 0 -0.00027737121539 0 0 -0.00027737121539 0.0017288817913 0.0024415806418 -0.00052772616484 
0 0 -0.00027737121539 0 0 -0.00027737121539 0 0 -0.00027737121539 
0 0 -0.00027737121539 0.00038003512403 0.010665501169 0.016695844393 0 0 -0.00027737121539 
0 0 -0.00027737121539 0 0 -0.00027737121539 0 0 -0.00027737121539 
-0.0053708129827 -0.003916744552 -0.0020094851435 0 0 -0.00027737121539 0 0 -0.00027737121539 
0 0 -0.00027737121539 0 0 -0.00027737121539 0 0 -0.00027737121539 
0 0 -0.00027737121539 0 0 -0.00027737121539 0 0 -0.00027737121539 
0 0 -0.00027737121539 
radius 1 70 double
0.003 0.003 0.003 0.003 0.003 0.003 0.003 0.003 0.003 
0.003 0.003 0.003 0.003 0.003 0.003 0.003 0.003 0.003 
0.003 0.003 0.003 0.003 0.003 0.003 0.003 0.003 0.003 
0.003 0.003 0.003 0.003 0.003 0.003 0.003 0.003 0.003 
0.003 0.003 0.003 0.003 0.003 0.003 0.003 0.003 0.003 
0.003 0.003 0.003 0.003 0.003 0.003 0.003 0.003 0.003 
0.003 0.003 0.003 0.003 0.003 0.003 0.003 0.003 0.003 
0.003 0.003 0.003 0.003 0.003 0.003 0.003 
omega 3 70 double
-1.4850228688 2.0499729758 -0.24402155051 0.43773667741 0.10875006707 -1.1605404873 -2.8219771303 2.8893162913 0.10057736189 
-0.051544005097 0.051934512511 1.6767440667 0.24316246533 -0.015055696879 1.7458033854 0.31390820526 1.6907790835 0.72244500763 
0.10832956201 0.16470767236 2.3300470293 -0.42321660945 0.37904327532 1.9958866765 0.84307541184 -0.1624106437 2.559281248 
2.043865703 1.6119965115 1.0434001603 -0.6156517821 4.2368787586 0.66661155172 0.84776383252 -0.71741404449 0.86591415494 
4.5617815047 3.12456968 8.0621488954 -2.0522081324 0.65103046588 -1.1993064436 -1.1207778097 -0.20235507921 -5.1584192701 
-5.6574813725 7.7362662582 -4.927298102 -2.8272885315 4.6838780373 -2.6897793637 -4.4400378762 2.2329775359 0.81902653312 
-0.96323685374 3.3354491027 0.17732987293 -1.1004834644 -1.2541760354 0.060798883281 -2.7285427167 0.1808288363 2.3835502518 
-2.8963659878 1.7953007661 0.54762071663 -3.4617586235 0.9172436429 -0.35380331889 -1.3625855865 -0.39355580156 0.94831298116 
0.10978381813 3.8024820023 1.0025664757 -0.8040070378 1.8511335079 0.37209249455 -0.56858330923 4.1495097561 3.0572112914 
2.2798291407 -1.3156595784 5.8837786119 23.556739123 -29.590771301 -4.3060116536 -16.13479097 5.9457402318 -10.635362653 
-1.1455185334 17.294710323 0.98426617457 0.54980745775 9.0859284955 0.026541014524 -0.55934076012 -7.7759886414 2.5692424145 
-0.82127563599 -7.6283905994 -6.542684907 8.4269606612 7.0884981378 3.0385161056 -1.4667673663 1.5056490914 8.947794524 
-14.971045814 5.2853416391 8.9695138324 17.224773081 -16.708595023 -1.6473167986 0.67945040477 0.73434624492 -0.46902005849 
14.988468817 2.4401173944 2.4694959359 -18.793129447 -12.448159869 16.033729996 -10.279047967 31.510583599 1.1489016835 
11.348352019 -2.5104197089 -7.705683528 14.256415346 34.194177557 -0.76996394438 -34.042075634 -2.8762280191 -1.1550598391 
-13.329245623 -4.2710494326 -8.7137241192 -18.04681802 9.8105203296 -29.580828533 -15.716024589 -24.208263729 -29.940201252 
36.611701028 10.662534838 15.847392013 1.9527898998 -2.1675011521 -47.741869212 -9.4064764332 3.6469761103 -2.8033955677 
-18.3753185 -21.196858454 -6.7797460425 -2.479622355 36.580450681 -15.791249682 72.233018907 35.914537613 11.308583308 
18.935454167 13.521701038 19.29549817 1.2194592165 -8.5183695755 -18.417116721 -24.701148157 -20.134044474 -35.48666171 
-1.1987064949 -29.160959261 -6.9342428174 -3.2551307993 -4.8268414957 3.9647570095 -7.1570421852 37.549544126 0.2850733665 
3.7009105993 -5.5859956131 2.8727797969 26.592054436 6.2080314276 27.789337957 5.4321022607 6.5250575688 -27.05097162 
2.4354676164 -2.4544241147 -8.613438665 17.505355024 6.3199459511 32.657424171 -13.414448859 -13.44721399 -31.570434527 
10.346907774 -29.69400264 -9.3245451304 31.854700168 66.768631668 -2.5821896325 5.0409406408 -29.288777924 -26.689237409 
-10.311214716 -52.90601042 3.8383767973 
