# vtk DataFile Version 4.2
Generated by LIGGGHTS
ASCII
DATASET POLYDATA
POINTS 70 float
0.00441441 -0.0116173 0.011442 0.0096695 -0.015925 0.0130291 0.0153163 -0.0108121 0.0138517 
-0.0164837 -0.00205057 0.0133819 0.0166333 -0.00084723 0.0138994 -0.0129626 0.00352795 0.00955227 
0.000961087 0.00671691 0.00828643 -0.0129319 0.0112141 0.00932966 -0.00557624 0.00939206 0.00799992 
0.00368237 0.0142182 0.0105575 0.0111429 0.0108306 0.00915207 -0.00638765 0.0209073 0.0100708 
-0.00158267 0.017881 0.00813468 -0.0170535 -0.00932418 0.0158003 -0.00631632 -0.0159554 0.0172485 
0.0175774 -0.00963266 0.0209899 -0.0107768 -0.00429647 0.0181551 0.011506 -0.00493761 0.0174335 
-0.0108175 0.00159421 0.0197317 -0.000413926 0.00389745 0.0158015 0.000328748 0.00191977 0.0214452 
0.00827272 0.00715264 0.0178924 0.00615255 0.0128304 0.0187444 0.00557113 0.0212041 0.0149305 
-0.0122663 -0.0103056 0.0248506 0.00333893 -0.0104844 0.0293159 -0.00237353 -0.00506303 0.0242491 
0.00151982 0.00617263 0.0297517 0.015777 0.00389332 0.0295025 0.0103054 0.0193012 0.0301938 
-0.0104778 -0.0169451 0.033262 -0.00239066 -0.0217221 0.0344063 0.00535646 -0.0182455 0.0317149 
0.0113071 -0.0187073 0.034798 -0.0149627 -0.0139266 0.0363024 -0.00784217 -0.0113509 0.0320116 
0.000503857 -0.0130383 0.0344814 0.00673007 -0.00956252 0.0343254 0.0103871 -0.0138368 0.0312792 
0.0162952 -0.0146222 0.0322299 -0.0183964 -0.00643753 0.0357572 -0.0120353 -0.00579444 0.0357716 
-0.00297803 -0.00766542 0.0343358 0.00305122 -0.00489983 0.032366 0.00299914 0.000429013 0.0363003 
0.0114561 -0.00563614 0.0335331 0.0215225 -0.00404149 0.0309813 0.0172781 -0.00767584 0.0338483 
-0.0208697 0.000206439 0.0353162 -0.0205162 0.00671829 0.034478 -0.0146026 0.00784888 0.0314499 
-0.00614965 0.00610934 0.0315039 -0.00219073 0.00371281 0.0357881 0.00694702 0.00542123 0.0366564 
0.0098794 0.000317998 0.0342106 0.015994 2.43968e-05 0.0380046 0.0216562 0.00265526 0.0328586 
-0.0177967 0.0121579 0.0349992 -0.0103011 0.015359 0.031751 -0.00810502 0.0101194 0.0359141 
-0.00218324 0.00985094 0.0341164 0.0055225 0.0150315 0.0310591 0.000429997 0.0153094 0.0342319 
0.0149156 0.0154815 0.0306197 0.010214 0.0091964 0.0314887 0.0135007 0.0124522 0.0357877 
0.0200095 0.00904323 0.0340243 -0.00134979 0.0214418 0.0324053 -0.00637949 0.0196758 0.0352219 
0.00478955 0.0213347 0.0317713 
VERTICES 70 140
1 0 
1 1 
1 2 
1 3 
1 4 
1 5 
1 6 
1 7 
1 8 
1 9 
1 10 
1 11 
1 12 
1 13 
1 14 
1 15 
1 16 
1 17 
1 18 
1 19 
1 20 
1 21 
1 22 
1 23 
1 24 
1 25 
1 26 
1 27 
1 28 
1 29 
1 30 
1 31 
1 32 
1 33 
1 34 
1 35 
1 36 
1 37 
1 38 
1 39 
1 40 
1 41 
1 42 
1 43 
1 44 
1 45 
1 46 
1 47 
1 48 
1 49 
1 50 
1 51 
1 52 
1 53 
1 54 
1 55 
1 56 
1 57 
1 58 
1 59 
1 60 
1 61 
1 62 
1 63 
1 64 
1 65 
1 66 
1 67 
1 68 
1 69 

POINT_DATA 70
FIELD FieldData 7
id 1 70 int
44 436 401 3257 290 801 209 2836 1958 
903 292 2857 602 732 212 573 709 388 
2287 535 672 1777 2611 2180 911 1507 472 
2914 1511 3323 3103 952 3144 2301 2841 1396 
1971 2133 1459 851 2489 2749 2454 2256 2676 
2149 1490 1391 1177 3277 2208 2546 2824 3260 
2664 657 2015 3036 3042 2199 1811 1168 744 
924 1401 2602 2945 3312 2712 1632 
type 1 70 int
2 2 2 2 2 2 2 2 2 
2 2 2 2 2 2 2 2 2 
2 2 2 2 2 2 2 2 2 
2 2 2 2 2 2 2 2 2 
2 2 2 2 2 2 2 2 2 
2 2 2 2 2 2 2 2 2 
2 2 2 2 2 2 2 2 2 
2 2 2 2 2 2 2 
i 3 70 int
0 0 0 0 0 0 0 0 0 
0 0 0 0 0 0 0 0 0 
0 0 0 0 0 0 0 0 0 
0 0 0 0 0 0 0 0 0 
0 0 0 0 0 0 0 0 0 
0 0 0 0 0 0 0 0 0 
0 0 0 0 0 0 0 0 0 
0 0 0 0 0 0 0 0 0 
0 0 0 0 0 0 0 0 0 
0 0 0 0 0 0 0 0 0 
0 0 0 0 0 0 0 0 0 
0 0 0 0 0 0 0 0 0 
0 0 0 0 0 0 0 0 0 
0 0 0 0 0 0 0 0 0 
0 0 0 0 0 0 0 0 0 
0 0 0 0 0 0 0 0 0 
0 0 0 0 0 0 0 0 0 
0 0 0 0 0 0 0 0 0 
0 0 0 0 0 0 0 0 0 
0 0 0 0 0 0 0 0 0 
0 0 0 0 0 0 0 0 0 
0 0 0 0 0 0 0 0 0 
0 0 0 0 0 0 0 0 0 
0 0 0 
v 3 70 double
0.024337774446 0.016999068692 0.38994810314 0.038999167472 0.035202394429 0.39795014293 0.023802908921 0.039894697406 0.39513972732 
-0.0146076664 0.044277525632 0.35360473757 0.010467218411 0.021236306874 0.40810271543 -0.01652581126 -0.0023876716661 0.37147506886 
0.01628294694 -0.0080388278101 0.38920118988 0.015558575831 -0.00519170591 0.36018828117 0.024097571793 0.0032838583899 0.39234639678 
0.038124755778 -0.014119853522 0.39248440044 0.013468774785 -0.0037355961975 0.41684236666 0.059281070333 0.019799445141 0.3919028756 
0.051620676399 0.0013581501714 0.38805291362 -0.0058374642169 0.013479614166 0.26927794441 0.0074955707909 -0.021533226998 0.37901511989 
0.022833404823 0.046418535447 0.43934964036 -0.017512467768 -0.032297499791 0.32308807209 -0.011710691082 0.019423305596 0.41397303083 
-0.028930857858 -0.0048277492168 0.32607621812 -0.0071069824005 -0.0024183360433 0.37448803949 -0.044216383252 -0.022800456478 0.37504792381 
-0.023482688412 -0.010889737425 0.41022897254 -0.028351802504 -0.01844431416 0.41291713697 0.044504773213 -0.011473576133 0.39415987986 
-0.017737334679 0.0030056025302 0.30312874164 0.15914726326 0.090960556154 0.2752976711 -0.0081627570318 -0.0075861590779 0.37107225207 
-0.034955760824 -0.20199755018 0.33588582236 0.044970184162 0.090225728047 0.25071707501 0.21367378658 0.060804599492 0.51135973733 
0.033438762508 -0.064404152881 0.32798291749 -0.10736551173 -0.037258473272 0.15425676761 0.32109621323 0.11580174961 0.24413679197 
0.10449425547 0.15401513169 0.56382909083 -0.0068237693712 -0.0041811247767 0.65696360596 -0.14882375707 -0.035445980675 0.3731462403 
0.14646136577 -0.0064227712356 0.41981962019 0.088434272193 -0.025956491766 0.45042020078 -0.020387675114 -0.0022935639349 0.3771785796 
0.084236484154 0.15373279429 0.38770396698 0.016432349099 0.082972068384 0.56342916079 -0.044847336272 0.11943692104 0.39491270361 
0.082502956025 -0.033216837217 0.44171859359 0.14725993382 0.02894975956 0.56347688799 0.23828847808 0.32215541962 0.68662326308 
0.24107840583 -0.163487839 0.62042532827 0.090260439666 0.00070324149936 0.40401079311 0.083410506035 0.3663041252 0.42155988183 
0.12787739621 0.027861767059 0.73071936899 -0.081660716476 0.062376834088 0.54964138866 -0.035596737334 0.021672558212 0.43748922489 
0.03722995526 -0.021315416095 0.43768317913 0.075238868188 0.078274598502 0.54719204003 0.1383145679 -0.10427761508 0.71092518677 
-0.02411672573 0.18095017675 0.45487440233 0.042726527105 -0.24471519491 0.60193683313 -0.08083863436 0.14927208629 0.61409282678 
-0.085219789007 0.00335892514 0.67354194312 0.15300411169 0.11265285261 0.45864231326 -0.090758806925 0.31715357249 0.58487005835 
0.20605761913 0.050445761458 0.56167745749 0.033430514584 0.029850527783 0.55833266832 0.33682605047 0.12184816767 0.55791848065 
0.065383206748 0.012109055993 0.59300653449 -0.11532657273 0.073742305482 0.45992799652 0.012671651772 -0.047695523934 0.52268934776 
-0.060481952618 -0.28371699089 0.59911849148 -0.20283101868 0.066661076978 0.46580076714 0.13932427883 -0.23792230025 0.55217678049 
-0.035929687411 0.10829957628 0.45270163009 
f 3 70 double
0.0022224633597 -0.0013966852002 0.0006822527696 -0.0010701229389 -0.0043564416574 0.0038150644965 -0.0024115828955 0.0028173374829 0.0013273535429 
-0.0023635720875 -0.00088011791794 0.002533681807 -0.00092302555788 -0.0043770724992 0.0039534722795 -0.0032627172977 -0.008319027688 0.0037642247009 
0.0041035789288 0.00059752610346 -0.00086644259877 -0.0048920587172 -0.0041183496663 0.0078321806341 -0.003045782126 0.0032052934944 -0.007768218636 
-0.0029351476836 -0.00044467119275 0.0013358543548 0.0047106848428 0.0014899787523 0.0012850005778 -0.0019558279088 0.0011016147879 -0.0042000187433 
0.00032714808898 0.0041246614163 0.00098597536138 0.0070250697493 0.0076384211198 -0.0044002600816 -0.0011566416121 0.00083686239976 -0.00085081370569 
-0.0023842106761 0.00087918891373 0.00087093527159 0.0042114875657 -0.0004292861111 0.00116026449 0.0072226771323 -0.003935548084 0.011662675346 
0.0031825631752 -0.003017540233 0.0023812517037 0.0024585127524 -0.0030220552699 0.0011980735402 0.0034359335207 -0.002864694447 -0.0014760490551 
0.0047928083525 -0.0015439237453 0.0035585308878 -0.0080123255564 -0.0050335181266 -0.0081410175918 0.0070240237998 0.0018079542709 -0.0009918178365 
0 0 -0.00027737121539 0 0 -0.00027737121539 -0.00074499850553 -0.00082472396535 -0.00021356545053 
0 0 -0.00027737121539 0 0 -0.00027737121539 0 0 -0.00027737121539 
-0.11437283162 -0.044476660861 0.10661784968 0 0 -0.00027737121539 0 0 -0.00027737121539 
0 0 -0.00027737121539 0 0 -0.00027737121539 0 0 -0.00027737121539 
0 0 -0.00027737121539 0 0 -0.00027737121539 0 0 -0.00027737121539 
0 0 -0.00027737121539 0 0 -0.00027737121539 0 0 -0.00027737121539 
0 0 -0.00027737121539 0 0 -0.00027737121539 0 0 -0.00027737121539 
0 0 -0.00027737121539 0 0 -0.00027737121539 0 0 -0.00027737121539 
0 0 -0.00027737121539 0 0 -0.00027737121539 0 0 -0.00027737121539 
0 0 -0.00027737121539 0 0 -0.00027737121539 0 0 -0.00027737121539 
0 0 -0.00027737121539 0 0 -0.00027737121539 0 0 -0.00027737121539 
0 0 -0.00027737121539 0 0 -0.00027737121539 0 0 -0.00027737121539 
0 0 -0.00027737121539 0 0 -0.00027737121539 0 0 -0.00027737121539 
0 0 -0.00027737121539 0.20352811674 0.1215108774 -0.00046043112247 0 0 -0.00027737121539 
0 0 -0.00027737121539 0 0 -0.00027737121539 0 0 -0.00027737121539 
0 0 -0.00027737121539 
radius 1 70 double
0.003 0.003 0.003 0.003 0.003 0.003 0.003 0.003 0.003 
0.003 0.003 0.003 0.003 0.003 0.003 0.003 0.003 0.003 
0.003 0.003 0.003 0.003 0.003 0.003 0.003 0.003 0.003 
0.003 0.003 0.003 0.003 0.003 0.003 0.003 0.003 0.003 
0.003 0.003 0.003 0.003 0.003 0.003 0.003 0.003 0.003 
0.003 0.003 0.003 0.003 0.003 0.003 0.003 0.003 0.003 
0.003 0.003 0.003 0.003 0.003 0.003 0.003 0.003 0.003 
0.003 0.003 0.003 0.003 0.003 0.003 0.003 
omega 3 70 double
-1.5900903778 -1.3381122926 2.0666373163 0.42364343321 2.3191219305 4.0950776399 -1.7711426583 -0.029923422916 2.5602895259 
-1.8788903498 -6.5236294973 -2.3895001145 1.5124432973 0.97115080557 8.7476794317 0.47362665749 -1.6441490493 -4.4493730516 
-1.5633389609 -0.0067283912676 -1.1267077732 -2.3969591013 -0.25945439548 1.0278766072 0.30690255354 -2.6151045778 1.815455805 
-3.5378189943 -4.4872203377 -3.0384991625 -6.7715091324 -5.903197798 -2.5144840323 1.9011794323 -1.1067964983 -4.0141051819 
1.3883199537 -0.66576078731 -4.8021955271 5.3440966133 1.6466282815 -3.7558047181 -2.9406078496 3.7482003967 -3.0914326616 
-4.3843843979 10.349285353 1.4100087277 4.6015683824 -1.0554006991 0.5633877328 1.2667663524 -8.2407560113 6.1500703216 
10.418886633 -14.483613739 -8.2550831466 2.3444068693 -5.1781247136 -2.3501856547 8.6757628201 0.14502154768 1.4152164136 
-1.6001330297 -6.7979114038 -0.13444886484 10.346212944 -6.406947338 2.2137604121 -6.212439239 2.965150648 -9.5187443028 
13.987764239 -20.118510468 4.5887526296 -19.848776901 -39.91248054 40.18714776 -0.8377435006 9.0559032401 7.951685952 
-5.7849427436 50.649289008 -42.451465813 -4.1725076639 20.93059662 15.256566871 57.954940235 -2.9262227521 -11.886753229 
87.50923151 2.4665328956 4.6431656551 -14.665546947 32.965001196 -21.860874065 53.387138097 -81.905950916 -6.5039525689 
-24.670954065 69.535364016 -21.564806595 109.75601889 14.825064824 -72.058119299 37.598980236 24.879369912 -9.1119579824 
23.002265974 -3.0942623009 75.894981922 6.6647701395 -34.873199377 -7.3131459863 37.055677571 -10.086707709 -27.748733919 
-13.27287659 -4.469063978 4.5401419793 8.9809355299 -24.038584689 3.4682482638 10.878576584 68.383415593 -33.948598876 
-50.463965967 17.303065912 -28.683028383 50.780646821 -8.8825832106 -10.063767363 -9.5245489368 42.208441462 -43.413200785 
-34.749902775 -37.193765588 29.480462375 53.190390475 6.9817838155 -15.486050289 -85.543572325 8.4264757791 18.81927951 
56.452855108 36.978920518 -42.72494954 60.773529045 8.0527121863 2.1676446758 -41.60530974 38.092393733 -51.358537454 
55.551140712 -2.3549280648 -6.6278736004 1.8228135842 98.820253333 48.968170429 -2.0097624478 71.48737899 14.100527562 
-25.362316602 45.69944676 17.705975609 -8.3632897146 -104.96275883 49.869698268 83.885737692 43.039725658 11.19457371 
-23.266703493 -51.34216394 20.555920259 27.942052569 -52.109944936 31.348455101 77.519709443 22.075341481 -77.459212969 
-57.533657373 -49.669308242 -51.423019546 38.403427129 36.503508154 12.344525534 1.2601668758 -84.60386273 -21.002976235 
-27.285338672 14.465928864 16.966290054 -7.4150285713 -6.8445048958 48.087594375 -33.330318256 18.815544661 57.642292149 
70.587107246 38.805686219 15.666380241 66.959936267 -16.357165259 28.981918001 68.836704546 75.786330601 58.126624206 
-36.584891888 -13.845323373 2.3142251939 
