# vtk DataFile Version 4.2
Generated by LIGGGHTS
ASCII
DATASET POLYDATA
POINTS 70 float
0.0142472 -0.0394483 0.0177748 -0.0129313 -0.0221119 0.0245525 -0.00173173 -0.0111614 0.0230522 
0.0269116 -0.0118848 0.0201561 -0.011612 -0.0099865 0.0220588 0.0221916 -0.00402989 0.024158 
-0.0356185 0.00675697 0.0213479 -0.0320268 0.0178046 0.019564 0.0096698 0.0400892 0.0243492 
-0.0263489 -0.0205722 0.0331181 0.0337536 -0.0176895 0.0255988 -0.0305064 -0.000113466 0.0302833 
-0.0070517 -0.00180361 0.0343362 -0.0190822 0.0062495 0.0298419 -0.0102881 0.00325065 0.0261464 
0.0419097 0.0013042 0.0259362 -0.0311435 0.0103229 0.0304477 -0.00414611 0.0152978 0.0261834 
0.0186042 0.0254205 0.0305597 0.00111492 0.0350782 0.0256512 -0.00972633 -0.0408648 0.0397934 
-0.000711022 -0.0419813 0.0441444 0.00765796 -0.0412708 0.0387176 0.00095113 -0.0333351 0.0393708 
0.0243203 -0.0342274 0.0412321 -0.0140477 -0.0203321 0.0382723 -0.00802314 -0.027699 0.0427684 
-0.0309082 -0.0147956 0.0398884 -0.0211277 -0.012927 0.0408061 0.00370118 -0.0124161 0.0428522 
0.0264511 -0.00401263 0.0379898 0.0417272 -0.00454018 0.0450884 0.00967706 0.0185473 0.0431083 
0.0161184 0.0166514 0.0355984 0.0400409 0.0125039 0.0405986 -0.00198223 0.0263626 0.0385829 
0.029607 0.0297518 0.039667 -0.0206287 -0.0312285 0.0525582 0.000738868 -0.0279049 0.0477649 
-0.040027 -0.0126679 0.0540133 -0.0205449 -0.0139425 0.0534383 0.0109407 -0.0189023 0.0451998 
-0.00879258 -0.00531305 0.0477817 -0.0238517 0.0085747 0.0466665 -0.0144264 0.0082601 0.0499924 
0.0257448 0.00489723 0.0471614 0.0355354 0.00702449 0.047647 0.0386345 0.0162549 0.0499258 
-0.0226666 0.0307855 0.0491883 0.0101835 0.0370062 0.0540776 0.0103126 0.0312569 0.0456976 
-0.00693226 -0.035939 0.056332 0.0132156 -0.0307861 0.0578449 0.0279755 -0.0301156 0.0561799 
-0.0231794 -0.0206997 0.060323 -0.00529045 -0.0268493 0.0601637 0.00445213 -0.0214369 0.058577 
-0.00514914 -0.0168799 0.0593961 0.00492516 -0.0115591 0.0600618 -0.0304793 -0.00462234 0.0600501 
0.0358 -0.00386213 0.0566186 -0.03545 0.00312003 0.0554685 -0.0365601 0.0124505 0.0600607 
-0.0190425 0.0175359 0.0554212 -0.00398071 0.0146114 0.0575237 0.0110632 0.0149191 0.0581592 
-0.00167077 0.024409 0.0614043 0.0287749 0.023157 0.058253 -0.0142445 0.0394348 0.0558865 
-0.00322498 0.0418245 0.0587638 
VERTICES 70 140
1 0 
1 1 
1 2 
1 3 
1 4 
1 5 
1 6 
1 7 
1 8 
1 9 
1 10 
1 11 
1 12 
1 13 
1 14 
1 15 
1 16 
1 17 
1 18 
1 19 
1 20 
1 21 
1 22 
1 23 
1 24 
1 25 
1 26 
1 27 
1 28 
1 29 
1 30 
1 31 
1 32 
1 33 
1 34 
1 35 
1 36 
1 37 
1 38 
1 39 
1 40 
1 41 
1 42 
1 43 
1 44 
1 45 
1 46 
1 47 
1 48 
1 49 
1 50 
1 51 
1 52 
1 53 
1 54 
1 55 
1 56 
1 57 
1 58 
1 59 
1 60 
1 61 
1 62 
1 63 
1 64 
1 65 
1 66 
1 67 
1 68 
1 69 

POINT_DATA 70
FIELD FieldData 7
id 1 70 int
44 732 912 837 385 663 467 208 595 
1606 398 1986 2166 1438 1371 720 895 936 
1782 1157 2710 2454 2509 1464 3102 2267 2996 
2873 2640 2252 2790 2566 2117 1929 3228 1751 
2149 3932 2782 3857 4179 3841 3057 3206 3265 
3510 3364 3475 3770 3724 3209 4006 4989 4280 
5103 5377 4708 5397 5509 4181 4482 4052 5353 
4796 4610 5050 5420 4362 3909 5402 
type 1 70 int
2 2 2 2 2 2 2 2 2 
2 2 2 2 2 2 2 2 2 
2 2 2 2 2 2 2 2 2 
2 2 2 2 2 2 2 2 2 
2 2 2 2 2 2 2 2 2 
2 2 2 2 2 2 2 2 2 
2 2 2 2 2 2 2 2 2 
2 2 2 2 2 2 2 
i 3 70 int
0 0 0 0 0 0 0 0 0 
0 0 0 0 0 0 0 0 0 
0 0 0 0 0 0 0 0 0 
0 0 0 0 0 0 0 0 0 
0 0 0 0 0 0 0 0 0 
0 0 0 0 0 0 0 0 0 
0 0 0 0 0 0 0 0 0 
0 0 0 0 0 0 0 0 0 
0 0 0 0 0 0 0 0 0 
0 0 0 0 0 0 0 0 0 
0 0 0 0 0 0 0 0 0 
0 0 0 0 0 0 0 0 0 
0 0 0 0 0 0 0 0 0 
0 0 0 0 0 0 0 0 0 
0 0 0 0 0 0 0 0 0 
0 0 0 0 0 0 0 0 0 
0 0 0 0 0 0 0 0 0 
0 0 0 0 0 0 0 0 0 
0 0 0 0 0 0 0 0 0 
0 0 0 0 0 0 0 0 0 
0 0 0 0 0 0 0 0 0 
0 0 0 0 0 0 0 0 0 
0 0 0 0 0 0 0 0 0 
0 0 0 
v 3 70 double
1.6052186827e-06 -1.0115519963e-06 -1.7770249608e-06 -9.8628997586e-06 4.8456157604e-06 1.6503459467e-05 5.5748009071e-06 -4.5959995994e-06 7.9460616175e-06 
-2.9524978683e-06 -4.1893761406e-06 5.0308399219e-07 -9.2060639678e-06 7.6423064405e-07 -1.0651227158e-05 -2.4437358163e-06 -6.680452868e-06 -1.3137917264e-06 
-4.775275128e-06 5.1445598255e-06 8.0643602196e-06 1.1063501082e-06 7.9335527037e-07 8.7407996839e-07 1.7242306952e-05 5.6972048866e-06 -4.1169280849e-06 
1.5541172859e-06 -1.4937200104e-06 1.7907704004e-06 4.7338840357e-06 -2.9801183326e-06 -2.2401383356e-06 5.0280447001e-06 3.9888483571e-06 -8.8276030057e-06 
9.0598593666e-06 1.0700945681e-06 -8.3162110606e-06 -3.0570188167e-06 1.36462841e-05 6.2220080105e-06 2.8974735788e-06 -1.0330230938e-05 -5.6956945156e-06 
-1.5466538495e-05 2.2809950881e-05 -1.9985058345e-05 1.0008986032e-05 1.0341539358e-06 -1.4217691024e-05 1.7142948904e-05 9.6379342607e-06 -9.8388208383e-06 
-5.1375613728e-07 -1.0890749224e-06 -7.4540968102e-07 -3.5428994417e-05 -2.2259497695e-05 5.4220232883e-06 3.5795174638e-06 7.9116656794e-07 7.9990329485e-07 
7.5456579404e-07 -2.119016324e-06 3.4457608244e-06 3.636301402e-06 -3.4403906907e-06 -8.5437661502e-06 -1.3434282014e-06 -1.5090659687e-06 -1.4323411643e-06 
1.2481210379e-06 -1.0080837062e-06 1.105434539e-06 -7.193049804e-07 -8.4568376041e-07 -4.4425424282e-07 4.3321559092e-06 -1.4666712343e-06 -1.0706499487e-06 
-1.6421483178e-06 2.2311015077e-05 3.4419996116e-06 2.3214102466e-06 -2.1898990975e-06 -6.0670742336e-06 3.6274353519e-06 -5.6331508912e-07 -5.6686050141e-06 
-1.723963222e-06 -3.1001238385e-06 -3.1259379913e-06 3.2573892443e-06 -3.096818912e-07 1.1477905434e-06 2.0314393619e-06 -3.0619368565e-07 1.9525641481e-06 
1.6891102873e-07 -1.5305468073e-06 1.1547132349e-06 -1.1417165089e-08 -1.4307678818e-06 5.5534283594e-07 -6.617501595e-07 -3.1354276939e-06 1.712086066e-06 
1.4007192335e-05 4.060992565e-05 2.3457360259e-05 -7.2864975131e-07 1.3290717504e-06 2.7756016285e-07 1.3057980467e-06 5.5226453318e-07 -5.4687666116e-07 
-1.9492807506e-07 -1.2247116267e-06 -6.4020690564e-07 -2.1110353978e-07 -8.3708786675e-07 -1.5427469547e-06 -4.6180943863e-06 4.9206113324e-06 1.0355482784e-05 
-2.9488932321e-06 -2.9493915729e-06 -1.8979206729e-06 -3.1157608423e-07 -1.0482655469e-06 1.3631994484e-07 2.8171334963e-07 -1.3337228315e-06 -1.1886631295e-06 
-5.6073813382e-07 2.7490037028e-06 5.6181432171e-07 1.1572786402e-06 -7.8335151126e-07 4.2677563195e-07 -8.2722866028e-07 -1.1172444963e-06 1.3045840108e-06 
-1.5003289237e-07 7.3072524546e-07 1.0557660407e-06 -7.8211182649e-07 -7.5915723259e-07 -5.0527158553e-07 5.2239226335e-06 1.4911073265e-07 4.9533962431e-06 
2.8836694691e-07 -1.0329973438e-07 1.8192852589e-07 -3.7697903934e-07 8.9964301406e-07 3.690928088e-07 3.3275726396e-08 -3.6712875808e-07 1.3279498548e-06 
6.9028966348e-07 -3.1274958569e-07 -1.7191830464e-06 -3.6804188387e-07 -9.7771057641e-08 -8.8803165308e-07 -2.5928929332e-07 -2.1994013738e-07 3.8498898909e-07 
1.9886861843e-07 -1.527076301e-06 -7.4276614453e-07 -7.2221658074e-08 6.1909350685e-07 3.8482943498e-07 5.0206896381e-07 -3.8568646766e-07 -7.5669310057e-07 
3.0077884749e-07 7.2876412235e-07 7.0003288368e-07 6.6195810439e-07 -7.8216786589e-07 2.622635526e-07 2.8112809866e-07 -4.6971170594e-07 -2.4823056276e-07 
3.3092407415e-07 -9.0545352246e-07 5.3708158342e-07 -7.2170901386e-07 1.6184254074e-06 2.745342963e-07 -3.9337281323e-08 -3.59312568e-07 -4.7919551345e-07 
9.88039535e-07 -1.5217759786e-07 1.2029365041e-06 3.321458347e-07 -2.2080828679e-07 -5.6323901703e-07 -3.5193803594e-07 1.9543596955e-07 4.1355139509e-08 
-4.4325259505e-07 -4.116422439e-06 -2.1620399632e-06 
f 3 70 double
2.3178162229e-05 -5.0487016788e-05 -4.2584293486e-05 4.8756548297e-05 0.00011352863339 -5.3846961028e-05 -2.3738070673e-05 -8.8757831625e-06 4.6009003367e-05 
3.0923033926e-06 -4.4646824398e-05 3.4633104875e-05 4.1577270655e-05 -6.3067894958e-05 -7.8251752237e-05 3.5934140302e-05 5.422914725e-05 3.5164426882e-05 
1.9824002809e-05 6.2178351047e-05 -7.7337312145e-05 -6.3829449723e-05 -3.1093739666e-05 6.8684492001e-05 -5.2074805242e-05 -3.905681013e-05 -3.5400710004e-06 
-6.7724912373e-05 7.7399069382e-07 4.2275714796e-05 5.887833217e-05 -0.00011686922522 -4.2796332331e-05 0.00011927309329 7.6212896944e-05 -6.547552316e-06 
-8.3612465781e-05 -4.9342719046e-05 2.8399712083e-05 -8.4462026395e-05 -3.8635952907e-05 -8.8938763061e-06 -2.2420093708e-05 5.616260219e-05 5.5934621432e-06 
0.00017373790101 -9.2741264239e-05 0.00011965264167 -0.0002112678634 5.9353958722e-05 0.00014318535743 8.5492537656e-05 6.2899553494e-05 -4.9048539913e-05 
-3.0077932899e-05 -1.2873985674e-05 -4.5448174683e-06 0.00013238967207 0.00017131501727 -2.7144805745e-05 -5.1966284005e-05 -4.5754009794e-05 5.5639459807e-05 
-3.2821903867e-05 3.0687959945e-05 3.6003105041e-05 -2.047468736e-05 5.2699204492e-06 3.1702581654e-05 -6.8720235049e-06 1.5265591779e-05 -2.1865536576e-05 
-7.2755618546e-06 -7.9743621051e-06 -3.9821321705e-06 -5.0445137994e-05 6.0732943233e-05 -4.2181201027e-05 5.0905588521e-05 -1.7834501732e-05 8.9076754754e-06 
-1.8138692079e-05 -5.4865351674e-05 9.6377877697e-06 9.8138868871e-07 2.8881781457e-05 9.5303093155e-05 -3.5321175306e-05 2.8450834229e-05 1.3361167542e-05 
-2.3196242682e-05 -3.0761762794e-05 1.5255735891e-05 -7.3486946915e-07 -5.7655311512e-06 -7.0698366259e-06 4.7784507292e-05 -9.6274044091e-08 1.0232602313e-05 
1.48132092e-05 -2.3420768871e-05 -3.7661347243e-05 -4.0586430262e-06 1.5085313824e-05 7.4924850981e-06 -2.213588413e-06 -9.6751856014e-06 3.3411874249e-05 
-3.7961228533e-05 6.4113492417e-05 1.6097844785e-06 1.9987341479e-06 3.431325202e-06 -4.342658074e-06 4.3722132071e-06 -2.4754338932e-06 -6.2080303533e-07 
1.2306449446e-06 -6.2133394506e-07 2.1423064268e-06 -4.7033441795e-08 -1.614825334e-06 -1.4611789182e-06 1.406486791e-05 -4.531172105e-05 1.3866148647e-05 
-2.4608782621e-06 1.0945384962e-05 1.3258008562e-05 -4.271964041e-06 1.2423807288e-05 1.1921428283e-05 -3.8630955465e-06 3.0341869437e-08 -9.5756270781e-06 
1.0111154746e-05 1.0088360223e-05 -1.1617806179e-06 -7.847087815e-07 8.8704263583e-06 2.2023088976e-05 1.2026662622e-05 2.2562640166e-05 -3.0769767931e-07 
-6.4598378844e-07 4.7005698959e-06 -7.5655674954e-07 -9.8119972149e-06 4.3008228587e-06 -7.8854054835e-06 -3.3084866229e-06 -1.5755306341e-05 4.1188858728e-05 
-2.8867744476e-06 -6.7740327902e-07 1.0860987162e-06 1.1062072053e-06 -9.4700184985e-07 2.301370156e-06 -5.8577502352e-07 -1.865947553e-06 5.4789787221e-06 
7.142549668e-07 3.5527754234e-07 6.3973305782e-07 2.0777280912e-06 2.7712952489e-06 -5.9454623679e-07 -6.9308640006e-07 -1.3013351583e-06 -1.3772869607e-08 
8.495065435e-07 -7.0740989712e-07 -4.3470290833e-07 -5.6914258771e-07 1.0315486268e-07 -1.3521950079e-06 -1.0870806062e-06 1.0856903616e-06 4.0404316366e-08 
1.1235507871e-06 -5.1429780941e-07 -1.3168192862e-06 1.1548020255e-06 -9.3168845052e-07 6.3048587774e-08 1.2047463936e-06 5.4912497818e-07 -1.0197274237e-06 
-7.2648329894e-07 2.7590885048e-06 -6.0334021893e-07 -3.8510553322e-06 -3.1651352595e-06 -5.5239952918e-07 -2.3371347309e-06 1.8265828848e-08 -3.4515855371e-07 
2.6952957333e-06 3.1433041363e-06 6.9571214685e-07 -5.9555381191e-07 -5.2914718875e-07 -1.8447306707e-06 6.3979251842e-07 -1.2555805085e-07 7.939503784e-07 
-2.8118884033e-06 1.9024472185e-06 2.4180534344e-06 
radius 1 70 double
0.005 0.005 0.005 0.005 0.005 0.005 0.005 0.005 0.005 
0.005 0.005 0.005 0.005 0.005 0.005 0.005 0.005 0.005 
0.005 0.005 0.005 0.005 0.005 0.005 0.005 0.005 0.005 
0.005 0.005 0.005 0.005 0.005 0.005 0.005 0.005 0.005 
0.005 0.005 0.005 0.005 0.005 0.005 0.005 0.005 0.005 
0.005 0.005 0.005 0.005 0.005 0.005 0.005 0.005 0.005 
0.005 0.005 0.005 0.005 0.005 0.005 0.005 0.005 0.005 
0.005 0.005 0.005 0.005 0.005 0.005 0.005 
omega 3 70 double
-0.002178678578 1.0551745142e-05 0.00075231452056 0.0026569885123 0.0012333501817 0.0017526214027 -0.0004435659575 0.0035717862309 -0.00055064589803 
-0.0023258082139 -0.00028638407751 -0.004325803079 -0.0012825287842 -0.00023407272125 0.00062300893461 0.0032891539889 -0.00072549855898 0.0017471581388 
-0.00071077398118 -0.00088656868848 -0.00035645320709 0.00070259253613 -0.0027877026988 -0.0008847325429 -0.00067586909647 0.00067769289594 -0.0019708724198 
-0.00011648352959 -0.00033698098215 -0.00017553724675 -0.014329285753 -0.0024014015118 0.00067810239991 -0.00068828597194 -0.0011783596503 0.00014342523267 
0.00091249880105 -0.0006531438005 -0.00039098853768 0.00011556379235 -0.00031950223847 -0.00039616644027 0.00031533813075 -0.00046001797255 -0.00035856777668 
0.0019719358325 0.0026936371267 7.1388848635e-05 6.2399477589e-05 -0.00096806396088 0.0003521326944 -0.0015030891025 0.0038302226448 -0.003795545085 
-0.0010674199734 0.00043351157364 0.00085508310151 -0.00022537731809 0.00064253051468 -0.0016319596972 0.0044033011639 0.0013182345091 0.0021189769807 
-0.00085294922528 -0.00049808894052 -0.00038376721565 0.0003854467847 3.4647659671e-05 1.6748570807e-05 -0.00021893926534 0.00017869496385 -0.00018707159602 
-0.00050235056991 -0.00074241182977 -0.0003284107332 0.0001187189932 -0.00024907157641 -0.00085346873038 0.0010489889179 -0.00047140960811 -0.00044313262436 
0.00015687570236 -0.00011949543414 -0.00052573174626 0.00010263624269 -0.0004801614679 -0.00027397269647 0.0020087303986 -0.0010157154955 -0.00072980191042 
-2.278622008e-05 0.00037199972312 0.00023637608736 0.00014966442533 0.00097638031227 0.00043738668741 0.00030101368538 -0.00062376077271 0.00016397355163 
0.00095128280557 -0.00031320990556 -1.7567481205e-05 0.00019626677608 0.0017850737826 8.6360815355e-05 -0.0013314385241 0.0013094867476 0.00022910412456 
-0.015058230553 -0.0010508441977 0.008328687661 0.00032998425504 -0.00035408973733 -0.00012172098498 2.8258029481e-05 0.00052548836098 -0.00019784864088 
-0.00025085582283 0.00013007248233 -0.00048532356631 -9.5679718161e-05 -0.00050684183297 -0.00013764385026 -0.0028740570752 -0.0015872186489 6.1140806745e-05 
8.034903275e-05 0.00022389929007 2.2607722149e-05 0.00011544472446 -0.00047902342458 -0.00039293407517 0.00032922825413 -0.00026029779951 -0.000441498802 
-0.00043165649952 0.00021352083602 -0.00037367031593 0.00048165815877 0.00010086722017 -0.00025490308298 0.00017759251916 -0.00014932178744 -0.00032007305858 
-0.00020565992227 -0.00054442456099 -0.00021252062218 -0.00031197002846 0.0014498608811 -0.00048150257327 -0.00031536738501 0.0027643930049 -0.00038140037084 
0.00038710394329 -0.00044878386938 -0.00045213428614 -0.00014651236813 0.00021806960514 -0.0004531245598 6.1811884574e-05 6.9729630937e-05 3.9758208155e-05 
-0.00016593857787 -4.8396427244e-05 -0.00026632946782 0.00036165789996 8.1578857756e-05 0.0001280085909 4.4492018823e-06 4.123436927e-05 -4.1188727467e-05 
0.00023579647752 0.0003549788759 0.00016817195036 -1.8931326715e-05 8.0270208636e-05 -5.2135785107e-05 -0.00016656203992 9.2494547567e-05 -4.098766368e-05 
-3.7958390398e-05 0.00023197567581 0.00026363480201 -0.00011528433817 2.13737948e-05 3.0952785433e-05 8.6780711676e-05 -4.7034553555e-05 2.9255827307e-05 
-0.00026982739623 4.5822067655e-05 -0.00018231652013 2.1231493792e-05 -0.0003809405218 0.0012576923202 9.0297187388e-05 0.00014730661 0.00013848193511 
0.00011994644084 -0.00030423162789 0.00033829053846 -2.1877229878e-05 -0.00016719116651 -0.00012317551012 8.527895618e-05 0.00021291475951 -2.0110876124e-05 
-0.00026983450392 -0.00017397359327 2.6801145053e-05 
