# vtk DataFile Version 4.2
Generated by LIGGGHTS
ASCII
DATASET POLYDATA
POINTS 70 float
-0.0164533 -0.0103651 0.0215292 0.00462149 -0.0125469 0.0206863 0.0144726 -0.0114461 0.0207804 
0.00937145 -0.0161345 0.0214951 -0.0165418 -0.00215444 0.0189603 -0.0121191 0.00452014 0.0173354 
0.00226644 0.00723804 0.0166413 -0.0117879 0.0141029 0.0174448 -0.0044416 0.010694 0.0166787 
0.00542079 0.0148889 0.0193604 0.0125579 0.0115189 0.0186044 -0.00318549 0.0216522 0.0208275 
0.00042334 0.0182514 0.0174281 -0.0132453 -0.00973394 0.028776 -0.00674569 -0.0156899 0.0281301 
-0.0110855 -0.00407091 0.0242041 0.0117894 -0.00434003 0.0253091 0.0183912 -0.00799172 0.0259236 
-0.0105402 0.0018643 0.0253327 -0.000387124 0.00168713 0.0292052 0.000170867 0.00404799 0.0236591 
0.0166259 0.000337309 0.0218332 0.00844274 0.00673485 0.0271209 0.00668616 0.0124029 0.0280289 
0.00620867 0.0209292 0.0239214 0.0132625 -0.017492 0.0314484 -0.00288244 -0.0159511 0.0353553 
-0.0172542 -0.00517149 0.03089 -0.00427164 -0.00480114 0.0311164 -0.0142648 0.00436659 0.0325837 
0.0160036 -0.014885 0.0415487 0.0140261 -0.00564408 0.042094 -0.00457471 0.0128757 0.04633 
0.000240708 0.0126272 0.0426978 0.00826418 0.0105313 0.0446017 0.015508 0.0152577 0.0447581 
-0.0063895 0.0204516 0.0445412 0.00570803 0.0189962 0.0423563 -0.00513017 -0.0187845 0.0460451 
-0.00126094 -0.0217627 0.0504117 0.00334449 -0.0177048 0.0458372 0.0105627 -0.0170656 0.0473769 
-0.0112577 -0.0163348 0.0456237 -0.016207 -0.0120352 0.0503037 -0.00349779 -0.0147623 0.0504172 
-0.00762343 -0.0101143 0.0499124 0.0129297 -0.0121677 0.05043 -0.0163377 -0.00654567 0.0469843 
-0.011009 -0.000146412 0.0501859 -0.00460114 -0.00211276 0.0460724 -0.00105444 -0.00514365 0.050333 
0.00583709 -0.00199248 0.0493574 0.0209518 -0.00637696 0.0495731 -0.0210179 0.00436528 0.0494983 
-0.016102 0.000299101 0.0458792 -0.0124422 0.00796586 0.0486316 -0.00689549 0.00514429 0.044846 
-0.000659613 0.00309318 0.0501843 0.00541517 0.0041068 0.0491372 0.0139977 0.00579477 0.0463948 
0.0113695 0.00231064 0.0506334 0.0212836 0.00200862 0.0479659 -0.0177945 0.0106753 0.044021 
-0.00949575 0.0160435 0.0505619 -0.004544 0.00850125 0.0505789 0.00183884 0.0096351 0.0506141 
0.0132435 0.0143146 0.0506083 0.0186417 0.0110816 0.0481581 0.000892991 0.0191005 0.0464111 
0.00746256 0.0190833 0.0500643 
VERTICES 70 140
1 0 
1 1 
1 2 
1 3 
1 4 
1 5 
1 6 
1 7 
1 8 
1 9 
1 10 
1 11 
1 12 
1 13 
1 14 
1 15 
1 16 
1 17 
1 18 
1 19 
1 20 
1 21 
1 22 
1 23 
1 24 
1 25 
1 26 
1 27 
1 28 
1 29 
1 30 
1 31 
1 32 
1 33 
1 34 
1 35 
1 36 
1 37 
1 38 
1 39 
1 40 
1 41 
1 42 
1 43 
1 44 
1 45 
1 46 
1 47 
1 48 
1 49 
1 50 
1 51 
1 52 
1 53 
1 54 
1 55 
1 56 
1 57 
1 58 
1 59 
1 60 
1 61 
1 62 
1 63 
1 64 
1 65 
1 66 
1 67 
1 68 
1 69 

POINT_DATA 70
FIELD FieldData 7
id 1 70 int
732 44 401 436 3257 801 209 2836 1958 
903 292 2857 602 911 212 709 388 573 
2287 672 535 290 1777 2611 2180 1391 1507 
2676 472 2199 1490 657 2664 3312 2149 2489 
3042 2712 3036 2301 1401 1511 1971 1396 851 
3277 924 2208 3260 2914 3323 952 1459 2256 
2841 3144 3103 2945 1177 2602 1168 2015 2133 
2546 744 2454 1632 2824 2749 1811 
type 1 70 int
2 2 2 2 2 2 2 2 2 
2 2 2 2 2 2 2 2 2 
2 2 2 2 2 2 2 2 2 
2 2 2 2 2 2 2 2 2 
2 2 2 2 2 2 2 2 2 
2 2 2 2 2 2 2 2 2 
2 2 2 2 2 2 2 2 2 
2 2 2 2 2 2 2 
i 3 70 int
0 0 0 0 0 0 0 0 0 
0 0 0 0 0 0 0 0 0 
0 0 0 0 0 0 0 0 0 
0 0 0 0 0 0 0 0 0 
0 0 0 0 0 0 0 0 0 
0 0 0 0 0 0 0 0 0 
0 0 0 0 0 0 0 0 0 
0 0 0 0 0 0 0 0 0 
0 0 0 0 0 0 0 0 0 
0 0 0 0 0 0 0 0 0 
0 0 0 0 0 0 0 0 0 
0 0 0 0 0 0 0 0 0 
0 0 0 0 0 0 0 0 0 
0 0 0 0 0 0 0 0 0 
0 0 0 0 0 0 0 0 0 
0 0 0 0 0 0 0 0 0 
0 0 0 0 0 0 0 0 0 
0 0 0 0 0 0 0 0 0 
0 0 0 0 0 0 0 0 0 
0 0 0 0 0 0 0 0 0 
0 0 0 0 0 0 0 0 0 
0 0 0 0 0 0 0 0 0 
0 0 0 0 0 0 0 0 0 
0 0 0 
v 3 70 double
-0.0010281806212 0.00081725191873 0.018117624605 0.0034363088389 0.0022374629409 0.017768441033 0.0077431713283 0.009869409126 0.01489656852 
0.0069723120909 0.0086580964159 0.015414666822 0.00072694867012 0.0012329252292 0.015763585668 -0.0022304514229 0.0045054876208 0.016296055692 
-0.0059178668548 0.0077548528939 0.016658602593 -0.003406499653 0.0024627704718 0.019188651334 -0.0049430829719 0.0045677996131 0.017920848159 
-0.0049891313996 0.0044518693643 0.018857447251 -0.0065500666254 0.0064672695254 0.020253195841 -0.0088661232182 -0.0018068283019 0.019994900523 
-0.0054592636976 0.003603736625 0.0184322663 -0.0075322480305 0.0096730110906 0.015059544571 -0.0072484885562 -2.2620343511e-05 0.014210749657 
0.0037859447406 0.011827198053 0.010792810786 0.0025380704543 0.0075507216781 0.018762037269 0.0040586937566 0.014076589499 0.018138103455 
-0.0014462337314 0.0056532830847 0.021641872421 -0.0018843325824 -0.001547763424 0.020936955347 -0.0017634978739 0.0038988292713 0.019970623516 
-0.00075659242094 0.011305815809 0.019026937393 -0.007024786632 0.0021735826882 0.022043923441 -0.0057135475095 0.0037815775068 0.022620964352 
-0.0084257708223 0.0023280460174 0.026354425164 0.0076053399857 0.011750029578 0.029980113904 0.10291971465 0.025765705701 -0.015105897083 
-0.0061977638476 0.0054764455128 0.017552907887 -0.0017085454391 0.0013442913166 0.023102714441 0.005663337614 0.013282368183 0.029755731287 
-0.023882312017 0.019225042713 0.064046295853 0.017720813369 0.10559294081 0.03353307376 -0.087219667516 -0.0042139469078 -0.040059320014 
0.0047904710899 -0.0089770456387 0.076160177032 -0.14595190867 -0.13204311914 -0.22535047217 0.19020758602 0.041636528428 -0.3564538647 
-0.064612234643 -0.049919296765 -0.025221277367 -0.00080622199164 -0.082659749171 -0.080481679367 0.014381208762 0.24053231347 0.060582058372 
0.079629174459 0.045322026085 -0.41608770421 0.15938502431 -0.075283904526 -0.075142205402 0.024508307208 0.040210651864 -0.035238408045 
-0.04821696564 -0.088412470952 -0.13347734656 -0.05961330019 0.031366822848 -0.6109620313 0.011557618708 -0.078032677295 -0.42661616378 
0.024906142477 -0.0013703326703 0.090790622501 0.13107605266 0.29453905622 -0.22765174659 -0.06666768301 0.24999863412 -0.47177593316 
0.1967199171 0.1163283175 -0.080313513585 0.0325949196 0.024535341843 -0.046423509402 0.055636923056 -0.123406979 -0.21873813049 
-0.11498331703 0.34423425355 -0.13990008799 -0.059476650423 0.14080548452 -0.62995429138 0.16552453848 -0.047457937083 -0.21304670723 
-0.21442199529 -0.01835248786 -0.34774732296 -0.24974292657 0.1743936575 -0.34857213926 -0.099153324886 -0.101830339 -0.099396970608 
-0.22447853872 -0.2258321814 -0.41743815906 -0.18730353556 0.016779911229 0.033582372894 0.091838674789 0.0062089598171 0.080443853941 
-0.01093384894 0.036400360665 -0.15077079261 0.47099319044 -0.049477479034 -0.35101122108 0.10672124416 -0.37325777625 -0.30056204861 
-0.011976264734 0.015171449805 -0.30069751613 0.001884524124 -0.21045715797 0.014701482319 0.15493738457 0.12088287463 -0.35135732733 
0.038473114265 0.0074352104535 -0.15583159119 -0.071909902931 -0.25447006264 -0.36111247142 0.16657285432 -0.0978800949 -0.12756956364 
0.063718251027 -0.102425607 0.12747777555 
f 3 70 double
0 0 -0.00027737121539 6.9951290305e-05 0.00016435739044 -0.00045652125484 0 0 -0.00027737121539 
0 0 -0.00027737121539 0 0 -0.00027737121539 0 0 -0.00027737121539 
0 0 -0.00027737121539 0 0 -0.00027737121539 0 0 -0.00027737121539 
-3.8857371977e-06 -1.9710625111e-07 -0.00027874521655 0.00011081079421 0.00024340795934 -0.00032397187889 0.00013962359087 0.0001618613952 -0.00020767242005 
0 0 -0.00027737121539 0 0 -0.00027737121539 0 0 -0.00027737121539 
7.2417242565e-05 0.0010896898449 -0.001029591119 0 0 -0.00027737121539 0 0 -0.00027737121539 
0.00074079484342 -0.00024180795635 -0.0017284097088 -7.6690530723e-06 4.3147756274e-05 -0.00027891540949 0 0 -0.00027737121539 
0 0 -0.00027737121539 0 0 -0.00027737121539 0 0 -0.00027737121539 
0 0 -0.00027737121539 0 0 -0.00027737121539 0 0 -0.00027737121539 
-0.0017001345741 -0.0015448609842 -0.00022178309464 0 0 -0.00027737121539 0 0 -0.00027737121539 
0 0 -0.00027737121539 0 0 -0.00027737121539 0 0 -0.00027737121539 
0 0 -0.00027737121539 0 0 -0.00027737121539 0 0 -0.00027737121539 
-0.052587277306 -0.012177461033 0.038540767818 -0.0073659744196 -0.0012608674393 -0.03668591428 0 0 -0.00027737121539 
0 0 -0.00027737121539 0 0 -0.00027737121539 0 0 -0.00027737121539 
0 0 -0.00027737121539 0 0 -0.00027737121539 0 0 -0.00027737121539 
0 0 -0.00027737121539 0 0 -0.00027737121539 0 0 -0.00027737121539 
0 0 -0.00027737121539 0 0 -0.00027737121539 0 0 -0.00027737121539 
0 0 -0.00027737121539 0 0 -0.00027737121539 0 0 -0.00027737121539 
0 0 -0.00027737121539 0 0 -0.00027737121539 0 0 -0.00027737121539 
0 0 -0.00027737121539 0 0 -0.00027737121539 0 0 -0.00027737121539 
0 0 -0.00027737121539 0 0 -0.00027737121539 0 0 -0.00027737121539 
0 0 -0.00027737121539 0 0 -0.00027737121539 0 0 -0.00027737121539 
0 0 -0.00027737121539 0 0 -0.00027737121539 0 0 -0.00027737121539 
0 0 -0.00027737121539 
radius 1 70 double
0.003 0.003 0.003 0.003 0.003 0.003 0.003 0.003 0.003 
0.003 0.003 0.003 0.003 0.003 0.003 0.003 0.003 0.003 
0.003 0.003 0.003 0.003 0.003 0.003 0.003 0.003 0.003 
0.003 0.003 0.003 0.003 0.003 0.003 0.003 0.003 0.003 
0.003 0.003 0.003 0.003 0.003 0.003 0.003 0.003 0.003 
0.003 0.003 0.003 0.003 0.003 0.003 0.003 0.003 0.003 
0.003 0.003 0.003 0.003 0.003 0.003 0.003 0.003 0.003 
0.003 0.003 0.003 0.003 0.003 0.003 0.003 
omega 3 70 double
0.28638202264 0.038457223722 0.34690861645 -0.74150145441 0.09910438456 0.46721198613 0.39786917521 -0.53421460878 0.6667175737 
0.052319910858 1.0997375697 0.71678327319 -0.52133615444 -0.32887812679 0.20281512189 0.36898767136 0.25154376515 0.38957814902 
-0.011324282161 -0.38304663445 -0.081802616302 0.8156294751 -0.24783533055 -0.12454587167 0.6842957607 -0.060012687974 -0.040166735982 
0.34791546859 0.070593975449 0.168925697 -0.010487210481 -0.65009551063 0.44897438631 -0.13665246496 0.42859669179 0.56514931716 
-0.41034268567 -0.84110568369 0.61385193101 -0.048073274437 -1.2765838462 0.99751269669 -0.87013932774 -0.26357896095 -0.027998187395 
1.553157885 -0.27446404601 0.77703599692 0.53070617194 0.22617366742 0.55983104543 0.14604375133 0.25421618038 0.49195871201 
0.54062579994 -0.9190282598 -0.42858734342 0.98860824811 -0.25135774102 0.4514844066 0.23885103226 -0.30824324346 0.86563661072 
0.83574945898 0.14402550776 0.38686351152 0.65732841936 0.36345629351 0.33789468826 0.069560049774 -0.11961589896 -0.93080106247 
0.89219442309 -0.31701953763 0.5767996233 -0.70899712323 2.3560589974 -1.0067499408 -6.0693047114 8.5820794279 -13.473601833 
0.35924495026 1.4019345924 -0.86621767065 -1.3846016555 1.5355966567 1.4661359559 -1.9114673202 4.5798473168 -6.5433566157 
-6.2263282866 16.737738037 -8.0076824792 10.225700716 -18.032457666 -11.323845894 -0.69293900939 -16.318699397 0.0095261632916 
19.822534644 -5.5119447925 2.0756997835 -27.810176676 0.33406137003 34.728957149 -13.306595138 -51.41125932 -9.6230199575 
-40.001337486 10.079551339 12.732897339 70.705137678 -15.114047542 -5.4549591393 -57.146361437 -55.344176167 20.494735033 
-0.017266082589 -0.047658118278 0.20137920926 30.18351195 14.915041584 5.4118940761 10.796448376 38.571914594 -32.912375704 
-18.729185221 6.473023585 -42.147484873 -3.8200550979 -67.932620954 23.081145753 2.5600352601 31.428089319 63.227017824 
-60.141784303 -27.220378801 -42.192256281 21.239578554 -43.896565283 -5.6109320072 29.477702905 -8.12526135 -21.165332921 
-44.816191435 -38.063009042 -11.144816519 8.8559928138 49.173781967 -23.452885306 -31.879829256 -17.247589127 -13.505717143 
-92.662201503 -23.390985548 31.241467346 -0.00044063809519 -0.00011752926366 -0.017210073668 108.56098714 -75.25005945 -22.566032073 
-50.339370528 34.112054822 37.087351756 -61.792690682 74.044925021 -40.246261861 57.459357496 -26.638640024 0.36178062413 
36.746904216 -31.486785937 23.20249384 24.271525841 21.966569336 71.422115915 49.157878604 52.424681996 -35.540032615 
-39.660529108 68.289063303 -13.743944878 44.200448204 -23.255809335 43.180589152 72.124990284 -11.162749421 31.048981662 
45.910462689 55.753390085 48.933205495 56.058965304 -51.087157838 34.545860501 -30.264312162 -22.605061327 55.927045119 
12.76961808 32.30604058 24.969708478 25.165865426 19.073533268 -7.7146430519 16.286722222 -19.751538972 -4.8669546001 
-15.062778211 26.407619289 5.6817376507 
