# vtk DataFile Version 4.2
Generated by LIGGGHTS
ASCII
DATASET POLYDATA
POINTS 70 float
-0.0164431 -0.0248626 0.0320767 0.0103532 -0.0237953 0.0312661 0.0230426 -0.0242773 0.0331483 
0.0355805 -0.00521371 0.0322499 0.0297003 0.00499022 0.0312069 0.00184691 -0.0402774 0.0385717 
0.0103233 -0.0335347 0.0363191 0.025013 -0.0335832 0.0370524 -0.0272662 -0.0100468 0.0364923 
-0.00704887 -0.0185337 0.0361688 0.0245073 -0.0110338 0.0376044 0.0387107 -0.0145069 0.0387529 
-0.0394836 -0.00982934 0.0362938 -0.0207941 -0.00202398 0.0394994 -0.0020374 0.00640696 0.0390076 
0.0213805 0.00568758 0.0387045 0.0376236 0.00771372 0.0403582 -0.0398017 0.0129144 0.0386073 
0.027552 0.0170026 0.0324391 0.00442206 0.0258634 0.0361924 0.0150761 0.0200494 0.0395506 
0.0299815 0.0276163 0.0351191 0.0182766 0.0314097 0.0421249 0.00407344 0.0412077 0.0425969 
-0.0226784 -0.0331845 0.0478677 -0.00500722 -0.036247 0.0484491 -0.0144964 -0.0253828 0.0500287 
-0.00280587 -0.0244062 0.0478925 0.0128971 -0.0281804 0.0462749 0.0301704 -0.0282813 0.0445819 
-0.0362005 -0.0160007 0.0448956 -0.0240759 -0.018804 0.0515315 -0.0146039 -0.0156832 0.0467625 
0.00544289 -0.0164428 0.0451933 0.0161447 -0.0165861 0.0528851 0.026437 -0.0159728 0.052955 
-0.0400537 -0.00595004 0.053664 -0.0276957 -0.0064807 0.0474246 0.00160652 -0.00582427 0.0464349 
0.0128774 -0.00578578 0.0445611 0.0258273 -0.00361369 0.0495834 0.0380921 -0.00443856 0.0512214 
-0.0313367 0.00281722 0.0457015 -0.0244304 0.00844057 0.0515867 0.01421 0.00771008 0.0453652 
-0.00588736 0.014448 0.0457249 0.00588515 0.0165265 0.0451496 0.036791 0.0187898 0.0467188 
-0.0333836 0.0235187 0.04564 -0.0122545 0.021944 0.043916 -0.0169546 0.0352085 0.0445246 
0.0131317 0.0376593 0.0483697 0.00339454 -0.0321565 0.057482 -0.0215278 -0.0279073 0.0573709 
-0.0161781 -0.00494937 0.0614048 0.00595958 -0.00557006 0.0580044 -0.0392565 0.0062227 0.0553043 
-0.0293906 0.00556205 0.0611986 -0.00595123 0.000537545 0.0543159 -0.0340363 0.0192297 0.0546893 
-0.0132773 0.019125 0.0580071 6.43484e-05 0.012953 0.0622806 0.0147736 0.0143151 0.0630183 
-0.0244562 0.0236815 0.054578 0.00744436 0.0286466 0.0627897 -0.00333438 -0.0402455 0.0666019 
-0.0353902 0.0161651 0.0649638 -0.020692 0.0199192 0.0676833 -0.00487663 0.0219105 0.066401 
-0.0157603 0.0240332 0.0871812 
VERTICES 70 140
1 0 
1 1 
1 2 
1 3 
1 4 
1 5 
1 6 
1 7 
1 8 
1 9 
1 10 
1 11 
1 12 
1 13 
1 14 
1 15 
1 16 
1 17 
1 18 
1 19 
1 20 
1 21 
1 22 
1 23 
1 24 
1 25 
1 26 
1 27 
1 28 
1 29 
1 30 
1 31 
1 32 
1 33 
1 34 
1 35 
1 36 
1 37 
1 38 
1 39 
1 40 
1 41 
1 42 
1 43 
1 44 
1 45 
1 46 
1 47 
1 48 
1 49 
1 50 
1 51 
1 52 
1 53 
1 54 
1 55 
1 56 
1 57 
1 58 
1 59 
1 60 
1 61 
1 62 
1 63 
1 64 
1 65 
1 66 
1 67 
1 68 
1 69 

POINT_DATA 70
FIELD FieldData 7
id 1 70 int
1508 973 1627 1405 716 1449 681 307 2109 
805 1100 2779 2714 197 1614 1616 455 1400 
2721 1244 1924 2527 2199 2586 2556 2266 2735 
1535 2111 112 1267 466 1331 1075 1364 1642 
1894 1004 1872 2389 205 1964 340 28 1933 
907 2012 733 1150 2701 1956 886 1752 586 
2432 1692 1767 1144 2331 369 474 2724 421 
2156 373 1563 1092 1296 249 2039 
type 1 70 int
2 2 2 2 2 2 2 2 2 
2 2 2 2 2 2 2 2 2 
2 2 2 2 2 2 2 2 2 
2 2 2 2 2 2 2 2 2 
2 2 2 2 2 2 2 2 2 
2 2 2 2 2 2 2 2 2 
2 2 2 2 2 2 2 2 2 
2 2 2 2 2 2 2 
i 3 70 int
0 0 0 0 0 0 0 0 0 
0 0 0 0 0 0 0 0 0 
0 0 0 0 0 0 0 0 0 
0 0 0 0 0 0 0 0 0 
0 0 0 0 0 0 0 0 0 
0 0 0 0 0 0 0 0 0 
0 0 0 0 0 0 0 0 0 
0 0 0 0 0 0 0 0 0 
0 0 0 0 0 0 0 0 0 
0 0 0 0 0 0 0 0 0 
0 0 0 0 0 0 0 0 0 
0 0 0 0 0 0 0 0 0 
0 0 0 0 0 0 0 0 0 
0 0 0 0 0 0 0 0 0 
0 0 0 0 0 0 0 0 0 
0 0 0 0 0 0 0 0 0 
0 0 0 0 0 0 0 0 0 
0 0 0 0 0 0 0 0 0 
0 0 0 0 0 0 0 0 0 
0 0 0 0 0 0 0 0 0 
0 0 0 0 0 0 0 0 0 
0 0 0 0 0 0 0 0 0 
0 0 0 0 0 0 0 0 0 
0 0 0 
v 3 70 double
-0.019401750753 -0.25628111529 0.07984767609 -0.23887115421 0.20441129436 -0.071684886986 0.057531228006 -0.067644290012 0.082346546669 
0.28158444827 -0.078961607985 0.40956718337 0.041665930368 -0.071672196671 0.039369277774 0.061596272511 0.034834122281 -0.45050800506 
0.062081410892 -0.03981528971 -0.43181188512 -0.43182830513 0.27567057303 -0.045945374839 -0.080686932545 0.11372893137 -0.35400341711 
-0.04742527617 -0.069224830601 -0.39534663102 0.071214792472 0.061651891323 -0.47364747756 0.037078724135 0.087008171925 -0.40828532681 
0.13533191716 -0.26198244517 0.27870234927 0.032918240343 0.097720119529 -0.36151262792 -0.11436148781 -0.072373597831 -0.29351842187 
0.12582856043 -0.22701680995 -0.25413906804 -0.11742024253 0.13425275759 -0.40246617604 -0.095477214886 0.062206207952 -0.32464577802 
0.15900851838 0.19511401578 -0.02910233389 -0.068472991054 -0.031743647787 -0.3825002707 0.076776627975 -0.055809744599 -0.38757675379 
-0.04022128729 0.028959728996 -0.41055575349 -0.046275714941 0.020571764362 -0.38656394326 -0.0079977680081 -0.045566813334 -0.3711476107 
-0.052421381433 0.081880798118 -0.31695138507 0.040322416378 -0.18437177014 -0.32715888875 0.12808815395 0.1771636705 -0.29693409965 
-0.041533511692 0.023600576654 -0.38826983291 -0.04465372504 -0.043415543443 -0.38575986315 0.038958251071 -0.095205518152 -0.48606967064 
-0.065369360636 0.037774828243 -0.35804176615 -0.010036847444 -0.054948338705 -0.29364778925 0.041552951319 -0.06700201845 -0.42060841617 
0.11468975495 0.13560737692 -0.36493543807 0.035524807957 -0.059216074216 -0.41221161829 -0.16336811402 0.010471739662 -0.31865735978 
0.013141240538 -0.0025508847371 -0.26925132997 -0.0020035538239 0.078301554246 -0.32967715128 -0.011258123418 -0.025848816443 -0.28944808257 
0.01166486582 -0.017602189265 -0.32650179752 0.011795347194 0.013159619896 -0.31747369427 0.069581328 -0.01538083324 -0.28000708138 
-0.049017983048 -0.095112574963 -0.35059136643 0.0062061386305 0.10273920862 -0.16500078546 -0.54449937532 0.14224902659 0.19092733735 
-0.033152588887 -0.057284271716 -0.30177547458 -0.02044975113 -0.014662448782 -0.31039218792 -0.043466683829 0.097181876372 -0.31127884702 
0.05192643853 -0.17753804684 -0.22912104161 -0.0031451132981 -0.11675508078 -0.28662264539 -0.0033308882749 0.015255579929 -0.34112956773 
0.013271589061 -0.008144022539 -0.30317217186 0.12472635263 0.1057768455 -0.33585466102 0.19998271447 -0.07482043207 -0.3273367667 
0.0914722706 -0.0082146142176 -0.22298468721 0.10774201716 0.082371363124 -0.26590550667 0.010346739301 -0.011042994639 -0.25278603493 
0.07861113298 0.030483085973 -0.12110499292 0.02160937938 0.037974293172 -0.22108688341 -0.07363307408 0.083142468608 -0.23195048196 
-0.16487735548 0.26015416953 -0.21038675977 0.035512989223 -0.093149715109 -0.20417845831 0.068172162705 -0.0055775078767 -0.1885202657 
-0.079538204388 -0.10438065241 -0.20429399439 -0.00076484861108 -0.0057806376857 -0.13408991598 0.13317260362 0.24320457083 0.085605116923 
0.20205698321 -0.0055653399738 -0.14909464404 0.22180079213 -0.10563768004 -0.1841513891 0.016501148082 0.10456040309 0.075801461399 
0.05295812441 0.2410815458 0.051856897508 
f 3 70 double
0.25037060535 -0.3284874485 1.2960024129 0 0 -0.0012841259972 0 0 -0.0012841259972 
0 0 -0.0012841259972 0 0 -0.0012841259972 0 0 -0.0012841259972 
0 0 -0.0012841259972 0 0 -0.0012841259972 0 0 -0.0012841259972 
0 0 -0.0012841259972 0 0 -0.0012841259972 0 0 -0.0012841259972 
0 0 -0.0012841259972 0 0 -0.0012841259972 0 0 -0.0012841259972 
0.29845846386 -0.24185569256 -0.61093293317 0 0 -0.0012841259972 0 0 -0.0012841259972 
0 0 -0.0012841259972 0 0 -0.0012841259972 0 0 -0.0012841259972 
0 0 -0.0012841259972 0 0 -0.0012841259972 0 0 -0.0012841259972 
0 0 -0.0012841259972 0 0 -0.0012841259972 0 0 -0.0012841259972 
0 0 -0.0012841259972 0 0 -0.0012841259972 0 0 -0.0012841259972 
0 0 -0.0012841259972 0 0 -0.0012841259972 0 0 -0.0012841259972 
0 0 -0.0012841259972 0 0 -0.0012841259972 0 0 -0.0012841259972 
0 0 -0.0012841259972 0 0 -0.0012841259972 0 0 -0.0012841259972 
0 0 -0.0012841259972 0 0 -0.0012841259972 0 0 -0.0012841259972 
0 0 -0.0012841259972 0 0 -0.0012841259972 -0.29845846386 0.24185569256 0.60836468117 
0 0 -0.0012841259972 0 0 -0.0012841259972 0 0 -0.0012841259972 
0 0 -0.0012841259972 0 0 -0.0012841259972 0 0 -0.0012841259972 
0 0 -0.0012841259972 0 0 -0.0012841259972 0 0 -0.0012841259972 
0 0 -0.0012841259972 0 0 -0.0012841259972 0 0 -0.0012841259972 
0 0 -0.0012841259972 0 0 -0.0012841259972 0 0 -0.0012841259972 
0 0 -0.0012841259972 0 0 -0.0012841259972 0 0 -0.0012841259972 
0 0 -0.0012841259972 0 0 -0.0012841259972 0 0 -0.0012841259972 
0 0 -0.0012841259972 0 0 -0.0012841259972 0 0 -0.0012841259972 
0 0 -0.0012841259972 
radius 1 70 double
0.005 0.005 0.005 0.005 0.005 0.005 0.005 0.005 0.005 
0.005 0.005 0.005 0.005 0.005 0.005 0.005 0.005 0.005 
0.005 0.005 0.005 0.005 0.005 0.005 0.005 0.005 0.005 
0.005 0.005 0.005 0.005 0.005 0.005 0.005 0.005 0.005 
0.005 0.005 0.005 0.005 0.005 0.005 0.005 0.005 0.005 
0.005 0.005 0.005 0.005 0.005 0.005 0.005 0.005 0.005 
0.005 0.005 0.005 0.005 0.005 0.005 0.005 0.005 0.005 
0.005 0.005 0.005 0.005 0.005 0.005 0.005 
omega 3 70 double
20.561447879 -76.676226932 -19.250501486 7.9427364306 30.77511807 -38.440638045 21.770987139 33.272745745 9.2628005594 
-14.098235831 24.909912936 10.770232006 -7.7158366832 -26.168571159 6.1460204052 7.2921588884 14.741804124 -27.48325958 
-18.503924118 14.318928518 3.422414989 56.206132924 16.640501875 13.577329077 26.646635137 5.8166949577 -13.425430204 
14.920011091 -3.8494844747 4.3765968823 -0.079797514339 -18.92732875 -12.789497469 -6.2763277992 5.5135067725 -1.2645193899 
12.774926068 23.667152297 4.7555636559 -8.9661481612 -1.9797699628 12.921352709 34.558924302 -2.5520843348 10.904930142 
-11.098214229 -38.588483595 -2.3598063736 -19.796961051 5.0333723323 16.245912891 1.3901748468 -3.657863185 -3.7807299408 
-34.507072449 -27.922067493 7.9551511491 -3.5575792507 -6.6046912978 -8.2388021887 -17.26474607 -2.0494634382 -5.7715203503 
1.9493176969 8.4818307446 -14.999575633 -5.3941720109 -11.633669404 -1.6929471728 9.0552751795 -12.812960428 -8.8430708005 
-8.7177453025 -14.598279591 -1.8077352185 -1.6731582791 19.529663779 -3.2002898 3.9274539081 26.018876525 -5.2651413892 
-13.155083605 -7.4047880281 4.827052514 5.6590375096 10.975029354 10.667288918 -13.215190457 -4.3778854909 28.687061019 
1.8398248268 -10.121013508 -24.891204336 -3.7384946346 11.683826142 4.9640428442 48.819880723 25.722844563 -16.620518675 
15.315152088 5.2532015133 -16.91937188 15.938781048 23.253357943 29.252008766 32.224192719 -27.964162942 20.17166734 
-12.166666947 31.376574823 4.1434188866 -13.884897246 3.7848073076 -2.170082714 15.010351551 31.060342695 -12.365492704 
-6.0628484367 6.4332533939 26.732573916 -8.7066133045 -9.7023305343 -13.740459202 -5.406913556 2.4490052317 8.7949005375 
30.474366205 -9.3393876252 37.974920194 -1.6975182816 17.996085017 3.4852352259 -14.857158314 -8.4845194139 -15.711898046 
2.4156210811 3.3949791311 -7.5899911393 24.7954686 5.8141652858 4.1492048691 45.799083939 -0.052430111292 4.0578258733 
4.252228046 -2.0726949374 3.6626016518 -7.1123718972 18.551827871 9.9787091322 4.462906714 -7.8492765637 10.660412738 
17.756276644 4.5526699058 47.424070439 9.4574219331 30.334205118 -5.8657285388 19.891712962 3.7072328051 9.9034810194 
-1.0990833464 -5.2003986395 -32.041920269 16.752424143 -14.466290527 20.088362971 -60.450798616 -2.9740886755 -9.9087465255 
11.085101328 -22.634693157 -7.2937873927 20.655988739 23.408155095 -30.546913929 -8.4284002714 1.8280740654 -39.317416874 
32.17946356 5.1800765446 -32.804849368 -25.415512649 -4.9734335073 -14.158318929 13.057182588 -30.657388904 -20.578582772 
-15.806426241 29.792604975 -12.861376515 -10.002786791 -5.3592566657 32.481729714 -9.3915960068 37.278289458 6.0851552519 
27.111306005 3.8042460064 -0.37355754496 57.187821898 -28.383483883 -10.349010996 20.802857564 28.813893158 14.721312805 
-55.521851051 38.819784908 -54.016154358 
