# vtk DataFile Version 4.2
Generated by LIGGGHTS
ASCII
DATASET POLYDATA
POINTS 70 float
0.0161864 -0.0387481 0.0174891 -0.00938317 -0.0107481 0.0234045 0.0273851 -0.0112658 0.0213279 
-0.0344739 0.00505812 0.0220115 -0.0349979 0.014818 0.0196959 0.00022131 0.0347301 0.0233813 
0.00857621 0.0411197 0.0210658 -0.0118134 -0.023113 0.0250915 0.000510395 -0.011897 0.0243865 
0.0349234 -0.0158777 0.0260678 -0.0300955 -0.00182665 0.0301472 0.022896 -0.00309748 0.0253793 
-0.0315114 0.00805225 0.0311644 -0.0183384 0.00470325 0.0299236 -0.00895325 0.00212554 0.0276154 
0.0419385 0.00138765 0.0245904 -0.0048827 0.0142913 0.026123 0.0190269 0.0263065 0.0322745 
-0.00743869 -0.0413293 0.0428988 0.0061537 -0.04152 0.041606 -0.0243268 -0.020221 0.0360789 
-0.0313248 -0.0142624 0.0405046 -0.0122672 -0.0193824 0.0421493 -0.00615953 -0.00192192 0.03666 
0.0291478 -0.00342374 0.0402654 0.0151678 0.0181386 0.0371051 -0.00329272 0.0279869 0.0354296 
0.0281698 0.0307867 0.0437255 0.000108434 -0.0331704 0.0484471 0.00950548 0.0341265 0.0447687 
0.038375 0.0166666 0.0611776 0.0097172 -0.0216071 0.0722384 0.0227243 -0.020839 0.0697487 
-0.0315388 -0.0184789 0.0653054 -0.00828174 -0.0167948 0.073367 -0.0177941 -0.0082789 0.0655206 
-0.0242237 0.0023776 0.0699832 0.0345239 0.0014778 0.0749893 -0.0269304 0.0124573 0.0731895 
-0.0160123 0.0140613 0.0743325 -0.0005304 0.0197603 0.0719292 -0.0157393 0.0247181 0.0737356 
-0.0236054 0.0333834 0.0733231 -0.00506219 0.0309704 0.0730903 0.0151043 0.0319749 0.0711514 
0.00717995 0.0410549 0.0711606 -0.0336977 -0.0242895 0.0813124 -0.02266 -0.0236568 0.0789837 
-0.0121964 -0.0225277 0.0847264 -0.00118635 -0.0266784 0.0772503 0.0146918 -0.0258257 0.0861452 
-0.0400908 -0.0106106 0.0847333 0.0195007 -0.0114125 0.0788449 -0.0180912 -0.00684445 0.0848656 
0.00162373 -0.00776976 0.0774169 -0.0415918 0.00459441 0.0835048 -0.019182 0.00911378 0.0830584 
0.0115519 0.00243721 0.08055 0.0251297 0.000706948 0.079256 0.00951391 0.0124036 0.0754552 
-0.0356773 0.0217743 0.0792374 0.00722168 0.0271242 0.0821146 0.00482071 -0.020439 0.0887585 
0.0317267 -0.0195014 0.0871007 0.0340008 -0.00317363 0.0858547 0.0148432 0.0168175 0.0878119 
0.036717 0.0125301 0.0870228 -0.0318984 0.0214563 0.0897566 -0.00134338 0.0310076 0.0906344 
0.00386996 0.0413653 0.0882263 
VERTICES 70 140
1 0 
1 1 
1 2 
1 3 
1 4 
1 5 
1 6 
1 7 
1 8 
1 9 
1 10 
1 11 
1 12 
1 13 
1 14 
1 15 
1 16 
1 17 
1 18 
1 19 
1 20 
1 21 
1 22 
1 23 
1 24 
1 25 
1 26 
1 27 
1 28 
1 29 
1 30 
1 31 
1 32 
1 33 
1 34 
1 35 
1 36 
1 37 
1 38 
1 39 
1 40 
1 41 
1 42 
1 43 
1 44 
1 45 
1 46 
1 47 
1 48 
1 49 
1 50 
1 51 
1 52 
1 53 
1 54 
1 55 
1 56 
1 57 
1 58 
1 59 
1 60 
1 61 
1 62 
1 63 
1 64 
1 65 
1 66 
1 67 
1 68 
1 69 

POINT_DATA 70
FIELD FieldData 7
id 1 70 int
44 385 837 467 208 1157 595 732 912 
398 1986 663 895 1438 1371 720 936 1782 
2710 2509 1606 2873 2267 2166 2790 1929 1751 
2149 1464 3209 3724 5509 4708 5103 5420 4179 
3102 4006 2454 2566 4052 5050 5377 4796 2117 
5402 2640 4989 3206 3770 3475 4482 5353 3841 
3510 2996 2782 3228 4362 5397 3265 4280 3932 
4610 4181 3909 2252 3857 3057 3364 
type 1 70 int
2 2 2 2 2 2 2 2 2 
2 2 2 2 2 2 2 2 2 
2 2 2 2 2 2 2 2 2 
2 2 2 2 2 2 2 2 2 
2 2 2 2 2 2 2 2 2 
2 2 2 2 2 2 2 2 2 
2 2 2 2 2 2 2 2 2 
2 2 2 2 2 2 2 
i 3 70 int
0 0 0 0 0 0 0 0 0 
0 0 0 0 0 0 0 0 0 
0 0 0 0 0 0 0 0 0 
0 0 0 0 0 0 0 0 0 
0 0 0 0 0 0 0 0 0 
0 0 0 0 0 0 0 0 0 
0 0 0 0 0 0 0 0 0 
0 0 0 0 0 0 0 0 0 
0 0 0 0 0 0 0 0 0 
0 0 0 0 0 0 0 0 0 
0 0 0 0 0 0 0 0 0 
0 0 0 0 0 0 0 0 0 
0 0 0 0 0 0 0 0 0 
0 0 0 0 0 0 0 0 0 
0 0 0 0 0 0 0 0 0 
0 0 0 0 0 0 0 0 0 
0 0 0 0 0 0 0 0 0 
0 0 0 0 0 0 0 0 0 
0 0 0 0 0 0 0 0 0 
0 0 0 0 0 0 0 0 0 
0 0 0 0 0 0 0 0 0 
0 0 0 0 0 0 0 0 0 
0 0 0 0 0 0 0 0 0 
0 0 0 
v 3 70 double
0.0020172086125 0.0021215268885 -0.39939263163 0.0022218108247 -0.0078839224508 -0.40150402006 -0.00069695599796 0.00068798217128 -0.39672236339 
0.00046844708419 -0.0048338003487 -0.39952491185 -0.0026112586051 -0.0038633869501 -0.39681115189 -0.0018964618905 -0.00046391687487 -0.39820401651 
-0.0016665411615 0.00057607880419 -0.3987044623 0.0026851737241 0.0014383803097 -0.39940266767 0.00047968919569 0.00025121254978 -0.39919634697 
0.0021472599547 0.0017084125475 -0.39768281917 0.00025951015754 -0.00021061732546 -0.39829841555 -0.0038032050579 0.0015260539344 -0.3986880492 
-1.8379068511e-05 -0.0030124067844 -0.39272343595 0.00058340051806 -0.0044904768501 -0.39744288453 -0.00055228097639 0.0037789498478 -0.40624005846 
0.00054082274698 -0.0011358171299 -0.39415673194 -0.0037140850773 -0.00074604981234 -0.39822882963 -0.0016032621699 -0.001982717107 -0.39351447695 
-0.020921952576 0.0047159966052 -0.41480167563 -0.0025536270363 0.0026492212981 -0.36295788094 0.0078081081351 0.0015798625049 -0.38344669501 
0.0084495354874 -0.0082993488585 -0.38895426887 0.0081506114061 0.0108265253 -0.38291487897 0.0013157011691 -0.0011660042514 -0.39499394596 
0.0045753628935 -0.0072748787238 -0.38099046239 0.0013437538883 0.014643130085 -0.3995068184 -0.0018601622925 -0.0011778333069 -0.39599963135 
-0.0077996776764 0.016898287544 -0.36928075697 -0.01609933701 0.029252550309 -0.3687771997 0.024582626074 -0.0014843533991 -0.3929022356 
0.003792799882 0.0038505470501 -0.31224276099 -0.039849495587 -0.021223867227 -0.10082564457 -0.061854222887 -0.11595038827 -0.25860370136 
0.077109725877 -0.13515514772 -0.28459008517 -0.084868069719 0.11688496439 -0.072014985422 0.036187596668 0.019295214008 -0.25745742316 
0.22329149616 0.058707041525 -0.1790018587 -0.071544706903 -0.11651533017 -0.090778866999 0.078788431211 0.04457775048 -0.1711171211 
-0.30627826253 -0.072554071465 -0.2858045272 -0.14063566955 -0.021362189443 -0.26104527623 -0.0096544744549 -0.17411168469 -0.18810793353 
0.11115934295 -0.048205875943 -0.17459332264 -0.081797279688 0.28117447777 -0.19982415455 0.01599166882 -0.057218358594 -0.24610166854 
0.064759873113 0.0017913967161 -0.11364804281 0.070225801133 0.0048639748488 -0.41746990756 -0.10412405821 -0.10120171175 -0.03754233827 
-0.053047829988 0.018592580138 0.11840403832 0.30427573371 0.21869653167 -0.06817250155 -0.088740676081 -0.0039381581672 0.09315324854 
-0.10747503897 0.15751732272 -0.02616477037 0.059463720177 -0.01636211006 -0.043408452084 0.10074967203 -0.100982484 0.018548886667 
-0.038242638169 0.031714021887 -0.18505440593 0.10917724931 0.1102846723 0.066907777434 0.15146187041 0.010171173345 0.032558480883 
-0.17303387348 0.031975936519 -0.092435909635 -0.098114568091 -0.075879595781 -0.067517321808 -0.028189826016 -0.040679790973 -0.19478987391 
0.047327290709 0.085488273133 -0.046161416005 -0.036024284701 -0.051039891872 -0.18366018933 -0.077638640069 -0.010613584813 0.048865999158 
-0.02760353416 0.15296328304 0.021286377752 -0.24998466321 -0.1781327842 -0.15670983014 0.08084335665 -0.11265896594 0.020141945289 
-0.090829926024 -0.085358042987 0.014868552628 -0.018984961456 0.039326404888 0.046451909675 0.1826115322 -0.030080226198 -0.023909712502 
0.090944333838 0.23212729309 -0.019076811751 
f 3 70 double
0 0 -0.0012841259972 0.0026748073118 -0.006331617264 0.00041807682335 0 0 -0.0012841259972 
0 0 -0.0012841259972 0 0 -0.0012841259972 0 0 -0.0012841259972 
0 0 -0.0012841259972 0 0 -0.0012841259972 0 0 -0.0012841259972 
0 0 -0.0012841259972 -0.0042529857725 -0.0039853110334 -0.0062851224573 0 0 -0.0012841259972 
0 0 -0.0012841259972 0 0 -0.0012841259972 0 0 -0.0012841259972 
0 0 -0.0012841259972 0 0 -0.0012841259972 0 0 -0.0012841259972 
0 0 -0.0012841259972 0 0 -0.0012841259972 0 0 -0.0012841259972 
0 0 -0.0012841259972 0 0 -0.0012841259972 0 0 -0.0012841259972 
0 0 -0.0012841259972 0 0 -0.0012841259972 0.0054697433882 -0.0031810341376 0.0011010793065 
0 0 -0.0012841259972 0 0 -0.0012841259972 0 0 -0.0012841259972 
0 0 -0.0012841259972 0 0 -0.0012841259972 0 0 -0.0012841259972 
0 0 -0.0012841259972 0 0 -0.0012841259972 0 0 -0.0012841259972 
0 0 -0.0012841259972 0 0 -0.0012841259972 0 0 -0.0012841259972 
0 0 -0.0012841259972 0 0 -0.0012841259972 0 0 -0.0012841259972 
0 0 -0.0012841259972 0 0 -0.0012841259972 0 0 -0.0012841259972 
0 0 -0.0012841259972 0 0 -0.0012841259972 0 0 -0.0012841259972 
0 0 -0.0012841259972 0 0 -0.0012841259972 0 0 -0.0012841259972 
0 0 -0.0012841259972 0 0 -0.0012841259972 0 0 -0.0012841259972 
0 0 -0.0012841259972 0 0 -0.0012841259972 0 0 -0.0012841259972 
0 0 -0.0012841259972 0 0 -0.0012841259972 0 0 -0.0012841259972 
0 0 -0.0012841259972 0.9156315275 -0.20236921393 0.22614014451 0 0 -0.0012841259972 
0 0 -0.0012841259972 0 0 -0.0012841259972 0 0 -0.0012841259972 
0 0 -0.0012841259972 0 0 -0.0012841259972 0 0 -0.0012841259972 
0 0 -0.0012841259972 
radius 1 70 double
0.005 0.005 0.005 0.005 0.005 0.005 0.005 0.005 0.005 
0.005 0.005 0.005 0.005 0.005 0.005 0.005 0.005 0.005 
0.005 0.005 0.005 0.005 0.005 0.005 0.005 0.005 0.005 
0.005 0.005 0.005 0.005 0.005 0.005 0.005 0.005 0.005 
0.005 0.005 0.005 0.005 0.005 0.005 0.005 0.005 0.005 
0.005 0.005 0.005 0.005 0.005 0.005 0.005 0.005 0.005 
0.005 0.005 0.005 0.005 0.005 0.005 0.005 0.005 0.005 
0.005 0.005 0.005 0.005 0.005 0.005 0.005 
omega 3 70 double
0.19372430148 -0.092591477471 0.069511165431 -0.45060805382 -0.08033486463 0.4069468633 -0.35201332989 -0.14177939327 0.55502998738 
0.62273179304 -0.13859969314 0.3213263111 -0.059090603725 -0.30178475354 0.13893847522 0.34738918023 0.2226141683 0.23983464 
-0.1350296975 -0.033036548595 0.19654962762 -0.17204180423 0.44407476235 0.10022008579 -0.3415047163 -0.21347703994 -0.097451104415 
-0.15897806002 -0.84814842908 -0.025595186767 -0.14803480094 -0.26598852285 -0.059301951796 -0.32358411392 -0.57797789134 0.23612549651 
0.48485817145 -0.68060587741 0.15200029401 -0.08745491881 0.97551425721 0.63741432599 -0.79968381113 0.43723455836 0.20136989844 
0.061519884117 0.10280169357 -0.064115571433 0.12261407582 0.13751844385 0.44866665512 1.1009038507 -0.66745469082 -1.0807387459 
0.37384474923 -2.3574343576 0.59327200455 3.06293135 1.0270118172 0.38508218765 -1.0364053356 0.24747629595 -0.4512515452 
0.30924932259 3.2118455643 2.4142485679 3.8586083241 -4.3882893424 1.8189348692 0.038019395091 -0.097279422646 0.29448215 
4.1711124049 -1.3202649306 -0.29209129962 -1.8301077503 -0.30479529572 0.23430179667 0.15600386754 -0.84914743952 0.046944479668 
1.6992970163 1.3613917167 1.2410624664 4.7076670462 -1.4351349525 -1.816619063 -6.3896548501 -2.5656071598 -0.48285315488 
-6.7792592835 4.3485277943 -5.5563822232 18.149047685 1.8368820095 17.964384587 -22.15566518 -7.1468930324 -1.4839693577 
0.26529720737 -7.4671227368 -10.384307991 7.1191055561 5.3453369806 -9.2634922244 -3.6098434403 18.673317195 0.22026148676 
7.4846450086 -29.392387772 -14.419262931 -1.7657612568 -11.187622093 22.877994774 -16.024864033 -23.78201407 -15.705014553 
-31.551113553 21.02691794 27.350067255 23.482799226 -15.309810055 -7.6900824973 -12.879854814 -10.00717139 0.8317019861 
-7.6369780076 12.703544469 -0.77017185401 -22.763199207 1.8051897981 10.122171147 4.9987093616 -0.55524008193 -8.0849987084 
0.76385047 -17.832826326 -25.874394118 1.6822560175 -6.3906272849 1.3230093511 -9.4296777452 -42.220364747 16.464580358 
-28.294279728 18.788071916 -0.86541580485 0.1136275974 -13.324026032 1.5730224804 2.0083487518 88.225867713 10.626345887 
-33.079551234 -19.690780374 -40.030798859 3.8730403625 -22.147652548 -12.311521089 50.45172612 -24.714745848 -61.037046547 
-9.5202087348 5.5149378171 -3.2747425232 4.8406022656 -9.2697328066 -11.735912094 -13.877392061 -9.440042229 3.7445919735 
-17.884781559 4.5140082096 15.174400389 -16.032802924 -4.1197557003 -17.013375983 13.983741053 2.1369388487 -3.159338201 
0.45655432762 7.9966445826 -13.114657594 41.520072096 -11.34140278 -58.761122335 28.584162809 -24.886586139 -18.567610487 
-25.012294578 -13.229055619 -0.21106176352 19.140916939 11.832981179 4.3754000198 14.925376255 -8.5552375701 38.747652841 
-1.3545575236 -14.872060281 0.35683027984 -16.153715721 -16.730039326 -13.173281954 34.414421266 9.2896513344 27.701762341 
16.215607498 27.958039098 15.627097771 
