# vtk DataFile Version 4.2
Generated by LIGGGHTS
ASCII
DATASET POLYDATA
POINTS 70 float
0.00988476 -0.0251314 0.018999 -0.0382072 -0.00104117 0.0178785 -0.00272238 -0.00877722 0.0233989 
-0.01155 0.0161904 0.0204107 -0.0149811 -0.030505 0.0304351 -0.00754978 -0.0366258 0.0271196 
0.00555797 -0.0347628 0.0270033 -0.0203051 -0.0216388 0.0309061 0.0278808 -0.0252599 0.029747 
-0.016289 -0.00884427 0.0267862 0.0142383 -0.00694411 0.0337547 0.0331187 -0.00893175 0.0261845 
-0.00413665 0.00783664 0.0276089 0.00460631 0.00467718 0.0321013 0.00976067 0.018033 0.0275505 
0.0308704 0.0145026 0.0278575 -0.00341576 0.021078 0.0253512 -0.00758678 0.0304955 0.0268208 
0.00955835 0.030307 0.0264871 0.00739146 -0.0342634 0.0452478 0.0128275 -0.0398148 0.0352397 
0.0236881 -0.0316496 0.0380162 -0.0296659 -0.0242865 0.0344948 -0.0108208 -0.0210576 0.0350881 
0.0115744 -0.0248246 0.0432851 0.0319258 -0.0264765 0.0414804 -0.0259563 -0.0165086 0.0407029 
0.0281892 -0.0158404 0.0426424 -0.0369307 -0.00494415 0.0338118 -0.0141004 -0.00104344 0.0426655 
-0.0265743 0.0032601 0.0447491 0.0182944 0.00563286 0.0345696 0.0349786 0.0025016 0.0367604 
0.00310821 0.0216938 0.0369735 -0.00631218 0.0369487 0.0422933 -0.00739553 -0.0386484 0.0509727 
-0.0369104 -0.0196872 0.0477907 -0.0178206 -0.0218473 0.0516474 0.0242662 -0.0198475 0.0524346 
0.00137428 -0.0172582 0.0520727 0.0305804 -0.0116958 0.0529913 -0.00400045 -0.00595753 0.0556742 
0.0400123 -0.00685551 0.0537743 -0.0120666 0.00975066 0.0533725 -0.0159308 0.0182733 0.0473232 
-0.00787909 0.019805 0.0551638 0.00572503 0.0179885 0.0543153 0.0297302 0.0126675 0.0546882 
0.0398195 0.0108723 0.0521199 -0.0293347 0.0240869 0.0544557 0.0287388 0.0268392 0.055401 
-0.0236722 0.0306473 0.0488661 -0.0138431 0.038388 0.0542453 0.00899603 0.0301176 0.055383 
-0.019993 -0.0317233 0.0611293 -0.00475482 -0.0308065 0.059686 0.0238532 -0.0297078 0.06225 
0.0163259 -0.0202478 0.0591226 -0.0380549 -0.0165298 0.0656608 -0.0144006 -0.0113135 0.0618026 
0.036753 -0.0180515 0.0650361 -0.0260493 -0.010313 0.0657688 0.0131601 -0.0027447 0.0575188 
-0.0364103 0.00683797 0.0595418 0.0203685 0.00309295 0.0617207 -0.0283622 0.0125002 0.0618067 
0.0383155 0.0149832 0.0611658 0.00094085 0.0303506 0.0636674 0.0164478 0.0367803 0.0604814 
0.00867083 0.0405602 0.0684803 
VERTICES 70 140
1 0 
1 1 
1 2 
1 3 
1 4 
1 5 
1 6 
1 7 
1 8 
1 9 
1 10 
1 11 
1 12 
1 13 
1 14 
1 15 
1 16 
1 17 
1 18 
1 19 
1 20 
1 21 
1 22 
1 23 
1 24 
1 25 
1 26 
1 27 
1 28 
1 29 
1 30 
1 31 
1 32 
1 33 
1 34 
1 35 
1 36 
1 37 
1 38 
1 39 
1 40 
1 41 
1 42 
1 43 
1 44 
1 45 
1 46 
1 47 
1 48 
1 49 
1 50 
1 51 
1 52 
1 53 
1 54 
1 55 
1 56 
1 57 
1 58 
1 59 
1 60 
1 61 
1 62 
1 63 
1 64 
1 65 
1 66 
1 67 
1 68 
1 69 

POINT_DATA 70
FIELD FieldData 7
id 1 70 int
28 112 1004 249 373 340 681 466 421 
474 1296 205 907 1331 307 973 586 716 
197 1563 1267 1244 455 1449 1535 1405 1508 
1364 805 2039 1933 1144 369 1092 886 1150 
733 1400 2735 2111 2724 2721 1627 2199 1075 
1614 2109 1767 2156 1100 1956 1642 2331 1616 
2779 2714 2527 1924 2701 1964 2266 2389 2012 
2432 1692 1894 2556 1872 2586 1752 
type 1 70 int
2 2 2 2 2 2 2 2 2 
2 2 2 2 2 2 2 2 2 
2 2 2 2 2 2 2 2 2 
2 2 2 2 2 2 2 2 2 
2 2 2 2 2 2 2 2 2 
2 2 2 2 2 2 2 2 2 
2 2 2 2 2 2 2 2 2 
2 2 2 2 2 2 2 
i 3 70 int
0 0 0 0 0 0 0 0 0 
0 0 0 0 0 0 0 0 0 
0 0 0 0 0 0 0 0 0 
0 0 0 0 0 0 0 0 0 
0 0 0 0 0 0 0 0 0 
0 0 0 0 0 0 0 0 0 
0 0 0 0 0 0 0 0 0 
0 0 0 0 0 0 0 0 0 
0 0 0 0 0 0 0 0 0 
0 0 0 0 0 0 0 0 0 
0 0 0 0 0 0 0 0 0 
0 0 0 0 0 0 0 0 0 
0 0 0 0 0 0 0 0 0 
0 0 0 0 0 0 0 0 0 
0 0 0 0 0 0 0 0 0 
0 0 0 0 0 0 0 0 0 
0 0 0 0 0 0 0 0 0 
0 0 0 0 0 0 0 0 0 
0 0 0 0 0 0 0 0 0 
0 0 0 0 0 0 0 0 0 
0 0 0 0 0 0 0 0 0 
0 0 0 0 0 0 0 0 0 
0 0 0 0 0 0 0 0 0 
0 0 0 
v 3 70 double
0.0042868956035 0.0050797922389 -0.19479219972 0.00077036315443 0.0086824737222 -0.20699046639 -0.00017777720609 0.0049173318351 -0.19155742675 
0.00016574309946 0.0034372770553 -0.18577405688 0.011763523148 0.013955361112 -0.17290857411 0.0086115283454 0.0011420142432 -0.18037946515 
-0.011047630128 -0.017526516744 -0.16403195664 -0.01378268652 -0.011597353061 -0.17339522001 0.009257070735 0.027298758579 -0.15228927035 
-0.00011631416513 -0.0036094472611 -0.18597707891 -0.013690341811 0.012077159895 -0.13746536292 -0.017323920161 -0.016631924916 -0.19639549187 
-0.024977551035 0.014254495844 -0.1705868516 -0.017656740745 0.018362622917 -0.16780809724 0.0056359344493 0.0013942464448 -0.1637293196 
-0.037339135244 -0.014495079268 -0.17920139105 0.0034711611699 0.017545116652 -0.22255101913 0.0034426009827 -0.0073868710862 -0.15338681543 
0.0032922157356 -0.0047755559596 -0.18161655661 -0.015087488144 -0.054761550047 0.00036045659551 -0.023493720929 0.0052801616978 -0.11691042236 
0.010838469761 -0.0069094242183 -0.093821383508 -0.055634211547 -0.031233928147 -0.10541911102 0.019938810608 -0.039803913151 -0.15055358465 
0.0044822959106 0.016654937367 -0.10050993851 -0.023729084989 -0.018006331531 -0.067215287677 -0.022085727274 0.01890995345 -0.062327419659 
-0.085940919472 0.0072024370554 -0.06580098152 0.014714510892 0.0057387300439 -0.18146010005 -0.0082158330999 -0.0098753514329 -0.11197079164 
0.037605044974 0.040515083413 -0.028804852574 -0.035242260283 0.0088655094482 -0.17203335114 0.0048512518422 0.036390197958 -0.15872053962 
-0.017303776859 0.0036472456716 -0.10053531043 -0.013981364408 -0.019162134019 -0.10403543823 -0.066533725861 0.095901294374 0.0026922911029 
-0.089690536748 0.078363168478 0.08790462749 -0.044302911621 -0.1684541701 0.063537683279 -0.17534419355 -0.059714345986 -0.014145167388 
-0.015711139368 0.16032337164 0.075505742963 0.11408024922 -0.061014876036 -0.017129625905 -0.011019784932 0.067696588983 0.10396299943 
0.26455961596 -0.083616551853 -0.019888563357 -0.1291055778 -0.094103684035 0.036443458927 0.071422210175 0.13489944854 0.016025118206 
-0.011341649592 0.076279787719 0.1178706244 -0.15036122415 0.0019279185111 0.14882641914 0.12409913566 -0.1716398933 0.11684046741 
-0.0038721169671 -0.10535342582 0.087037264965 0.12641067537 0.051046968406 0.165062926 0.14900374272 0.053087273298 0.12491421157 
0.04573925203 -0.036428100269 0.060308611657 -0.016943918196 -0.063384722989 0.042772707244 -0.11747314843 -0.074628357051 0.080449853049 
-0.087330330189 0.019860695481 0.1786727637 -0.25541737259 0.06832860017 0.15694525445 0.098369404846 0.17097858449 0.18762808623 
0.034401972578 0.074493643549 0.087517057053 0.10422230537 -0.0687043718 0.2765191179 -0.2678935358 0.14391794676 0.060379380085 
0.035540250392 -0.24342534141 0.083062763147 0.12247983375 -0.31482900972 0.21266718683 0.14639391776 0.050621871839 0.17320346961 
0.13867745486 -0.097451058506 0.17761764413 -0.24435172087 -0.0053991059146 0.12930638693 -0.061740913221 0.088571579178 0.16835833313 
0.016878508777 -0.067507129047 0.20659716879 0.026983162792 -0.20218557706 0.23719226221 -0.086743245475 0.13251280324 0.047076649435 
-0.05339034786 0.034794775766 0.30951545337 
f 3 70 double
0 0 -0.0012841259972 0 0 -0.0012841259972 0 0 -0.0012841259972 
0 0 -0.0012841259972 0 0 -0.0012841259972 0 0 -0.0012841259972 
0 0 -0.0012841259972 0 0 -0.0012841259972 0 0 -0.0012841259972 
0 0 -0.0012841259972 0 0 -0.0012841259972 0 0 -0.0012841259972 
0 0 -0.0012841259972 0 0 -0.0012841259972 0 0 -0.0012841259972 
-0.1747826159 -0.13334490857 -0.10411737635 0 0 -0.0012841259972 0 0 -0.0012841259972 
0 0 -0.0012841259972 0 0 -0.0012841259972 0 0 -0.0012841259972 
0 0 -0.0012841259972 0 0 -0.0012841259972 0 0 -0.0012841259972 
0 0 -0.0012841259972 0 0 -0.0012841259972 0 0 -0.0012841259972 
0 0 -0.0012841259972 1.3768124844e-05 -0.023434137845 -0.055081885294 0 0 -0.0012841259972 
0 0 -0.0012841259972 0 0 -0.0012841259972 0 0 -0.0012841259972 
0.0002115478042 0.00019239638901 -0.0013679002866 0 0 -0.0012841259972 0 0 -0.0012841259972 
0 0 -0.0012841259972 0 0 -0.0012841259972 0 0 -0.0012841259972 
0 0 -0.0012841259972 0 0 -0.0012841259972 0 0 -0.0012841259972 
0 0 -0.0012841259972 0 0 -0.0012841259972 0 0 -0.0012841259972 
0 0 -0.0012841259972 0 0 -0.0012841259972 0 0 -0.0012841259972 
0 0 -0.0012841259972 0 0 -0.0012841259972 0 0 -0.0012841259972 
0 0 -0.0012841259972 0 0 -0.0012841259972 0 0 -0.0012841259972 
0 0 -0.0012841259972 0 0 -0.0012841259972 0 0 -0.0012841259972 
0 0 -0.0012841259972 0 0 -0.0012841259972 0 0 -0.0012841259972 
0 0 -0.0012841259972 0 0 -0.0012841259972 0 0 -0.0012841259972 
0 0 -0.0012841259972 0 0 -0.0012841259972 0 0 -0.0012841259972 
0 0 -0.0012841259972 0 0 -0.0012841259972 0 0 -0.0012841259972 
0 0 -0.0012841259972 
radius 1 70 double
0.005 0.005 0.005 0.005 0.005 0.005 0.005 0.005 0.005 
0.005 0.005 0.005 0.005 0.005 0.005 0.005 0.005 0.005 
0.005 0.005 0.005 0.005 0.005 0.005 0.005 0.005 0.005 
0.005 0.005 0.005 0.005 0.005 0.005 0.005 0.005 0.005 
0.005 0.005 0.005 0.005 0.005 0.005 0.005 0.005 0.005 
0.005 0.005 0.005 0.005 0.005 0.005 0.005 0.005 0.005 
0.005 0.005 0.005 0.005 0.005 0.005 0.005 0.005 0.005 
0.005 0.005 0.005 0.005 0.005 0.005 0.005 
omega 3 70 double
0.2289571128 -0.19725292386 0.51190970881 2.1043507803 -0.48664963875 -1.1940647592 -3.2002976932 -3.4243093532 1.4425080359 
-0.60477968407 0.41666746325 0.79746097062 1.8080971757 5.2126466626 -2.9005452138 -2.1516106178 0.47607493512 -3.3728461558 
-5.1395744414 2.9347296715 0.10686851745 1.9487186227 -0.58914911105 -2.8657117038 -0.11454222567 0.25031445678 -0.5807998782 
1.6393949071 8.4932540323 1.829857675 -2.1162886132 10.178831544 1.9145855579 1.4767016798 -9.28259113 1.7228633043 
0.86800522325 -3.3149192588 0.87518337356 -5.7011445469 -1.7187091465 4.0196696364 -1.3466165601 5.8022234293 1.9060357591 
-2.5522490976 -2.2629158823 0.73462657215 1.0460807538 -1.51597487 8.0296791495 -1.1970631722 1.0814509124 -1.0180863995 
-1.6824688955 -0.11000257433 -3.0744353868 -15.159382378 4.2643374459 14.638241088 -2.5086344479 0.27931289445 0.45586219702 
0.058860119238 -5.7406458806 -8.17312915 2.0589263615 -2.5788289613 -5.822879702 1.5396570954 -1.0771805159 3.8828836705 
-1.5747361295 4.0914785586 -9.3832985482 2.3402262165 -1.8290347838 3.5095384175 7.7918030521 -5.9373866394 4.7433505937 
5.8399855378 12.823858163 -10.406439066 -8.9815611741 5.431626601 -0.065778706084 1.8953594026 13.136405544 -12.47468948 
8.4754385698 -1.7920214365 15.248720225 -2.0820782556 5.402130955 -3.843141221 -3.7909081633 -3.2076822485 -1.4938803342 
-1.0656124349 -2.5693630078 -3.540660946 7.1241099294 0.99709267113 4.758919619 -9.4464116964 -3.8380077008 -0.53689695326 
25.426538763 20.423772099 -12.060207215 -5.1455224104 20.109836298 -17.35336551 -11.659623271 -12.024514462 -21.261432597 
-6.7748916602 -2.3142045379 -6.7999167212 21.742144415 30.117775646 -33.165762225 -8.0433849512 -39.273574822 36.010340323 
12.862961764 -14.407608281 21.340607872 4.0269848878 -0.85189605384 -0.26296906331 24.402590324 -13.747421831 8.3431125541 
-14.686773273 -23.403345853 -6.9555381605 -25.759004558 -3.0579720566 5.0342311878 -0.51614298474 3.7580798499 -21.564599165 
20.845325976 3.6701425676 -3.2702078118 0.65152068916 14.483963873 25.35468987 -6.5940584063 -15.711004858 -6.8362504438 
0.29004709364 -2.6862711054 -9.0982181663 0.40376830648 -3.8942654979 3.083794081 13.314828356 -2.4383881606 21.29493909 
8.2812391613 0.012248504063 -7.6226715167 -22.840161221 29.752674932 -9.6872413141 -12.100994961 -26.259097419 17.976003126 
19.287580385 17.802248658 7.2877062874 -33.922252995 -12.73533857 19.235068636 -17.230896881 -37.60694446 15.784678186 
26.546226128 -3.0917365576 -25.940138903 54.371942241 45.226157168 13.529769129 0.86380254943 -16.974807233 18.556651888 
57.932909034 -16.252664955 -4.3251986103 33.2597909 -11.221321546 -6.0707758771 -3.6496869723 -0.11212599294 26.792542716 
-64.794737717 -16.775962389 3.9491839072 14.11384275 -30.742780149 21.760585269 -34.425298522 -25.865363144 -11.004937526 
-31.020160049 2.1388853081 -17.443256859 
