# vtk DataFile Version 4.2
Generated by LIGGGHTS
ASCII
DATASET POLYDATA
POINTS 70 float
0.0119653 -0.0318648 0.038985 -0.0241867 -0.020702 0.0402558 -0.0152917 -0.029497 0.0390142 
-0.000717079 -0.0281944 0.0391318 -0.0335311 -0.015485 0.0431458 -0.0129391 -0.0187666 0.0400595 
0.00117493 -0.013301 0.0385842 0.0136113 -0.0161153 0.0424868 0.0254233 -0.0135511 0.0409967 
-0.0402216 -0.0021501 0.0388154 -0.0266571 -0.00873135 0.0394709 -0.0177953 -0.00468853 0.0420223 
0.0222764 -0.00220412 0.0419884 -0.0222662 0.00453084 0.0410702 -0.0104919 0.00110255 0.0380319 
-0.0139901 0.0088997 0.044671 -0.000308473 0.00280347 0.0412037 0.0121147 0.00220343 0.0450251 
0.0295419 0.00622129 0.0428371 0.0402913 0.00944519 0.0442645 -0.0364951 0.0101055 0.0421689 
-0.0367054 0.0201651 0.0387986 -0.0266981 0.014411 0.045291 -0.00406717 0.0146742 0.0400388 
0.0155569 0.013597 0.0419917 -0.0233255 0.0239716 0.0398469 -0.0123455 0.0288363 0.0441791 
-0.00325749 0.0246517 0.0421252 0.0367449 0.0203294 0.0419351 -0.0191263 0.0359256 0.0421469 
0.00672311 0.0317311 0.0392722 0.0150348 0.0385307 0.0426546 0.0242188 0.0331108 0.0446311 
0.00187149 0.041633 0.0400165 -0.00147175 -0.0403215 0.0540084 -0.0116237 -0.0377876 0.0523332 
0.00419526 -0.0352155 0.045708 -0.0226083 -0.0290946 0.0458832 -0.0122915 -0.0268521 0.0503734 
-0.000379888 -0.0234295 0.0505456 0.0109501 -0.0252428 0.0480483 0.0263469 -0.0243801 0.051126 
-0.0255019 -0.0132027 0.0499175 -0.0102489 -0.016571 0.0514543 0.0033723 -0.0136502 0.0500523 
0.0354922 -0.0160727 0.0460358 -0.0399477 -0.00376236 0.0501909 -0.00973203 -0.00109186 0.051014 
-0.0318472 0.00138014 0.046348 0.0351364 0.00984552 0.0539979 -0.0153144 0.0189916 0.046738 
-0.0104992 0.0127851 0.0543182 5.42253e-05 0.0112358 0.0486005 0.0265571 0.0137965 0.0488623 
0.0183897 0.0247411 0.0463962 -0.0282639 0.0302931 0.0466991 -0.0123809 0.0329758 0.0535355 
-0.000811672 0.0336475 0.0466786 -0.0081061 0.0410839 0.0460618 0.0100192 -0.0393184 0.0622177 
-0.0204457 -0.0207305 0.0545324 0.0010476 -0.0219763 0.0614064 0.0111917 -0.00411036 0.0602235 
0.034546 -0.00961862 0.0558252 -0.0358168 0.00607788 0.0602503 0.00962551 0.0090481 0.0554959 
0.00987173 0.0171365 0.0640192 0.00317356 0.0385366 0.0563457 -0.0319774 -0.0199839 0.0662723 
-0.0165735 -0.0297631 0.0667208 
VERTICES 70 140
1 0 
1 1 
1 2 
1 3 
1 4 
1 5 
1 6 
1 7 
1 8 
1 9 
1 10 
1 11 
1 12 
1 13 
1 14 
1 15 
1 16 
1 17 
1 18 
1 19 
1 20 
1 21 
1 22 
1 23 
1 24 
1 25 
1 26 
1 27 
1 28 
1 29 
1 30 
1 31 
1 32 
1 33 
1 34 
1 35 
1 36 
1 37 
1 38 
1 39 
1 40 
1 41 
1 42 
1 43 
1 44 
1 45 
1 46 
1 47 
1 48 
1 49 
1 50 
1 51 
1 52 
1 53 
1 54 
1 55 
1 56 
1 57 
1 58 
1 59 
1 60 
1 61 
1 62 
1 63 
1 64 
1 65 
1 66 
1 67 
1 68 
1 69 

POINT_DATA 70
FIELD FieldData 7
id 1 70 int
28 2527 2724 2199 112 1075 1752 2735 1614 
373 1933 1004 2701 1508 421 2586 1331 2266 
205 2779 2389 2432 1405 307 886 2012 907 
249 1267 1872 1692 2156 1767 369 2714 474 
1150 716 466 1400 340 2331 586 2039 2556 
1563 1964 805 1296 197 1100 1894 1364 1535 
1616 1924 1642 2721 1092 733 2109 1449 681 
1627 1144 973 1244 1956 455 2111 
type 1 70 int
2 2 2 2 2 2 2 2 2 
2 2 2 2 2 2 2 2 2 
2 2 2 2 2 2 2 2 2 
2 2 2 2 2 2 2 2 2 
2 2 2 2 2 2 2 2 2 
2 2 2 2 2 2 2 2 2 
2 2 2 2 2 2 2 2 2 
2 2 2 2 2 2 2 
i 3 70 int
0 0 0 0 0 0 0 0 0 
0 0 0 0 0 0 0 0 0 
0 0 0 0 0 0 0 0 0 
0 0 0 0 0 0 0 0 0 
0 0 0 0 0 0 0 0 0 
0 0 0 0 0 0 0 0 0 
0 0 0 0 0 0 0 0 0 
0 0 0 0 0 0 0 0 0 
0 0 0 0 0 0 0 0 0 
0 0 0 0 0 0 0 0 0 
0 0 0 0 0 0 0 0 0 
0 0 0 0 0 0 0 0 0 
0 0 0 0 0 0 0 0 0 
0 0 0 0 0 0 0 0 0 
0 0 0 0 0 0 0 0 0 
0 0 0 0 0 0 0 0 0 
0 0 0 0 0 0 0 0 0 
0 0 0 0 0 0 0 0 0 
0 0 0 0 0 0 0 0 0 
0 0 0 0 0 0 0 0 0 
0 0 0 0 0 0 0 0 0 
0 0 0 0 0 0 0 0 0 
0 0 0 0 0 0 0 0 0 
0 0 0 
v 3 70 double
0.093788345593 0.037947128063 0.10005262529 -0.30497340665 0.20194039993 0.09730502406 0.0014837098976 -0.0071592411614 0.23762614394 
-0.14351607568 -0.050852915889 0.35415313881 0.05877946999 0.094674564961 0.51529568408 0.068506815199 -0.060976000576 0.35805051632 
-0.13964284984 0.17556382475 0.21678539897 0.28439151488 -0.036969850458 0.21715912829 0.34652714976 0.26532167133 0.39940220796 
-0.43342768351 0.11758698458 0.38296318535 0.26178480711 -0.29574995862 0.26213613394 -0.093845232772 -0.097902199622 0.27461143967 
0.11640018317 0.28064535529 0.25920487634 0.25720415692 -0.083061350286 0.35841425245 -0.17572204807 -0.16182665953 0.26900639362 
-0.06033599128 -0.2662288612 0.13288261228 -0.064422202092 0.023189792926 0.24724410408 -0.096342731889 -0.21894459073 0.6369454416 
-0.043134364972 0.22963889236 0.12784083018 0.047648626869 -0.088874430394 0.62369997068 -0.022817353464 0.036025533159 0.45964331516 
-0.0021498699492 0.19741151022 0.44325938424 -0.11875015839 0.023370467182 0.4260782996 -0.045447830419 -0.04546124143 0.19085519331 
0.080703620184 -0.085216379749 0.46792888442 -0.079824306542 0.12664854072 0.43998077476 -0.027015432918 -0.022207017475 0.49366076572 
-0.16791203923 -0.13788158301 0.27835374397 0.20486375455 0.13252249155 0.36496631521 -0.047631369445 0.033844877404 0.42814941578 
0.012479268575 0.091326675369 0.33059659415 0.12925158591 -0.28933219807 0.27753231104 0.37562759881 -0.068560206788 0.25789520346 
0.2430813526 -0.17046010598 0.29106580633 -0.29005993215 -0.13885941944 -0.088235173955 -0.080696480949 0.020772518087 -0.46469754915 
-0.11889646025 0.032309466194 -0.18511884918 -0.25254470486 -0.28065515642 0.18444195242 0.0066771025383 -0.1971985119 0.14305796288 
0.13987579039 0.0026894245707 0.25141306202 0.11826763414 -0.13044482902 -0.16374548999 -0.066918978216 0.0044221022338 -0.34581578175 
-0.34664594613 -0.22719115141 0.39290423212 0.14729252979 -0.036173163883 0.53070232192 0.13496556108 0.40141858647 0.29187512546 
0.066769282082 0.048745306183 -0.45689313782 0.066399381048 -0.33244383606 0.28034148057 -0.25055076347 -0.17239509758 0.46921746598 
-0.13140473291 -0.11495613696 0.20980552065 0.057879560562 -0.018972651203 -0.36283128251 0.34964586218 0.015583370688 0.28187155631 
-0.0031541539657 0.35959089025 0.33986860206 0.12109354323 -0.030576174366 -0.01936045732 -0.082237365273 0.42889811365 0.15795601426 
0.26172597732 -0.067202287232 0.1267033034 0.14621919157 0.014964456523 0.78956933757 -0.11031267213 0.17982944467 0.39126840191 
-0.14097180127 0.043852596189 0.34083715741 -0.42777464126 0.34084036586 0.3852731035 -0.021311974208 -0.083256205962 -0.28466294488 
0.15627225116 0.012074136373 -0.51851781983 -0.093445938582 0.037640328879 -0.3118403008 -0.11698970776 0.12497894588 -0.26609633186 
-0.10935420891 -0.046357388775 -0.42121373761 0.16580739682 0.26233347757 0.36629561512 0.17507757817 -0.10663069998 -0.19494689947 
-0.067415585441 -0.080362865573 -0.32697423086 -0.047817558225 0.16382741563 0.087346733601 0.096334934936 0.11027015734 -0.20649995397 
-0.19532459627 -0.13008866581 -0.20043644481 
f 3 70 double
0 0 -0.0012841259972 0 0 -0.0012841259972 0 0 -0.0012841259972 
0 0 -0.0012841259972 0 0 -0.0012841259972 0 0 -0.0012841259972 
0 0 -0.0012841259972 0 0 -0.0012841259972 0 0 -0.0012841259972 
0 0 -0.0012841259972 0.27201152192 -0.81116029083 0.035712749892 0 0 -0.0012841259972 
0 0 -0.0012841259972 0 0 -0.0012841259972 0 0 -0.0012841259972 
0 0 -0.0012841259972 0 0 -0.0012841259972 0 0 -0.0012841259972 
0 0 -0.0012841259972 0 0 -0.0012841259972 0 0 -0.0012841259972 
0 0 -0.0012841259972 0 0 -0.0012841259972 0 0 -0.0012841259972 
0 0 -0.0012841259972 0 0 -0.0012841259972 0 0 -0.0012841259972 
0 0 -0.0012841259972 -0.49210224123 -0.28899158173 -0.0014553889786 0 0 -0.0012841259972 
0 0 -0.0012841259972 0 0 -0.0012841259972 0 0 -0.0012841259972 
0 0 -0.0012841259972 0 0 -0.0012841259972 0 0 -0.0012841259972 
0 0 -0.0012841259972 0 0 -0.0012841259972 0 0 -0.0012841259972 
0 0 -0.0012841259972 0 0 -0.0012841259972 0 0 -0.0012841259972 
0 0 -0.0012841259972 0 0 -0.0012841259972 0 0 -0.0012841259972 
0 0 -0.0012841259972 0 0 -0.0012841259972 0 0 -0.0012841259972 
0 0 -0.0012841259972 0 0 -0.0012841259972 0 0 -0.0012841259972 
0 0 -0.0012841259972 0 0 -0.0012841259972 0 0 -0.0012841259972 
0 0 -0.0012841259972 0 0 -0.0012841259972 0 0 -0.0012841259972 
0 0 -0.0012841259972 0 0 -0.0012841259972 0 0 -0.0012841259972 
0 0 -0.0012841259972 0 0 -0.0012841259972 0 0 -0.0012841259972 
0 0 -0.0012841259972 0 0 -0.0012841259972 0 0 -0.0012841259972 
0 0 -0.0012841259972 0 0 -0.0012841259972 0 0 -0.0012841259972 
0 0 -0.0012841259972 
radius 1 70 double
0.005 0.005 0.005 0.005 0.005 0.005 0.005 0.005 0.005 
0.005 0.005 0.005 0.005 0.005 0.005 0.005 0.005 0.005 
0.005 0.005 0.005 0.005 0.005 0.005 0.005 0.005 0.005 
0.005 0.005 0.005 0.005 0.005 0.005 0.005 0.005 0.005 
0.005 0.005 0.005 0.005 0.005 0.005 0.005 0.005 0.005 
0.005 0.005 0.005 0.005 0.005 0.005 0.005 0.005 0.005 
0.005 0.005 0.005 0.005 0.005 0.005 0.005 0.005 0.005 
0.005 0.005 0.005 0.005 0.005 0.005 0.005 
omega 3 70 double
20.91992043 -32.222884995 -19.503762998 25.846535626 4.836385302 -33.24447591 7.2159042216 -45.006315919 13.68092013 
-12.259304321 -12.210297718 1.0258143385 -6.9452686529 -8.3031690208 1.0178235433 35.529472793 -2.0973964808 -20.594724819 
-0.7467279384 23.382001706 17.220398936 -19.71159915 2.9183046595 -1.8736370406 -35.895954109 57.590299188 -36.495593217 
42.895788152 9.2161899768 24.458064583 -37.761841923 -18.170851755 -30.366019945 -11.087348458 -7.7674383094 -4.194281715 
-14.056475212 -7.2569021125 -23.739314415 27.744506514 5.9264072453 -6.357076825 -3.7683259714 -14.348469712 7.9976233819 
-4.9228138931 27.150660637 -33.971318479 -0.17886595734 43.468806755 9.5179277409 26.137931296 -5.3160829548 -32.230256561 
11.34570527 -21.341726394 -5.0769302714 -7.6808672559 -12.311384002 2.6361649062 -7.1726744392 -34.097389868 12.515483004 
20.336877649 10.343457925 3.2596942507 25.734280216 -17.071147854 2.6328680595 -8.3839191334 50.305073587 -43.211035713 
-1.7568558593 26.973319624 -39.179768393 9.5406466127 -1.6921074497 -12.939469003 -53.776947397 2.1037304946 -18.48192799 
-67.610311528 -10.105986264 20.236640211 41.124598129 -20.518822072 -3.528939663 21.706520243 24.421268041 15.211731901 
10.050368009 -13.270434916 15.565476725 11.320367334 24.054792687 -38.665101159 -30.70941469 26.651686035 -21.823447326 
-10.691343534 24.001558062 -2.4141821237 0.32670544364 -10.79140585 10.807238812 31.110294926 11.81625824 5.2868252035 
6.7975394815 -18.567551374 -1.0786614887 9.0669996613 -15.534846359 33.911012844 12.730012445 -9.9892179523 31.695786479 
-2.3959366595 -31.739010818 20.010680482 -1.8397533921 -16.310606797 -10.747422499 5.8470469158 -1.9898476772 -30.71349514 
18.523332617 -86.628613762 -42.466112431 -4.5339636684 22.58388812 -32.452027522 -4.617379483 20.572479029 20.642790769 
-24.917846359 -16.279205341 4.2432680956 68.00685808 -5.5294378927 14.736817389 7.3153033581 -10.557331217 2.9634356226 
27.797396466 -17.300734158 -20.054912689 -10.588613671 -23.997457525 -14.496711306 -6.6613089419 5.76012789 -12.589858616 
-19.345546578 -23.049555468 -18.866265739 5.685102623 25.936889792 -7.9519101715 -2.3003333439 -20.357094101 -17.489816161 
-65.92955647 36.514234836 22.585511186 -15.61555623 -35.243998739 17.059815741 -7.5456614754 1.5419779799 -8.9719697889 
13.469553514 4.8889970261 2.0963664455 14.08278949 58.158957959 -24.921464588 -1.05169143 -22.083138816 8.1254465709 
-26.660027193 -2.6610186947 24.868726396 -23.632712505 11.550527802 17.035877935 -11.074345644 -17.801408122 -2.5463965236 
30.672766417 41.876599883 -0.12903206767 -31.969143799 -26.815778652 4.7681312733 -5.9574817083 22.174053129 -30.456209703 
1.1734669706 13.024342407 36.479269119 11.723004524 19.637836592 4.797690709 -9.0648893766 20.020565702 -17.112151693 
-30.315341906 25.465548852 10.89560181 
