# vtk DataFile Version 4.2
Generated by LIGGGHTS
ASCII
DATASET POLYDATA
POINTS 70 float
0.00470245 -0.0115746 0.0111986 0.010346 -0.0154657 0.0126148 0.0155687 -0.010007 0.0135356 
-0.0165704 -0.00250595 0.0130593 0.0166776 -0.000210446 0.0142055 -0.0131321 0.00308836 0.00920382 
0.00138572 0.00650329 0.0079998 -0.0132498 0.0108043 0.00872346 -0.00560432 0.00897865 0.0079996 
0.00436008 0.0141085 0.0100696 0.0118788 0.0105435 0.00931332 -0.00100651 0.0179676 0.00800491 
-0.00582169 0.0210118 0.00988702 0.00655765 0.0209135 0.0143274 -0.0171806 -0.00936632 0.0162244 
-0.00628638 -0.0160341 0.0168354 0.01791 -0.00833408 0.0205138 -0.0109746 -0.00460024 0.0179811 
0.0113343 -0.00475019 0.0174386 -0.0107212 0.0012672 0.019219 -0.000367133 0.00372104 0.0155258 
0.00795972 0.00707139 0.0180707 -6.10651e-05 0.0016359 0.0212604 0.00589847 0.0128959 0.0184273 
-0.0130917 -0.00985682 0.0234239 -0.0042778 -0.0143386 0.0316282 0.00180324 -0.013398 0.0315912 
0.0120179 -0.0126653 0.0308154 -0.0119259 -0.00312069 0.0295656 -0.00307549 -0.00526608 0.0237456 
-0.000878009 -0.00551063 0.030378 -0.00875125 0.0053748 0.0317533 0.0140243 0.00774339 0.029575 
-0.00398601 0.0152089 0.0315114 0.00717465 0.0151482 0.0316698 0.00593911 0.0210585 0.0318543 
-0.0101409 -0.0190967 0.0318677 0.00660502 -0.0205787 0.0342626 -0.0163938 -0.00919521 0.0324381 
-0.0151781 -0.0154797 0.0337544 0.000350054 -0.0175266 0.0361251 0.00771304 -0.014169 0.0347991 
0.0181231 -0.0120865 0.0335361 -0.0191606 -0.000545437 0.0334994 -0.00972791 0.00064893 0.0356432 
-0.0130962 -0.00737444 0.0377211 -0.00133599 -0.00781567 0.0364655 0.000357001 -0.00122325 0.0352026 
0.00460244 -0.00816215 0.0344725 0.00791497 -0.00101768 0.0334036 0.0146208 -0.0071424 0.032155 
0.0141314 -0.00128906 0.0337456 0.0200361 -0.00209917 0.0344971 -0.0211133 0.00492278 0.0354971 
-0.0133332 0.00943962 0.0322308 -0.0125292 0.00745656 0.0378659 -0.00414002 0.00316971 0.0350495 
0.000394485 0.00879571 0.0357632 0.00424718 0.00449622 0.0337426 0.0110055 0.00460657 0.0343745 
0.0167129 0.00360403 0.0361733 0.0214768 0.00422593 0.0322974 -0.0117475 0.0160945 0.0317987 
-0.0167914 0.0137021 0.0350025 -0.00638912 0.0109652 0.0363242 0.00717309 0.00980215 0.0352627 
0.0133434 0.0153541 0.0323728 0.0134961 0.00994455 0.0361154 0.00284151 0.0201464 0.0378871 
-0.00571864 0.0210898 0.0350943 
VERTICES 70 140
1 0 
1 1 
1 2 
1 3 
1 4 
1 5 
1 6 
1 7 
1 8 
1 9 
1 10 
1 11 
1 12 
1 13 
1 14 
1 15 
1 16 
1 17 
1 18 
1 19 
1 20 
1 21 
1 22 
1 23 
1 24 
1 25 
1 26 
1 27 
1 28 
1 29 
1 30 
1 31 
1 32 
1 33 
1 34 
1 35 
1 36 
1 37 
1 38 
1 39 
1 40 
1 41 
1 42 
1 43 
1 44 
1 45 
1 46 
1 47 
1 48 
1 49 
1 50 
1 51 
1 52 
1 53 
1 54 
1 55 
1 56 
1 57 
1 58 
1 59 
1 60 
1 61 
1 62 
1 63 
1 64 
1 65 
1 66 
1 67 
1 68 
1 69 

POINT_DATA 70
FIELD FieldData 7
id 1 70 int
44 436 401 3257 290 801 209 2836 1958 
903 292 602 2857 2180 732 212 573 709 
388 2287 535 1777 672 2611 911 3103 3144 
1459 2676 472 2454 2546 1511 744 1168 1632 
2841 2301 2489 1396 952 851 1391 3277 2749 
1177 1971 2133 1507 2664 657 2149 1490 3036 
2208 2199 2256 2914 3260 2602 2015 3323 3042 
2712 2824 1401 924 2945 1811 3312 
type 1 70 int
2 2 2 2 2 2 2 2 2 
2 2 2 2 2 2 2 2 2 
2 2 2 2 2 2 2 2 2 
2 2 2 2 2 2 2 2 2 
2 2 2 2 2 2 2 2 2 
2 2 2 2 2 2 2 2 2 
2 2 2 2 2 2 2 2 2 
2 2 2 2 2 2 2 
i 3 70 int
0 0 0 0 0 0 0 0 0 
0 0 0 0 0 0 0 0 0 
0 0 0 0 0 0 0 0 0 
0 0 0 0 0 0 0 0 0 
0 0 0 0 0 0 0 0 0 
0 0 0 0 0 0 0 0 0 
0 0 0 0 0 0 0 0 0 
0 0 0 0 0 0 0 0 0 
0 0 0 0 0 0 0 0 0 
0 0 0 0 0 0 0 0 0 
0 0 0 0 0 0 0 0 0 
0 0 0 0 0 0 0 0 0 
0 0 0 0 0 0 0 0 0 
0 0 0 0 0 0 0 0 0 
0 0 0 0 0 0 0 0 0 
0 0 0 0 0 0 0 0 0 
0 0 0 0 0 0 0 0 0 
0 0 0 0 0 0 0 0 0 
0 0 0 0 0 0 0 0 0 
0 0 0 0 0 0 0 0 0 
0 0 0 0 0 0 0 0 0 
0 0 0 0 0 0 0 0 0 
0 0 0 0 0 0 0 0 0 
0 0 0 
v 3 70 double
0.0037869574568 6.8097700959e-05 0.38471786549 0.024176572185 0.019865990778 0.3918076504 0.01370967091 0.02924404517 0.38604107812 
-0.00044877514918 -0.0059189611885 0.37400171268 -0.0002472056139 0.013700196646 0.40267913019 -0.0054980216564 0.0047814386264 0.38813332829 
-0.00087792805366 -0.0087466028144 0.38675154851 0.0050634234351 0.011848615115 0.38247425104 0.006492463428 0.0030110656988 0.39324743387 
9.1864967881e-05 -0.0072473707647 0.3991754153 -0.0028265895776 0.0014953890013 0.39049053126 0.031170715601 0.0028632120874 0.39201797192 
0.048172045754 0.025343761161 0.39292764847 0.016944015952 -0.0043653729659 0.4070071935 0.0015088432309 -0.019505434128 0.3787725059 
-0.0040585684785 -0.0073016032208 0.37918602205 0.020034258671 0.037606014358 0.39646312613 -0.012505534451 -0.025083853232 0.39885629046 
-0.014282409595 0.025504914382 0.37503521347 -0.0072941925172 -0.01453382464 0.37282137382 -0.011608268474 -0.010861600767 0.36682257885 
-0.023146519338 -7.3068217186e-06 0.40735775916 -0.024601572273 -0.0094007459164 0.35783605807 -0.0075272005639 -0.03281113289 0.42102268518 
-0.064583270953 -0.0074711696119 0.3807385245 -0.025364967541 -0.055109034779 0.54899490359 0.18935484075 -0.03317818828 0.59840314547 
-0.15059028162 -0.04276039149 0.4411207385 -0.065871581349 0.1432588178 0.51367072852 -0.026860697978 -0.060385239133 0.37866368433 
0.13731882109 0.11163888511 0.4581562127 -0.10906756622 -0.023054596753 0.73976019458 -0.10141136035 0.11522932074 0.57705040295 
0.20199326941 0.021529669981 0.65624066956 0.053959075707 -0.04100473131 0.59545085904 -0.07394335837 0.0037988667741 0.50812783461 
0.22028664745 0.052521876581 0.38244500039 0.056132948971 -0.066865476444 0.35059291783 0.0030904848964 0.10365102265 0.46371089859 
0.32399279372 -0.060337761423 0.64942753286 0.089221930993 -0.35279601678 0.35977094739 0.28107574576 0.11120234057 0.67908044856 
-0.12805775069 0.017711153508 0.27756043544 -0.10205239717 0.12090850513 0.61067095563 0.1105689725 0.13777957403 0.77129519166 
-0.015922895409 -0.059453563686 0.63485067149 -0.049023058269 0.0068882545452 0.78159584904 0.1605385587 -0.10479833469 0.64811517263 
0.25799330411 0.13270746765 0.50658781517 0.0071744405633 0.14242943404 0.47726297668 -0.071263311083 0.071106169251 0.44838007425 
-0.1785758347 0.025987128942 0.56472160463 -0.017832631029 -0.14449188478 0.71812485518 0.30257636316 0.30764191869 0.40817531917 
0.016980502833 -0.14783331776 0.55549307328 -0.047137575128 0.43738744192 0.61003881197 -0.20900861184 -0.071116438009 0.55455761737 
0.39356645618 0.23281539905 0.48394439165 -0.040945632259 -0.023287054632 0.61528967458 0.04118236055 0.014226384198 0.74518596419 
-0.0082050550296 -0.019331189974 0.58763304622 -0.03497842779 0.035077957342 0.62199261849 0.10105505156 -0.0659696641 0.23386205973 
0.066878536056 -0.13453674642 0.40950667886 0.050389845102 -0.050709432524 0.74930188443 -0.033794066413 0.015412838806 0.69130119204 
-0.085695511423 -0.070407938264 0.66190803197 0.031555597998 0.12111160375 0.80536687149 -0.20085275935 -0.14614993795 0.75522688585 
-0.058934792457 0.2093333656 0.36630120664 
f 3 70 double
0.0018608417645 0.0021108240278 0.0016419457909 0.00063753513869 0.00069945644692 0.001899448559 -0.00013886086463 7.0680624446e-06 -0.0038754260362 
-0.0011383210377 -0.0035139517713 0.0041447439783 0.00086709021554 -0.0062626830288 -0.001909857206 0.0030024837309 0.00028598903005 0.0010075450487 
-0.0018229152764 6.5651110347e-05 -0.00034031133719 0.00069646211114 -0.0019434645606 -0.0044567279925 0.0007125705138 0.0034542915386 0.0034225420149 
-0.00066278897526 0.0048974096881 0.0022609407503 -0.0012558284701 0.0011482545123 0.00025611311669 -0.0015361963156 0.0032259188293 0.0021280950124 
0.0019244217882 -0.003392589344 -0.0020435674315 0.00080116085121 -0.0020525201929 -0.0035600271445 -0.0027351606748 0.010746272638 0.0022186893002 
-0.0025364745497 0.0077057545348 -0.0023714189047 -0.004991800385 -0.0078494802775 0.0065527060003 0.0010013665785 0.0017052302214 -0.00044469899418 
-0.0038258119257 0.0054019459472 0.0017940462064 0.008787127955 0.007729011264 -0.011173968064 -0.015215811306 0.0055514280187 -0.015058317962 
0.0055910783335 -0.0049203339955 0.0056171975128 -0.00038703206755 0.00034564036492 7.02591137e-05 -0.00020290613356 0.0025689684854 -0.001308589891 
0 0 -0.00027737121539 0 0 -0.00027737121539 0 0 -0.00027737121539 
0 0 -0.00027737121539 0 0 -0.00027737121539 -0.0039244123297 -0.0033488139067 0.0013239865593 
0 0 -0.00027737121539 0 0 -0.00027737121539 0 0 -0.00027737121539 
0 0 -0.00027737121539 0 0 -0.00027737121539 0 0 -0.00027737121539 
0 0 -0.00027737121539 0 0 -0.00027737121539 0 0 -0.00027737121539 
-0.012137809246 -0.053044074287 0.066945344532 0 0 -0.00027737121539 0 0 -0.00027737121539 
0 0 -0.00027737121539 0 0 -0.00027737121539 0 0 -0.00027737121539 
0 0 -0.00027737121539 0 0 -0.00027737121539 0 0 -0.00027737121539 
0 0 -0.00027737121539 0 0 -0.00027737121539 0.082540668936 -0.0083096424394 0.0068774566898 
0 0 -0.00027737121539 0 0 -0.00027737121539 0 0 -0.00027737121539 
0 0 -0.00027737121539 0 0 -0.00027737121539 0 0 -0.00027737121539 
0 0 -0.00027737121539 0 0 -0.00027737121539 0 0 -0.00027737121539 
0 0 -0.00027737121539 0 0 -0.00027737121539 0 0 -0.00027737121539 
0 0 -0.00027737121539 0 0 -0.00027737121539 0 0 -0.00027737121539 
0 0 -0.00027737121539 0 0 -0.00027737121539 0 0 -0.00027737121539 
0 0 -0.00027737121539 
radius 1 70 double
0.003 0.003 0.003 0.003 0.003 0.003 0.003 0.003 0.003 
0.003 0.003 0.003 0.003 0.003 0.003 0.003 0.003 0.003 
0.003 0.003 0.003 0.003 0.003 0.003 0.003 0.003 0.003 
0.003 0.003 0.003 0.003 0.003 0.003 0.003 0.003 0.003 
0.003 0.003 0.003 0.003 0.003 0.003 0.003 0.003 0.003 
0.003 0.003 0.003 0.003 0.003 0.003 0.003 0.003 0.003 
0.003 0.003 0.003 0.003 0.003 0.003 0.003 0.003 0.003 
0.003 0.003 0.003 0.003 0.003 0.003 0.003 
omega 3 70 double
-0.73678329663 -2.0526073146 1.5323260301 -1.0017248874 1.7752451831 3.821688787 0.15447987148 2.7848631361 3.8172833452 
0.46995985004 -4.0721976977 1.6183732667 3.0385949648 2.0978121701 2.0209274503 -0.82919951702 -1.2740889465 -1.8182218864 
-0.60501806743 -0.37703396019 0.4867077281 -0.57602721893 -4.7677299041 3.121708163 0.062702638539 0.024725821325 -0.44341645764 
2.2389809379 0.84058490852 1.6304501407 -0.91011463176 0.59962131305 -0.3049650512 2.6901062394 -0.27273953118 -5.8911997993 
2.2182332246 -2.5713496456 -4.9505222832 1.8964996702 6.2569874584 -0.1328345833 0.17416816782 -3.9102294499 2.0684680434 
3.8599231344 -2.9767010591 0.34816698466 2.4563958346 -7.4290057363 9.3289232211 1.9016731639 0.48063244042 -0.13427235227 
-1.55552996 3.4878099697 -0.22026208397 4.5888671155 1.9499548655 -4.6866673274 4.40230161 -3.0548309747 -2.3965361883 
-3.3676754558 -9.1784662661 -1.1941596102 8.1815552313 -6.1477551729 -1.9475554322 1.5096023751 -1.3889363323 -1.5119633589 
2.7085749636 -8.9168948939 -17.5693809 64.721362939 -29.01902908 -6.3072986096 12.008498809 6.9899903131 5.3492099768 
3.9041865859 -46.024665258 -16.458244817 -36.446865153 -25.856359438 53.542348382 0.8375584601 5.8459916582 -4.7591769535 
-15.19993942 52.723517482 -4.7180337373 -24.976858354 62.332685031 -42.62413493 2.7137170185 24.850650864 33.359865128 
15.46795757 27.700769942 27.589772369 -77.591139818 11.115394337 -2.8576015844 10.910615198 -5.4150505024 3.6511777605 
0.23050924007 39.743855813 -31.503267657 -7.494336819 -7.5903033088 -36.535136321 70.38028769 29.105981664 -75.659373648 
5.0979185744 -2.1614976357 -18.358364977 -3.3018316549 76.96868297 24.422797932 71.210766669 75.480690744 -4.0861886307 
-14.476557784 51.391884826 -7.0266574517 -43.381806954 -6.0163415551 -15.483701589 21.960096029 15.226120309 43.841657893 
14.855624952 -76.569272982 0.91151074238 53.273703081 -9.6399256738 -21.766372572 -140.6234718 28.763326032 -12.624220466 
50.525284638 14.072005393 2.6913240425 12.091574372 52.370026714 -5.6009451732 11.121298434 -23.850906846 -28.684831035 
0.1178351633 -49.116116576 -45.894926248 68.963917687 -28.07775233 -40.082554662 -154.86070797 29.359134559 33.036277074 
73.231628622 26.384950231 -19.061427341 -1.9492550315 2.4913357274 -11.043576827 36.982452594 102.36496369 28.895506373 
59.607749252 -130.7425149 -45.488529934 63.485714208 -25.992447485 23.72714358 4.676028393 24.286216239 33.564952244 
26.186723988 -49.965162042 20.988068446 -4.6106313056 12.588944947 -40.994717101 -36.407176504 -76.107111583 -22.169538187 
62.230752177 -12.640419801 -24.609067003 19.776957309 -0.26811433871 54.468952344 -51.178422263 -58.21257144 -23.343434002 
31.588766263 21.389077771 35.233325682 34.615402109 30.457524058 4.6193220744 -4.1337477198 -56.06030598 38.084190745 
1.9899602645 -9.5722615856 41.819972663 
