# vtk DataFile Version 4.2
Generated by LIGGGHTS
ASCII
DATASET POLYDATA
POINTS 70 float
0.0151941 -0.0391142 0.0178991 0.0270009 -0.0119874 0.021444 -0.0348028 0.00587186 0.0223432 
-0.0346764 0.0154976 0.0196351 0.00982697 0.0408351 0.0221221 -0.012532 -0.0227236 0.0254902 
-0.00940239 -0.010626 0.0240233 0.000504781 -0.0114891 0.0251214 0.0345808 -0.0168191 0.0260167 
-0.0305283 -0.00115509 0.0313227 0.0227699 -0.00368623 0.0256095 -0.0313246 0.00886881 0.031383 
-0.0184823 0.00493526 0.0304624 -0.00904621 0.00250669 0.0281525 0.0419743 0.000478907 0.0250134 
-0.00441627 0.0138937 0.0269874 0.0193716 0.0250867 0.0316261 0.000974718 0.0348144 0.024245 
-0.0109304 -0.0404861 0.040489 0.00592729 -0.0415245 0.0402442 0.000873851 -0.0328952 0.042566 
-0.0246764 -0.0200826 0.0363123 -0.0135339 -0.0207537 0.042097 -0.031291 -0.0144483 0.0412752 
-0.00651071 -0.0018732 0.0371154 0.0290175 -0.003724 0.0405462 0.016577 0.0168419 0.0365754 
-0.002485 0.027983 0.0365501 0.030642 0.0286338 0.0419875 -0.00275046 -0.0417686 0.0461713 
-0.0188562 -0.0155543 0.0489207 0.0402597 0.0117187 0.0456405 0.0065431 0.020847 0.0440831 
0.0102493 0.0339764 0.0454578 -0.0256916 -0.0317826 0.0667498 -0.0249486 -0.0225161 0.0714239 
0.000384697 -0.0263872 0.0651196 0.0160396 -0.02809 0.0744223 -0.0338589 -0.00245332 0.0746058 
0.00390089 -0.00894581 0.0740945 0.0388622 -0.000671543 0.0752189 -0.0276595 0.00673523 0.072966 
-0.00473828 0.00762175 0.0659048 0.0219006 0.00828509 0.0663786 -0.0306834 0.0153728 0.0688961 
0.0108186 0.0222361 0.0745936 0.0254232 0.021599 0.0692056 -0.00644849 0.0363863 0.0750504 
0.011809 0.0385565 0.0743905 -0.0095318 -0.0341755 0.0797966 0.00626799 -0.0317987 0.0770431 
0.029885 -0.0242643 0.0803687 -0.037029 -0.0173522 0.0788788 -0.0275106 -0.0133923 0.0790846 
-0.0107509 -0.0170856 0.0774455 0.0148555 -0.0187945 0.0800806 -0.00535238 -0.00439822 0.0767874 
0.00344238 0.00297736 0.0792376 0.0240275 0.0143496 0.0765822 -0.0200845 0.0204864 0.0829609 
0.0127482 0.0229685 0.0846229 -0.00133498 -0.0341618 0.0870917 -0.02952 -0.0241615 0.091429 
-0.000513662 -0.00408989 0.0877769 0.00479332 0.00491017 0.0900556 -0.025612 0.0127898 0.0881113 
-0.00574753 0.0136143 0.0876495 0.0222073 0.0131745 0.0922315 -0.0112659 0.0381395 0.088323 
0.0293271 -0.0199778 0.0998605 
VERTICES 70 140
1 0 
1 1 
1 2 
1 3 
1 4 
1 5 
1 6 
1 7 
1 8 
1 9 
1 10 
1 11 
1 12 
1 13 
1 14 
1 15 
1 16 
1 17 
1 18 
1 19 
1 20 
1 21 
1 22 
1 23 
1 24 
1 25 
1 26 
1 27 
1 28 
1 29 
1 30 
1 31 
1 32 
1 33 
1 34 
1 35 
1 36 
1 37 
1 38 
1 39 
1 40 
1 41 
1 42 
1 43 
1 44 
1 45 
1 46 
1 47 
1 48 
1 49 
1 50 
1 51 
1 52 
1 53 
1 54 
1 55 
1 56 
1 57 
1 58 
1 59 
1 60 
1 61 
1 62 
1 63 
1 64 
1 65 
1 66 
1 67 
1 68 
1 69 

POINT_DATA 70
FIELD FieldData 7
id 1 70 int
44 837 467 208 595 732 385 912 398 
1986 663 895 1438 1371 720 936 1782 1157 
2710 2509 1464 1606 2267 2873 2166 2790 1929 
1751 2149 2454 2640 3228 2117 3209 2252 5050 
2996 4708 4052 4796 2566 5353 3909 3475 5377 
5509 4610 3841 3265 4179 3510 3932 3770 5402 
3206 4989 3857 4482 5420 3724 3364 3102 4181 
3057 4362 5397 5103 2782 4280 4006 
type 1 70 int
2 2 2 2 2 2 2 2 2 
2 2 2 2 2 2 2 2 2 
2 2 2 2 2 2 2 2 2 
2 2 2 2 2 2 2 2 2 
2 2 2 2 2 2 2 2 2 
2 2 2 2 2 2 2 2 2 
2 2 2 2 2 2 2 2 2 
2 2 2 2 2 2 2 
i 3 70 int
0 0 0 0 0 0 0 0 0 
0 0 0 0 0 0 0 0 0 
0 0 0 0 0 0 0 0 0 
0 0 0 0 0 0 0 0 0 
0 0 0 0 0 0 0 0 0 
0 0 0 0 0 0 0 0 0 
0 0 0 0 0 0 0 0 0 
0 0 0 0 0 0 0 0 0 
0 0 0 0 0 0 0 0 0 
0 0 0 0 0 0 0 0 0 
0 0 0 0 0 0 0 0 0 
0 0 0 0 0 0 0 0 0 
0 0 0 0 0 0 0 0 0 
0 0 0 0 0 0 0 0 0 
0 0 0 0 0 0 0 0 0 
0 0 0 0 0 0 0 0 0 
0 0 0 0 0 0 0 0 0 
0 0 0 0 0 0 0 0 0 
0 0 0 0 0 0 0 0 0 
0 0 0 0 0 0 0 0 0 
0 0 0 0 0 0 0 0 0 
0 0 0 0 0 0 0 0 0 
0 0 0 0 0 0 0 0 0 
0 0 0 
v 3 70 double
0.00017543295532 0.0015309423457 -0.39831103554 -0.00042059635029 -0.0015990040911 -0.4012849487 -0.002277573323 -0.0041468269765 -0.39822495547 
-0.0013170145714 -0.0060208183766 -0.39592419916 0.0032085197809 0.00036629530219 -0.39607598691 0.00053865756684 -0.0021708756749 -0.39243297302 
0.0035211298106 -0.0013943480199 -0.39374622194 0.0029590712603 -0.00075237743637 -0.3934396226 -0.0036545118591 0.0023589816952 -0.40128574471 
-0.0023356937677 -0.0068414949106 -0.39360215582 -0.0015676871123 0.0011229409448 -0.39863791573 -0.0030137990995 -0.0046811878841 -0.39695028013 
-0.0049348077788 -0.0078277022141 -0.39786742082 -0.00084803692506 -5.6062894025e-05 -0.39194984722 -0.0019807446729 0.0015421069954 -0.3961725564 
0.0015926627763 -0.0028369410115 -0.39546234681 0.0056728521667 -0.00047397465653 -0.39284227402 0.00391715723 0.00092645079179 -0.39603282511 
-0.054627233724 -0.0070765648856 -0.42168288886 0.0020627666783 -0.0051266198307 -0.38485070284 -0.0044153724173 -0.010450872471 -0.38185859909 
0.016222394 -0.01184744789 -0.39437938435 0.010168885996 -0.00037940782895 -0.37621404143 0.016082231722 -0.0013167443358 -0.37949226617 
0.0030487661229 0.00058568403537 -0.38507137038 -0.0032864062141 -0.0078019061848 -0.39379556429 0.0067223609362 0.0032171547089 -0.39080742831 
-0.0011248071048 -0.0051102397135 -0.39570778494 0.012699455259 -0.0070617189861 -0.39025636406 0.0052243966124 0.027513281737 -0.40211172912 
0.018732563979 -0.022172363776 -0.35338356371 -0.0063207505137 -0.022326805008 -0.34995231824 0.0033637265736 0.0010557128251 -0.38425157359 
0.010046916961 -0.043463934761 -0.40033827343 0.060004357332 -0.042014693318 -0.18775468084 -0.071471550431 0.037187516213 -0.25839911102 
-0.03727872409 0.098467432199 -0.24892598582 -0.032738858107 0.038123690651 -0.12924648348 0.025459660195 0.042067188311 -0.27389756777 
-0.15643855318 0.2478484374 -0.13194966728 -0.15343051552 0.068736642724 -0.25061499377 0.097371965133 -0.11031398627 -0.19435475033 
0.10610747451 -0.062209118668 -0.24113523736 0.0099714628504 0.081512463299 -0.33318410724 0.050734507871 -0.047658039492 -0.19418030544 
0.11063076658 0.040689397509 -0.09494137941 -0.013316142623 0.068830812386 -0.19354263852 -0.015245206746 0.16527825165 -0.15261288065 
0.034784158384 0.063241053531 -0.10781491939 -0.16461609623 -0.031830519041 -0.26758766383 -0.052380315875 -0.051545040707 -0.02807034368 
-0.25523180632 0.042324417224 0.068123980277 -0.029213592732 -0.12845451922 -0.082656646945 -0.084167930823 0.020035017491 -0.16564211314 
-0.079291914557 -0.084106511436 -0.098272746844 0.0040356244527 -0.0078673286068 -0.064849823769 0.031449959837 0.13856626594 -0.070280768626 
-0.055355850735 0.088916861962 -0.02488367437 -0.17840248276 0.066201354055 -0.30046956846 -0.2007903294 -0.0066810858766 -0.17925164991 
-0.027693837572 0.14460161426 -0.097195910298 0.016420672231 -0.26641790547 0.0067269988775 -0.029401247015 -0.11572647241 -0.025397797588 
-0.058998373581 0.068379602935 -0.16710823064 0.086626259286 -0.1527944326 0.04971278852 0.014658206728 0.27469648417 -0.11359099932 
0.038620652489 -0.081697683922 0.010902640393 0.2914626415 0.22914265607 0.069056546831 0.093008740456 0.14292975874 0.035627500076 
0.09418073322 0.48608583152 0.032422150188 
f 3 70 double
0 0 -0.0012841259972 0 0 -0.0012841259972 0 0 -0.0012841259972 
0 0 -0.0012841259972 0.00027688940872 0.00062873630584 -0.0010848906893 0.00028795511034 0.00025133673102 -0.00067239763838 
0 0 -0.0012841259972 0 0 -0.0012841259972 0 0 -0.0012841259972 
0 0 -0.0012841259972 -2.0101624144e-06 9.0823750009e-05 -0.0012758865088 0.00034015522645 0.0044120870326 -0.00054051769566 
0 0 -0.0012841259972 0 0 -0.0012841259972 0 0 -0.0012841259972 
0.0035593804587 0.0037046701207 -0.0014201986697 0 0 -0.0012841259972 0 0 -0.0012841259972 
0.010223348118 -0.00073961620694 -4.6854060649e-05 0 0 -0.0012841259972 0 0 -0.0012841259972 
0 0 -0.0012841259972 0 0 -0.0012841259972 0 0 -0.0012841259972 
0 0 -0.0012841259972 0 0 -0.0012841259972 -0.0022311260187 0.0030831901599 -0.0018861494359 
0 0 -0.0012841259972 0 0 -0.0012841259972 0 0 -0.0012841259972 
0 0 -0.0012841259972 0 0 -0.0012841259972 0 0 -0.0012841259972 
0 0 -0.0012841259972 0 0 -0.0012841259972 0 0 -0.0012841259972 
0 0 -0.0012841259972 0 0 -0.0012841259972 0 0 -0.0012841259972 
0 0 -0.0012841259972 0 0 -0.0012841259972 0 0 -0.0012841259972 
0 0 -0.0012841259972 0 0 -0.0012841259972 0 0 -0.0012841259972 
0 0 -0.0012841259972 0 0 -0.0012841259972 0 0 -0.0012841259972 
0 0 -0.0012841259972 0 0 -0.0012841259972 0 0 -0.0012841259972 
0 0 -0.0012841259972 0 0 -0.0012841259972 0 0 -0.0012841259972 
0 0 -0.0012841259972 0 0 -0.0012841259972 0 0 -0.0012841259972 
0 0 -0.0012841259972 0 0 -0.0012841259972 0 0 -0.0012841259972 
0 0 -0.0012841259972 0 0 -0.0012841259972 0 0 -0.0012841259972 
0 0 -0.0012841259972 0 0 -0.0012841259972 0 0 -0.0012841259972 
0 0 -0.0012841259972 0 0 -0.0012841259972 0 0 -0.0012841259972 
0 0 -0.0012841259972 
radius 1 70 double
0.005 0.005 0.005 0.005 0.005 0.005 0.005 0.005 0.005 
0.005 0.005 0.005 0.005 0.005 0.005 0.005 0.005 0.005 
0.005 0.005 0.005 0.005 0.005 0.005 0.005 0.005 0.005 
0.005 0.005 0.005 0.005 0.005 0.005 0.005 0.005 0.005 
0.005 0.005 0.005 0.005 0.005 0.005 0.005 0.005 0.005 
0.005 0.005 0.005 0.005 0.005 0.005 0.005 0.005 0.005 
0.005 0.005 0.005 0.005 0.005 0.005 0.005 0.005 0.005 
0.005 0.005 0.005 0.005 0.005 0.005 0.005 
omega 3 70 double
0.070159723525 0.27240736009 -0.1313029598 0.34730784452 -0.28482178041 0.49967964598 -0.4216525628 -0.066202776801 -0.10382961468 
0.22503833943 0.27250118312 0.21503718612 -0.035868521799 0.59186461985 -0.44620957204 0.063593924584 0.40241381142 0.18449791663 
-0.15680183612 -0.13905959013 0.0316227638 -0.38722453143 -0.19931104769 0.20603753259 -0.26731246485 -0.40218962938 0.014611146412 
0.68315399413 -1.0487296131 -0.23764910717 0.23335927761 -0.25127044953 -0.25168857725 0.47406944025 -0.04403303256 0.18875984784 
-0.78150482573 -0.022322692552 -0.34642214092 -0.0075361880126 0.10142667971 -0.25861605349 0.19698205353 0.097673063411 0.25443967713 
-0.45426423677 -0.53804973299 0.40752614402 0.59031506987 0.45008985599 -0.21686530432 -0.5806859317 0.31758535119 -0.56412190413 
-0.92516129365 1.5051188657 -0.50908594754 0.51333943301 3.9528835291 -0.96432665556 3.9045380526 -0.68498136716 -1.1629237238 
-0.91477096765 -0.63539285978 1.2499383469 1.4519667191 -0.77140280068 -2.5803870785 1.0736664042 3.1669960464 -1.5568867079 
-0.0019857329689 4.5479980334 0.48304269528 -2.0925318935 0.46845885364 -2.7943668034 0.77636920882 1.4291590656 -0.74408241442 
-0.72724852287 -0.60782163939 -0.66830266948 1.8881403847 0.86026973643 1.8199325487 -2.0905006128 0.055445256297 10.181165997 
-1.0223178479 6.8992942902 -0.31071245012 -0.5125422476 2.1968132888 1.7811820805 -2.6682237613 0.82366953711 -2.9604287495 
1.5109130501 0.94577878096 1.6298476631 0.16688268703 -11.482908992 1.2857684444 -24.463432533 -13.367872751 -5.8044991075 
7.9717729589 6.4664590765 -1.9464739712 10.237374487 -2.9380929799 21.934285573 4.6920335978 -9.4558910422 7.2143971344 
-15.685867651 4.2116595753 32.069688123 -26.785292293 16.259433285 -29.87528522 -6.0521626381 0.33859543075 9.6682689601 
4.0225195154 12.003640506 -15.681633599 20.969907123 8.2837139743 9.6809676277 15.626262998 -4.3799973611 6.3394555811 
-7.5217281551 -23.704931541 4.4009090044 -2.0331667258 -10.637978047 18.878099276 -3.6040507029 12.619882485 -8.7967627248 
-14.01316053 -4.5767808135 11.294334698 -17.466354147 -6.0196999574 -12.617117754 -20.412832346 37.455816642 -5.0489338763 
13.972517454 -2.4023636099 9.7107889553 -30.227298763 17.034993354 -17.998425694 -8.9607892922 -19.423759786 -15.371631791 
29.288124117 5.3903242288 -6.5398279545 13.74315217 -32.752846107 -31.542333092 -19.518349788 -10.915422577 0.49557496054 
-10.036928139 -15.775751912 8.5522802444 -13.505854798 -39.538337791 -9.0557641149 29.295168365 -26.061603657 -28.45731877 
32.331688847 32.517891925 -0.32966557108 23.252117604 -14.564441231 -27.408372461 12.509374505 -8.7672069724 3.3629508162 
2.4258205631 -14.359290008 25.058104062 -11.707292891 6.4155296697 5.0024623919 -30.613781328 -5.3095216849 -5.8454297175 
-5.6504529128 -4.448140063 3.0688979907 -22.206193823 1.3726980369 18.913378668 17.024674263 23.615913494 -2.8055726901 
-2.8029519013 3.251132237 -0.0011687860191 
