# vtk DataFile Version 4.2
Generated by LIGGGHTS
ASCII
DATASET POLYDATA
POINTS 70 float
-0.0235126 -0.0267147 0.0445333 0.0191331 -0.0276775 0.0446963 0.0286161 -0.0234988 0.0423742 
-0.00853854 -0.014981 0.0443912 0.0100999 -0.0189137 0.0411239 -0.0303825 -0.000606286 0.0435452 
-0.0194242 -0.0090405 0.0429121 0.00412003 0.00321144 0.0450151 0.0156506 0.00444086 0.0445609 
0.0384649 0.00635891 0.0421659 0.0361535 0.0164637 0.0446153 0.02167 0.0255743 0.0445061 
0.0323145 0.0259105 0.0452812 -0.000347418 -0.0416939 0.0503016 -0.0181344 -0.0346521 0.0487461 
-0.00916829 -0.0369909 0.0556284 -0.00131737 -0.03076 0.0501164 0.0080786 -0.0350668 0.0551881 
0.0171099 -0.0377315 0.0510775 -0.00975043 -0.0244236 0.0482976 0.00929005 -0.026666 0.0484078 
0.0185343 -0.021563 0.0527867 0.028867 -0.0206878 0.052369 -0.0366888 -0.0194333 0.0495051 
-0.0250731 -0.0156007 0.0499902 -0.000400736 -0.015493 0.0509207 0.0109453 -0.0137533 0.0548044 
0.0222894 -0.0150904 0.0457423 0.0310907 -0.00997304 0.0470276 0.0374104 -0.0180223 0.0475998 
0.0402208 -0.0106095 0.0554098 -0.0294947 -0.00261544 0.0549826 -0.0127365 -0.00747357 0.053885 
0.00635979 -0.00636956 0.0487034 0.0178066 -0.00602818 0.0504654 0.0402323 -0.00436116 0.0455501 
-0.0385602 0.00702615 0.0470891 -0.0292829 0.00673575 0.0512882 -0.0141693 0.00273244 0.051217 
0.0276601 0.00359963 0.0459705 0.0368453 0.00236682 0.0552406 -0.0253918 0.0159966 0.0484419 
-0.00583414 0.0101426 0.046939 0.00804502 0.019876 0.0534191 0.0176826 0.0123243 0.0532564 
0.0261157 0.0189937 0.0520378 -0.025563 0.0256959 0.0456785 -0.00964092 0.0204586 0.0491992 
-0.000966936 0.0268144 0.0501181 0.0151151 0.028098 0.0535752 -0.0210784 0.0326527 0.0538634 
-0.0119866 0.0334328 0.0488389 0.00655868 0.0374399 0.053105 0.0175566 0.0371711 0.0466967 
0.0271224 0.0313378 0.0523928 0.0194504 -0.0310351 0.0597692 -0.0214837 -0.0260962 0.0561763 
0.0240489 -0.0125008 0.0583516 -0.0365728 -0.0097307 0.0584926 0.000515672 -0.00729366 0.0601226 
-0.00578861 0.0030577 0.0583513 0.00480828 0.00303394 0.0560654 -0.00986088 0.0122365 0.0577682 
-0.0247227 0.0234648 0.0559587 -0.0123182 0.0238248 0.0592383 -0.00356611 0.0287124 0.0629622 
-0.0185618 0.0342338 0.0646528 -0.00743901 0.0383894 0.0594444 -0.0179503 -0.0180554 0.0679552 
0.00506277 0.0184038 0.0666081 
VERTICES 70 140
1 0 
1 1 
1 2 
1 3 
1 4 
1 5 
1 6 
1 7 
1 8 
1 9 
1 10 
1 11 
1 12 
1 13 
1 14 
1 15 
1 16 
1 17 
1 18 
1 19 
1 20 
1 21 
1 22 
1 23 
1 24 
1 25 
1 26 
1 27 
1 28 
1 29 
1 30 
1 31 
1 32 
1 33 
1 34 
1 35 
1 36 
1 37 
1 38 
1 39 
1 40 
1 41 
1 42 
1 43 
1 44 
1 45 
1 46 
1 47 
1 48 
1 49 
1 50 
1 51 
1 52 
1 53 
1 54 
1 55 
1 56 
1 57 
1 58 
1 59 
1 60 
1 61 
1 62 
1 63 
1 64 
1 65 
1 66 
1 67 
1 68 
1 69 

POINT_DATA 70
FIELD FieldData 7
id 1 70 int
716 1449 2109 2701 1692 197 455 1150 2527 
1627 1364 886 2586 1563 2721 373 1400 733 
112 2266 2039 2199 1642 1535 466 2724 907 
973 805 2331 369 2111 2714 586 2556 340 
1924 2389 2012 1004 421 1244 1933 1296 1616 
474 1144 205 1508 1752 1267 1092 249 1956 
1614 2156 1405 307 28 1872 1964 1331 2735 
1100 681 2779 1767 1075 1894 2432 
type 1 70 int
2 2 2 2 2 2 2 2 2 
2 2 2 2 2 2 2 2 2 
2 2 2 2 2 2 2 2 2 
2 2 2 2 2 2 2 2 2 
2 2 2 2 2 2 2 2 2 
2 2 2 2 2 2 2 2 2 
2 2 2 2 2 2 2 2 2 
2 2 2 2 2 2 2 
i 3 70 int
0 0 0 0 0 0 0 0 0 
0 0 0 0 0 0 0 0 0 
0 0 0 0 0 0 0 0 0 
0 0 0 0 0 0 0 0 0 
0 0 0 0 0 0 0 0 0 
0 0 0 0 0 0 0 0 0 
0 0 0 0 0 0 0 0 0 
0 0 0 0 0 0 0 0 0 
0 0 0 0 0 0 0 0 0 
0 0 0 0 0 0 0 0 0 
0 0 0 0 0 0 0 0 0 
0 0 0 0 0 0 0 0 0 
0 0 0 0 0 0 0 0 0 
0 0 0 0 0 0 0 0 0 
0 0 0 0 0 0 0 0 0 
0 0 0 0 0 0 0 0 0 
0 0 0 0 0 0 0 0 0 
0 0 0 0 0 0 0 0 0 
0 0 0 0 0 0 0 0 0 
0 0 0 0 0 0 0 0 0 
0 0 0 0 0 0 0 0 0 
0 0 0 0 0 0 0 0 0 
0 0 0 0 0 0 0 0 0 
0 0 0 
v 3 70 double
0.062549823277 0.047918665618 0.28973740573 0.036063512084 0.10021089142 0.13938156434 0.073415967952 -0.13675015707 0.10201183077 
-0.1269791544 -0.096781183628 0.22828943715 0.087575807069 0.026847633718 0.12354479283 -0.12989873604 -0.00076022410836 0.21270069096 
0.095645575272 0.066964946819 0.12104921578 0.024913414223 0.03385214078 0.10236758179 0.037592291482 -0.076609881489 0.23326809309 
-0.038924688192 -0.14010010875 0.13419356661 0.080913319577 0.11966839455 0.0012139758129 0.007362713147 0.24571291743 0.10525810398 
-0.052202038728 -0.17623559314 0.11401878634 -0.015336176459 -0.15405533178 0.23830178834 0.12594614621 0.1305150967 0.22444222586 
0.32156289917 -0.15681511847 0.16750397246 -0.089338625404 0.13241984554 0.34439425047 0.095814230111 -0.080668336079 0.33838990232 
-0.032034454176 0.040913020399 0.44733160931 0.088878106339 0.05111213619 0.2433644981 -0.019128294665 0.072672620446 0.22777140128 
-0.019535470807 0.14160953195 0.24274046035 0.15907401073 -0.0031816273072 0.21430050539 0.10342121105 -0.30259320852 0.13923863302 
-0.14464471537 0.069601676023 0.19188879637 -0.066269746659 -0.0873419112 0.0022109086438 0.018008623278 -0.02193527124 0.52435839519 
0.33960409005 0.22572899441 0.15234704827 0.012519063987 0.028363484151 0.13420173371 -0.095766038645 0.20484523966 0.098591174183 
0.048000145746 0.24414116832 0.10135945523 -0.0992424127 0.079387212048 0.37512983214 0.23798789253 0.13420519127 0.23664190234 
-0.036709315132 -0.056658944744 0.091145304274 0.014108829594 -0.0085284296414 0.32485334983 0.048209732073 0.0024378478662 0.16197645727 
-0.0046835666201 0.064875025791 0.0017485003994 0.15953637977 -0.10448223151 0.28457049947 -0.052603757958 0.19763616846 0.23477747471 
-0.13006945265 -0.034400714449 -0.054628281109 0.25908307801 0.075982493385 0.17739660307 0.078832790433 0.025936564724 0.14975402966 
0.038975346108 0.033789402741 0.27439081301 0.28274874145 0.067728538035 0.37626568275 -0.1054869715 -0.2671576297 0.017250393936 
-0.16254275353 -0.028970763483 0.10863175704 -0.031777469905 0.29912622841 0.047997371196 -0.035091862793 -0.19162755558 0.14340440227 
0.3873875866 -0.067748743777 0.046293271154 -0.10087471487 0.012403416643 0.26896856364 0.12678754023 0.33503537851 0.18807452922 
0.014119603969 -0.11872287014 0.29582754207 0.12629652065 -0.16121355918 0.14452529836 -0.023600993911 -0.11228450081 0.13123842502 
-0.14367299496 -0.15577351556 0.27436431652 0.32880171607 0.069545570572 0.30296439025 -0.19425107349 0.23350892722 0.08125205504 
0.02340541304 0.18027733194 0.31095614531 -0.016587094127 0.080598986079 0.10631937927 -0.15238487675 0.13682586888 0.33680145719 
0.057555859106 -0.2149060712 0.27101101013 0.11795220664 -0.044423084379 0.06186930595 0.45451076167 0.088904033927 0.13336683487 
-0.18006256476 -0.031238294722 0.24644359905 -0.055736888544 -0.24405090797 0.46769680392 -0.051354369244 -0.029615117766 0.25279486809 
0.10616478858 0.033182449886 0.15064348118 0.0011686372984 0.10844072696 0.48932211955 0.24799513834 0.16966401422 -0.41907839164 
-0.14170029203 0.055748147297 -0.39680625068 
f 3 70 double
0 0 -0.0012841259972 0 0 -0.0012841259972 0 0 -0.0012841259972 
0 0 -0.0012841259972 0 0 -0.0012841259972 0 0 -0.0012841259972 
0 0 -0.0012841259972 0 0 -0.0012841259972 0 0 -0.0012841259972 
0 0 -0.0012841259972 0 0 -0.0012841259972 0 0 -0.0012841259972 
0 0 -0.0012841259972 0 0 -0.0012841259972 0 0 -0.0012841259972 
0 0 -0.0012841259972 0 0 -0.0012841259972 0 0 -0.0012841259972 
0 0 -0.0012841259972 0 0 -0.0012841259972 0 0 -0.0012841259972 
0 0 -0.0012841259972 0 0 -0.0012841259972 0 0 -0.0012841259972 
0 0 -0.0012841259972 0 0 -0.0012841259972 0 0 -0.0012841259972 
0 0 -0.0012841259972 0 0 -0.0012841259972 0 0 -0.0012841259972 
0 0 -0.0012841259972 0 0 -0.0012841259972 0 0 -0.0012841259972 
0 0 -0.0012841259972 0 0 -0.0012841259972 0 0 -0.0012841259972 
0 0 -0.0012841259972 0 0 -0.0012841259972 0 0 -0.0012841259972 
0 0 -0.0012841259972 0 0 -0.0012841259972 0 0 -0.0012841259972 
0 0 -0.0012841259972 0 0 -0.0012841259972 0 0 -0.0012841259972 
0 0 -0.0012841259972 0 0 -0.0012841259972 0 0 -0.0012841259972 
0 0 -0.0012841259972 0 0 -0.0012841259972 0 0 -0.0012841259972 
0 0 -0.0012841259972 0 0 -0.0012841259972 0 0 -0.0012841259972 
0 0 -0.0012841259972 0 0 -0.0012841259972 0 0 -0.0012841259972 
0 0 -0.0012841259972 0 0 -0.0012841259972 0 0 -0.0012841259972 
0 0 -0.0012841259972 0 0 -0.0012841259972 0 0 -0.0012841259972 
0 0 -0.0012841259972 0 0 -0.0012841259972 0 0 -0.0012841259972 
0 0 -0.0012841259972 0 0 -0.0012841259972 0 0 -0.0012841259972 
0 0 -0.0012841259972 
radius 1 70 double
0.005 0.005 0.005 0.005 0.005 0.005 0.005 0.005 0.005 
0.005 0.005 0.005 0.005 0.005 0.005 0.005 0.005 0.005 
0.005 0.005 0.005 0.005 0.005 0.005 0.005 0.005 0.005 
0.005 0.005 0.005 0.005 0.005 0.005 0.005 0.005 0.005 
0.005 0.005 0.005 0.005 0.005 0.005 0.005 0.005 0.005 
0.005 0.005 0.005 0.005 0.005 0.005 0.005 0.005 0.005 
0.005 0.005 0.005 0.005 0.005 0.005 0.005 0.005 0.005 
0.005 0.005 0.005 0.005 0.005 0.005 0.005 
omega 3 70 double
1.9089218399 11.55537463 -21.692123475 -34.288099142 -9.0985782051 -25.524420279 -13.348743494 9.7900314273 -8.7236053668 
15.697145912 -39.155639569 16.10941291 -13.611771866 -21.259047211 13.11945307 1.258037369 -25.176546199 16.949677606 
9.0566292551 -19.144020524 4.0713773003 19.241037505 18.138831874 -9.3115182697 5.6334885986 5.5267681243 5.7362174025 
-46.058769378 -3.5000720928 -10.490999217 14.295079524 3.5572686016 -3.4861176756 23.070828756 -25.847039426 0.98906346643 
33.068980955 17.87760246 30.503707537 22.645335484 -21.664394021 20.531935388 -16.305775091 -14.709779795 -0.84084728931 
-75.210372374 4.5172771464 6.1098446668 2.5369207934 -27.531339409 12.170251306 -18.145799626 2.3795829512 45.856047586 
-22.52309023 17.700739311 -8.5628216505 4.9101882935 59.561342791 10.071097756 -32.220878411 -10.269853716 -9.0886735625 
-13.139276841 -27.41799526 -33.309925486 -14.211154354 0.9921918786 -43.097971361 -18.541134917 -12.970442271 -53.372942081 
-35.128851192 -28.189237217 -15.806231246 7.9295781126 -7.6754580572 -6.3276122284 -49.626966217 -41.973727492 7.3588596427 
0.92825498158 -31.117991589 3.4665879432 -22.020068147 42.067634069 -30.057575759 -17.189736588 11.264671291 -8.3148413019 
-37.593701382 16.827242278 -5.232948317 -10.164980011 20.041901199 -46.24605094 7.4660806594 21.246255661 11.346905047 
-12.702593599 -26.245932596 -7.869505938 -8.7729820204 11.897436571 4.5021816032 -15.779023064 34.987369069 5.7570558261 
-24.659413494 -34.176965561 -27.758270533 -2.224520514 -43.047392392 -34.717505502 -33.085877974 31.567474295 38.947361227 
15.902968388 20.656432726 11.861928243 5.2090259104 10.147439639 5.4100187358 -3.5442393216 9.247880785 13.731201031 
-16.222111483 43.519288452 2.5403866442 6.9242379021 15.91213296 17.881938985 41.378044304 7.0203118831 23.24023395 
19.059384701 27.097542946 32.772521243 -1.7034885417 14.922797331 14.031079738 -32.126955292 36.770701738 -14.43080681 
14.4955471 45.253003591 -30.519689942 -37.038081444 14.853560959 -16.779967773 13.831354716 -21.277156221 -0.82685716994 
-5.5862053198 2.4809876172 6.1077285369 1.2261600934 3.7456035639 -1.7840914491 0.55803271023 -9.0166967996 22.908163188 
-12.834207856 6.0782589607 8.4621670284 -76.188168087 34.817788063 22.289918032 -23.478449262 -35.309001306 11.783134658 
-0.96182294784 13.686522007 -0.55351534653 -75.386405945 -31.493316522 22.539070246 32.890317795 -18.505109709 -11.137898947 
-5.7703026637 22.709069713 -20.940889149 12.895634286 13.648698327 19.495734339 -36.713626707 36.16931591 -32.387024781 
5.8898562431 13.798576701 -22.373606093 41.964601324 -25.562003853 -33.908857267 -37.351645926 -3.6320401536 10.802720367 
1.7705011115 -7.5913221033 6.8285059622 11.060166881 31.053943848 -40.674668787 38.297497764 7.9724445132 1.2026189588 
7.0043000271 8.7432727939 7.5024471033 
