# vtk DataFile Version 4.2
Generated by LIGGGHTS
ASCII
DATASET POLYDATA
POINTS 70 float
0.000484602 -0.0194295 0.0294268 -0.0125804 0.0280818 0.0245203 4.16298e-06 0.0254602 0.0240152 
-0.0161835 -0.0288872 0.0436169 -0.000450087 -0.0267564 0.0427345 -0.0252265 -0.0111125 0.0433683 
0.0143043 -0.0159576 0.044422 -0.0184336 -0.00167026 0.0446905 0.013681 -0.00155506 0.0428599 
-0.0228949 -0.0298232 0.0519312 -0.0113672 -0.0370301 0.0503107 -0.00144171 -0.0381017 0.052124 
0.0153688 -0.0381591 0.0525137 -0.0299307 -0.0232789 0.0488227 0.0219413 -0.0299475 0.0482547 
-0.0209721 -0.0185045 0.0494525 -0.00681126 -0.0196906 0.0514608 0.0206164 -0.0174576 0.0536913 
0.0290885 -0.0114451 0.0469861 0.0377922 -0.0181959 0.0481228 -0.0394701 -0.00904699 0.053371 
-0.012337 -0.00137554 0.0526499 -0.00105708 -0.00692034 0.0524397 0.00911829 -0.0024065 0.0545077 
0.0330041 -0.00425269 0.055351 0.0413946 -0.00492217 0.0477232 -0.0414043 0.00338468 0.0455862 
-0.0201201 0.00906494 0.0516014 -0.00179013 0.00370241 0.0518216 0.014689 0.00731767 0.0506967 
0.0251621 0.00411989 0.0541217 0.0383501 0.0056527 0.0498163 -0.0387356 0.0148789 0.0531307 
-0.0100738 0.0187097 0.0478448 0.00568509 0.0105524 0.0544991 0.0143969 0.0194345 0.0509681 
0.0248829 0.0153381 0.05315 -0.0329824 0.0243218 0.0481704 -0.0236653 0.020747 0.0521886 
-0.011063 0.029066 0.0474124 0.00276023 0.0305204 0.0473595 0.0330035 0.0245234 0.0531442 
-0.0147201 0.0353542 0.0546214 -0.00407082 0.0383012 0.0505127 0.0170158 0.0341382 0.0476703 
0.00906904 0.0397757 0.0507565 -0.0235379 -0.027637 0.0635376 -0.012115 -0.0274366 0.0555049 
0.00372144 -0.0238531 0.0574058 -0.0373219 -0.0182647 0.0585527 -0.0278113 -0.0150773 0.055981 
-0.0149146 -0.0171822 0.0578373 0.0121619 -0.014456 0.0587096 -0.031489 -0.00459475 0.0615423 
-0.00348593 -0.00861653 0.0627532 0.0219622 -0.00850144 0.0587389 -0.0402753 0.00224853 0.0658513 
-0.03228 0.00713377 0.0562593 -0.00982322 0.0107001 0.0603465 0.0110724 0.0082235 0.0638101 
0.041626 -0.000265277 0.0639471 0.0347439 0.00989999 0.060274 -0.0161611 0.0244943 0.0590555 
-0.00575963 0.025315 0.0565243 0.0100684 0.0278178 0.0550857 0.0278283 0.0258444 0.0623422 
0.00448153 0.0351659 0.0598819 0.0226952 0.0343443 0.0574922 -0.0103813 -0.0225066 0.0669588 
0.0226661 0.0328096 0.0702822 
VERTICES 70 140
1 0 
1 1 
1 2 
1 3 
1 4 
1 5 
1 6 
1 7 
1 8 
1 9 
1 10 
1 11 
1 12 
1 13 
1 14 
1 15 
1 16 
1 17 
1 18 
1 19 
1 20 
1 21 
1 22 
1 23 
1 24 
1 25 
1 26 
1 27 
1 28 
1 29 
1 30 
1 31 
1 32 
1 33 
1 34 
1 35 
1 36 
1 37 
1 38 
1 39 
1 40 
1 41 
1 42 
1 43 
1 44 
1 45 
1 46 
1 47 
1 48 
1 49 
1 50 
1 51 
1 52 
1 53 
1 54 
1 55 
1 56 
1 57 
1 58 
1 59 
1 60 
1 61 
1 62 
1 63 
1 64 
1 65 
1 66 
1 67 
1 68 
1 69 

POINT_DATA 70
FIELD FieldData 7
id 1 70 int
22 82 224 821 318 2095 153 801 1064 
1962 1606 722 2101 1068 348 599 1562 1605 
1258 355 1489 936 546 810 1857 1780 522 
1435 1335 1450 1983 657 1936 2092 447 281 
1546 364 1286 1100 257 183 1176 1515 148 
1685 2126 1230 858 1038 1240 982 2075 286 
1478 739 535 1822 962 1010 1148 851 668 
1350 1646 2083 1231 1510 1721 1192 
type 1 70 int
2 2 2 2 2 2 2 2 2 
2 2 2 2 2 2 2 2 2 
2 2 2 2 2 2 2 2 2 
2 2 2 2 2 2 2 2 2 
2 2 2 2 2 2 2 2 2 
2 2 2 2 2 2 2 2 2 
2 2 2 2 2 2 2 2 2 
2 2 2 2 2 2 2 
i 3 70 int
0 0 0 0 0 0 0 0 0 
0 0 0 0 0 0 0 0 0 
0 0 0 0 0 0 0 0 0 
0 0 0 0 0 0 0 0 0 
0 0 0 0 0 0 0 0 0 
0 0 0 0 0 0 0 0 0 
0 0 0 0 0 0 0 0 0 
0 0 0 0 0 0 0 0 0 
0 0 0 0 0 0 0 0 0 
0 0 0 0 0 0 0 0 0 
0 0 0 0 0 0 0 0 0 
0 0 0 0 0 0 0 0 0 
0 0 0 0 0 0 0 0 0 
0 0 0 0 0 0 0 0 0 
0 0 0 0 0 0 0 0 0 
0 0 0 0 0 0 0 0 0 
0 0 0 0 0 0 0 0 0 
0 0 0 0 0 0 0 0 0 
0 0 0 0 0 0 0 0 0 
0 0 0 0 0 0 0 0 0 
0 0 0 0 0 0 0 0 0 
0 0 0 0 0 0 0 0 0 
0 0 0 0 0 0 0 0 0 
0 0 0 
v 3 70 double
-0.039555710386 0.045343278812 -0.15259857962 0.022905978135 0.036166006642 -0.18998543401 0.0052602952888 0.028561359308 -0.178443433 
0.043590448411 0.081586383756 -0.031316837401 -0.034434415189 0.092982781247 -0.078706219426 0.078444304353 -0.14420640689 0.011102942354 
-0.061468970701 0.025677819636 0.012799574563 -0.0058889090466 0.015374277306 -0.020930713906 0.063659043669 0.03626198152 -0.13181360862 
0.04412919452 0.015063462326 0.00069968245306 0.063320036415 -0.20842801317 -0.16250242954 0.060292881314 0.12709576182 -0.02859092247 
0.11465682429 -0.026364598031 0.070376223495 -0.040949624334 0.14201096727 -0.0034234997184 -0.25782400612 -0.073774398181 -0.037256958171 
0.048786765702 0.14510159864 0.040317367723 0.0098504077209 0.027465789458 0.040995508633 -0.067644956933 -0.047649846413 0.0092765388333 
0.075801532807 0.058984920327 -0.13153138921 -0.044117789293 0.0064350122658 0.047510911336 0.12055096382 0.0087441365841 0.130705784 
0.014032311691 -0.13846596353 0.0040236011694 -0.16262494232 0.007072011106 0.14742116533 0.057210196272 -0.070468197913 0.080303887621 
0.011242969847 0.10854332273 0.098795939729 0.012958405747 0.083072772349 0.0010875518225 -0.090190981759 0.16031454747 -0.055429198947 
-0.10487338126 0.027518942869 0.051370011928 -0.063626229793 0.020315715645 -0.03229151749 -0.081052907322 -0.18567848653 -0.074560410174 
-0.1241953113 0.063840153162 0.14404316799 0.058893668374 0.15925560666 -0.14199671642 -0.057541591624 -0.073318814319 0.077947659377 
-0.0097413624786 -0.0031048301349 0.061546217487 0.083500927488 0.029635051895 0.18235666396 0.074051468097 0.05833255008 -0.013885728014 
-0.054718051367 -0.12571054771 0.059614553552 0.090823590784 -0.13968247302 0.091962931682 0.059409804183 0.081845011729 -0.02772939677 
-0.020168064505 0.043123000058 0.074847661838 -0.0033850047663 0.1621410597 -0.065109555219 -0.029866632251 0.030227578741 0.10398817815 
-0.065212452339 -0.17300583487 0.087710726168 -0.021333284687 -0.225457407 -0.12087724329 0.014947191392 -0.015856479027 0.021367028234 
-0.035923323631 -0.045943673982 0.11365600257 0.18042247661 0.28625348769 0.0697012898 -0.099537333277 0.13165184491 0.050532667804 
-0.065203690151 -0.12309025952 0.1171389504 -0.081767986412 0.12608753281 0.20391838797 -0.043957823052 -0.092571057793 0.023296172534 
-0.017387145075 -0.16844101837 0.094774399373 0.15371018756 -0.034185916174 0.073984510109 -0.019532022595 -0.14470946142 0.17275317514 
0.14577350218 -0.070623077181 0.23229796989 -0.0052285844405 0.058228392185 0.14431000055 0.030984664247 -0.028272009536 0.26042340554 
-0.10737778433 0.14440829185 0.030288268039 0.48667688181 0.25227022235 -0.02826734416 -0.0031446786717 -0.018948119111 0.22810505978 
0.063591832729 -0.075191681552 -0.060231185474 -0.2434472279 -0.20888986747 0.29734800997 0.10975313572 -0.013384057782 0.10963872471 
0.0059554531328 0.019471635904 0.069648802607 -0.094880321434 -0.09459291515 -0.10218159668 -0.053332710013 0.081883504587 0.049951002642 
0.061462428194 0.018653172823 0.07947503251 -0.036971554512 0.046303946768 0.23491726029 0.2534107883 0.22375111526 -0.051415110163 
-0.4113731353 -0.039519842076 0.2662659588 
f 3 70 double
0 0 -0.0012841259972 0 0 -0.0012841259972 0 0 -0.0012841259972 
0 0 -0.0012841259972 0 0 -0.0012841259972 0 0 -0.0012841259972 
0 0 -0.0012841259972 0 0 -0.0012841259972 0 0 -0.0012841259972 
0 0 -0.0012841259972 0 0 -0.0012841259972 0 0 -0.0012841259972 
0 0 -0.0012841259972 0 0 -0.0012841259972 0 0 -0.0012841259972 
0 0 -0.0012841259972 0 0 -0.0012841259972 0 0 -0.0012841259972 
0 0 -0.0012841259972 0 0 -0.0012841259972 0 0 -0.0012841259972 
0 0 -0.0012841259972 0 0 -0.0012841259972 0 0 -0.0012841259972 
0 0 -0.0012841259972 0 0 -0.0012841259972 0 0 -0.0012841259972 
0 0 -0.0012841259972 0 0 -0.0012841259972 -0.0040098212492 -0.0027374049027 -0.0062920488789 
0 0 -0.0012841259972 0 0 -0.0012841259972 0 0 -0.0012841259972 
0 0 -0.0012841259972 0 0 -0.0012841259972 0 0 -0.0012841259972 
0 0 -0.0012841259972 0 0 -0.0012841259972 0 0 -0.0012841259972 
0 0 -0.0012841259972 0 0 -0.0012841259972 0 0 -0.0012841259972 
0 0 -0.0012841259972 0 0 -0.0012841259972 0 0 -0.0012841259972 
0 0 -0.0012841259972 0 0 -0.0012841259972 0 0 -0.0012841259972 
0 0 -0.0012841259972 0 0 -0.0012841259972 0 0 -0.0012841259972 
0 0 -0.0012841259972 0 0 -0.0012841259972 0 0 -0.0012841259972 
0 0 -0.0012841259972 0 0 -0.0012841259972 0 0 -0.0012841259972 
0 0 -0.0012841259972 0 0 -0.0012841259972 0 0 -0.0012841259972 
0 0 -0.0012841259972 0 0 -0.0012841259972 0 0 -0.0012841259972 
0 0 -0.0012841259972 0 0 -0.0012841259972 0 0 -0.0012841259972 
0 0 -0.0012841259972 0 0 -0.0012841259972 0 0 -0.0012841259972 
0 0 -0.0012841259972 
radius 1 70 double
0.005 0.005 0.005 0.005 0.005 0.005 0.005 0.005 0.005 
0.005 0.005 0.005 0.005 0.005 0.005 0.005 0.005 0.005 
0.005 0.005 0.005 0.005 0.005 0.005 0.005 0.005 0.005 
0.005 0.005 0.005 0.005 0.005 0.005 0.005 0.005 0.005 
0.005 0.005 0.005 0.005 0.005 0.005 0.005 0.005 0.005 
0.005 0.005 0.005 0.005 0.005 0.005 0.005 0.005 0.005 
0.005 0.005 0.005 0.005 0.005 0.005 0.005 0.005 0.005 
0.005 0.005 0.005 0.005 0.005 0.005 0.005 
omega 3 70 double
-0.053232139146 6.3724245808 -1.6984982654 2.656611054 -0.55635489819 1.3612884093 7.5929930155 -4.7893922962 -2.7587455573 
-17.02205964 -4.5032351198 -5.6618991434 -10.009574624 -5.6112120993 -27.56717344 13.98944928 -10.65850623 -13.255917834 
-7.6894103111 1.3359015215 -14.152650467 16.272867303 -1.7161255076 0.082950505925 24.384524915 17.273880751 17.959210508 
-2.3147151218 3.3002593242 -15.45736168 -0.77771873765 5.1265362493 7.3170575181 -4.6812975963 -5.6143638837 -12.068772287 
-39.98188359 36.480576406 8.2022188603 5.2263309075 12.50620415 7.9210785122 -23.711691806 8.4660027382 15.1437172 
13.474270933 4.0674275176 15.600808585 22.554520562 -13.562727949 -34.672082515 -35.122853189 -7.710295955 -13.972676278 
13.3782184 -15.845943775 10.166055751 32.692009117 11.538882881 3.100453579 -29.019369484 -26.07922103 1.0926254341 
7.1987158844 1.2673250101 -15.274766573 -7.6759085578 -2.2339203559 -10.439731552 28.298348835 8.2358777259 -18.142664253 
3.1030159774 19.396824896 3.0105846995 -21.411205073 0.33082588252 -3.6159146241 0.38297762583 -19.858680671 3.901024643 
-12.223048568 18.697955925 -13.539817767 21.185331247 -14.338055596 6.4027461559 -3.3273234605 27.05552344 19.497617603 
21.442622518 -6.2644944979 -10.33754758 -9.3509044685 33.491376391 8.0736858497 17.623274877 11.445403296 -8.1585299861 
2.4009706928 -2.4263725218 2.8179714143 1.9855682319 6.6055676552 -41.502530998 -11.93500517 -17.640853587 -17.874267849 
-2.7646888567 -18.420370303 -26.079811503 -15.674009269 24.664791274 -0.43281327951 21.589354462 -20.29300297 -28.13130167 
-14.728611624 25.873849276 -18.883935395 -7.457912128 3.55824837 -19.584556918 -11.184115073 -16.733114432 -4.6660876459 
30.521341219 -3.4883996019 1.9511289809 7.4765675968 -24.365596951 3.1177758333 12.548356297 -12.402930683 -8.0468129964 
13.84181516 -0.15951549181 10.097660728 -56.214832314 17.285656222 49.344853261 -0.97204796328 -1.1984793469 7.0553787387 
-1.8735659875 -23.873536093 12.755943286 -22.216203934 24.068238032 -19.31990984 -8.9950711464 13.195121696 -13.159714094 
-11.116222793 0.14540672341 -9.8548390287 22.888443281 -3.9005935152 2.0183425496 -13.149851812 15.470056008 13.539871845 
-34.340132677 -24.274373609 -12.228427865 46.933257698 14.848184146 6.8557862959 11.15213029 0.77698877052 4.6836740832 
0.81589160002 42.466528754 3.3271927412 -12.505037671 84.997172432 11.003391579 27.206901094 -10.244126148 21.883440169 
-8.0838395798 13.489262455 -6.5518093639 -26.809033772 -26.399877854 -1.7339150155 -4.4674796578 -4.0218838264 -1.7163345106 
5.9868128759 -2.9871040737 12.033757453 -5.8486005081 18.267883537 -11.508497744 2.9031429039 -5.7920471544 -15.940418979 
-38.909141463 27.19778743 -28.973352465 -12.588916278 -18.312790408 -0.76289387834 -74.411834138 41.082030342 38.61173601 
31.111789231 0.83271913834 11.271125941 
