# vtk DataFile Version 4.2
Generated by LIGGGHTS
ASCII
DATASET POLYDATA
POINTS 70 float
0.0142472 -0.0394483 0.0177748 -0.0129313 -0.0221119 0.0245525 -0.00173173 -0.0111614 0.0230522 
0.0269116 -0.0118848 0.0201561 -0.011612 -0.0099865 0.0220588 0.0221916 -0.00402988 0.024158 
-0.0356185 0.00675696 0.0213478 -0.0320268 0.0178046 0.019564 0.00966979 0.0400892 0.0243492 
-0.0263489 -0.0205722 0.0331181 0.0337536 -0.0176895 0.0255988 -0.0305064 -0.000113474 0.0302833 
-0.0070517 -0.00180361 0.0343362 -0.0190822 0.00624949 0.0298419 -0.0102881 0.00325065 0.0261464 
0.0419097 0.00130421 0.0259362 -0.0311435 0.0103228 0.0304477 -0.00414612 0.0152978 0.0261834 
0.0186042 0.0254205 0.0305597 0.00111491 0.0350782 0.0256512 -0.00972632 -0.0408648 0.0397934 
-0.000711013 -0.0419813 0.0441444 0.00765797 -0.0412708 0.0387176 0.000951137 -0.0333351 0.0393708 
0.0243203 -0.0342274 0.0412321 -0.0140477 -0.0203321 0.0382723 -0.00802314 -0.027699 0.0427684 
-0.0309082 -0.0147956 0.0398884 -0.0211277 -0.0129271 0.0408061 0.00370118 -0.0124161 0.0428522 
0.0264511 -0.00401262 0.0379898 0.0417272 -0.00454017 0.0450884 0.00967706 0.0185473 0.0431083 
0.0161184 0.0166514 0.0355984 0.0400409 0.0125039 0.0405986 -0.00198223 0.0263626 0.0385829 
0.029607 0.0297518 0.039667 -0.0206287 -0.0312286 0.0525582 0.000738875 -0.0279049 0.0477649 
-0.040027 -0.0126679 0.0540133 -0.0205449 -0.0139425 0.0534383 0.0109407 -0.0189023 0.0451998 
-0.00879258 -0.00531305 0.0477817 -0.0238517 0.0085747 0.0466665 -0.0144264 0.0082601 0.0499924 
0.0257448 0.00489723 0.0471614 0.0355354 0.0070245 0.047647 0.0386345 0.0162549 0.0499258 
-0.0226666 0.0307855 0.0491883 0.0101835 0.0370062 0.0540776 0.0103126 0.0312569 0.0456976 
-0.00693225 -0.035939 0.056332 0.0132156 -0.0307861 0.0578449 0.0279755 -0.0301156 0.0561799 
-0.0231794 -0.0206997 0.060323 -0.00529044 -0.0268493 0.0601637 0.00445213 -0.0214369 0.058577 
-0.00514914 -0.0168799 0.0593961 0.00492516 -0.0115591 0.0600618 -0.0304793 -0.00462234 0.0600501 
0.0358 -0.00386212 0.0566186 -0.03545 0.00312002 0.0554685 -0.0365602 0.0124505 0.0600607 
-0.0190425 0.0175359 0.0554212 -0.00398071 0.0146114 0.0575237 0.0110632 0.0149191 0.0581592 
-0.00167078 0.024409 0.0614043 0.0287749 0.023157 0.058253 -0.0142446 0.0394348 0.0558865 
-0.00322499 0.0418245 0.0587638 
VERTICES 70 140
1 0 
1 1 
1 2 
1 3 
1 4 
1 5 
1 6 
1 7 
1 8 
1 9 
1 10 
1 11 
1 12 
1 13 
1 14 
1 15 
1 16 
1 17 
1 18 
1 19 
1 20 
1 21 
1 22 
1 23 
1 24 
1 25 
1 26 
1 27 
1 28 
1 29 
1 30 
1 31 
1 32 
1 33 
1 34 
1 35 
1 36 
1 37 
1 38 
1 39 
1 40 
1 41 
1 42 
1 43 
1 44 
1 45 
1 46 
1 47 
1 48 
1 49 
1 50 
1 51 
1 52 
1 53 
1 54 
1 55 
1 56 
1 57 
1 58 
1 59 
1 60 
1 61 
1 62 
1 63 
1 64 
1 65 
1 66 
1 67 
1 68 
1 69 

POINT_DATA 70
FIELD FieldData 7
id 1 70 int
44 732 912 837 385 663 467 208 595 
1606 398 1986 2166 1438 1371 720 895 936 
1782 1157 2710 2454 2509 1464 3102 2267 2996 
2873 2640 2252 2790 2566 2117 1929 3228 1751 
2149 3932 2782 3857 4179 3841 3057 3206 3265 
3510 3364 3475 3770 3724 3209 4006 4989 4280 
5103 5377 4708 5397 5509 4181 4482 4052 5353 
4796 4610 5050 5420 4362 3909 5402 
type 1 70 int
2 2 2 2 2 2 2 2 2 
2 2 2 2 2 2 2 2 2 
2 2 2 2 2 2 2 2 2 
2 2 2 2 2 2 2 2 2 
2 2 2 2 2 2 2 2 2 
2 2 2 2 2 2 2 2 2 
2 2 2 2 2 2 2 2 2 
2 2 2 2 2 2 2 
i 3 70 int
0 0 0 0 0 0 0 0 0 
0 0 0 0 0 0 0 0 0 
0 0 0 0 0 0 0 0 0 
0 0 0 0 0 0 0 0 0 
0 0 0 0 0 0 0 0 0 
0 0 0 0 0 0 0 0 0 
0 0 0 0 0 0 0 0 0 
0 0 0 0 0 0 0 0 0 
0 0 0 0 0 0 0 0 0 
0 0 0 0 0 0 0 0 0 
0 0 0 0 0 0 0 0 0 
0 0 0 0 0 0 0 0 0 
0 0 0 0 0 0 0 0 0 
0 0 0 0 0 0 0 0 0 
0 0 0 0 0 0 0 0 0 
0 0 0 0 0 0 0 0 0 
0 0 0 0 0 0 0 0 0 
0 0 0 0 0 0 0 0 0 
0 0 0 0 0 0 0 0 0 
0 0 0 0 0 0 0 0 0 
0 0 0 0 0 0 0 0 0 
0 0 0 0 0 0 0 0 0 
0 0 0 0 0 0 0 0 0 
0 0 0 
v 3 70 double
-7.6772456131e-07 -4.5727385348e-07 4.7804438206e-07 4.0359564641e-06 5.0640728192e-06 -4.7054808859e-06 -5.5151711496e-06 -9.6485479118e-09 -2.9992425305e-06 
-1.8697372352e-06 -2.1929645777e-06 -2.8519948371e-06 9.9319606287e-06 -3.7507793629e-06 3.2058913534e-06 2.7512233572e-06 -6.8439267787e-06 -8.9379414879e-07 
8.4183571846e-06 2.3052631075e-06 -3.6172058292e-06 -4.7668210438e-06 -5.3816564596e-06 -2.0990541797e-06 -1.6490670287e-05 -5.1965138977e-06 4.1558395124e-06 
-1.14729094e-06 1.966383865e-06 7.9911726391e-07 -6.4350755687e-06 -6.4348651959e-06 -3.9248621377e-06 8.745287257e-06 1.8636829015e-06 2.1974165793e-05 
-8.7729445505e-06 -4.6833349452e-06 -5.559578286e-06 -1.1314185585e-06 -3.0152767814e-06 -8.0056390059e-06 -5.4862710898e-06 2.5737101553e-06 2.2922495526e-07 
1.8669496144e-05 -2.6856193397e-05 2.2561046379e-05 -7.5869875336e-06 -3.2295971864e-06 8.4892871636e-06 -1.3702785097e-05 -8.1560831259e-06 9.2126548367e-06 
9.1829223794e-07 3.091930505e-06 2.1959766281e-06 3.8143278825e-05 2.694100504e-05 -3.1768546096e-06 5.8420735352e-07 -1.6991047588e-06 -4.1792373438e-06 
-1.2554663286e-06 -2.1437626655e-06 -6.6872505814e-06 -3.0915547459e-06 4.8488471921e-06 5.5819348948e-06 6.2847499756e-07 -2.6739230495e-06 -7.4114759864e-07 
-1.0482241461e-06 -3.5024597464e-06 -1.1480649837e-06 3.13841462e-06 3.9127751643e-06 4.0652747251e-06 -5.6857020912e-06 1.155618306e-06 8.4605724107e-07 
-1.5264392354e-07 6.7656692343e-06 6.6149658804e-06 1.2514704243e-06 4.3183063452e-07 -4.8962089687e-06 2.6335095685e-06 2.2795330474e-07 -3.3802507989e-06 
1.2159825902e-07 -3.3306405389e-07 3.3398519631e-06 -5.353297005e-06 5.2439407983e-07 -1.4436265303e-06 7.0671436742e-07 6.2712732584e-07 -4.0363128406e-06 
1.2644919424e-06 -1.625751613e-06 6.203215792e-07 1.5310836983e-06 2.1718200303e-06 5.9657611149e-07 4.3275626437e-07 2.9365050188e-06 -2.9122319315e-06 
-1.4443599008e-05 -4.0523447958e-05 -2.3515776251e-05 4.0123670102e-07 -9.0409241161e-07 -9.8300195002e-07 -6.0867976682e-07 6.8742813683e-07 9.8157711774e-07 
-1.4436163113e-07 3.3077028757e-07 3.5683571436e-07 2.0026459334e-07 -7.0068633175e-07 -7.8924118999e-07 -4.1686291898e-06 6.8227607722e-06 1.1280419779e-05 
5.3716193983e-07 1.8822431213e-06 2.9134210681e-06 -7.6022203542e-07 9.2215372505e-08 -1.7107403696e-06 5.9697312927e-07 7.8507858951e-07 2.4417005722e-06 
-4.4089207743e-07 -6.172839811e-07 9.8977393861e-08 -6.0909134568e-07 -4.2829194971e-07 9.5283903116e-07 1.8637614505e-06 3.3218761902e-06 -1.2742971722e-06 
3.1061076172e-07 -1.5924882515e-06 -2.5569288101e-06 1.9180163992e-06 -4.6376416104e-07 -4.2185261027e-07 -5.8369762226e-06 2.0656506424e-06 -9.6755707079e-06 
-7.363612475e-07 -5.5755753583e-07 4.2682684765e-07 -1.8291681123e-07 -1.4592258287e-06 1.0887904968e-06 -2.1958464232e-07 -1.1989576816e-06 2.5633135544e-06 
-8.2851733795e-07 -5.4224536068e-08 2.6310034976e-08 9.9814104746e-07 1.2044378878e-06 -2.0064301093e-07 3.1537660817e-07 -6.1017551535e-07 2.1368309337e-07 
-4.6124140799e-07 8.9747090605e-07 -9.59702483e-08 -4.6051667782e-07 -6.6434436677e-07 -7.6247647177e-07 -2.4104390486e-07 -7.7991445331e-08 1.6138376196e-06 
-9.9118552508e-08 -1.9321106653e-07 -1.3146787479e-06 -8.1004169569e-07 -9.2160456322e-07 -6.0113438301e-07 5.0753419014e-07 5.032401111e-10 -5.1359455928e-07 
-3.7852591348e-07 1.3980132962e-06 -6.3842075023e-07 3.832146358e-08 -1.1362152063e-06 1.0355306272e-07 8.3110062959e-07 2.7866087664e-07 4.4463847101e-07 
-9.5241898221e-08 -2.7893391102e-07 1.5271221194e-07 -1.6982265657e-07 -1.0618924297e-07 4.8924341743e-07 -2.0460483387e-07 1.0755226549e-07 -9.0858348985e-08 
-3.1117530568e-07 3.6404068141e-07 5.8429417306e-07 
f 3 70 double
3.1882470764e-05 -6.1747774496e-05 -3.8159146073e-05 2.1494243687e-05 -2.1629128042e-05 -7.612064714e-05 -0.00013524300277 5.7721796366e-05 -8.6954688418e-05 
-2.8794637014e-05 6.9217016292e-05 -5.6078315121e-05 5.16499748e-05 -5.3987632673e-05 9.0181864241e-05 2.6655685563e-06 7.3591540647e-05 6.1803145482e-05 
-2.4174688959e-06 9.290751234e-05 -6.7979898344e-05 -0.00011833985468 1.1827013329e-05 1.019293178e-06 -3.3264273682e-05 -5.0984746913e-05 -8.5808187171e-05 
5.4398417916e-06 4.7844882126e-05 4.0195286479e-05 -2.7872236242e-05 0.00017051927841 3.3068907156e-05 -0.00015399124556 -7.4904500049e-05 6.8271475823e-05 
-8.2297619671e-05 -2.2332192518e-05 0.00010139646608 -3.1292628938e-05 -1.1649946668e-05 4.6983194966e-05 -7.5435302907e-06 1.8487928513e-05 -1.6180748488e-05 
-4.2603855956e-05 4.3726641204e-05 -2.2541389069e-05 7.8822555348e-05 -8.8658031919e-05 -2.7083369414e-05 -0.00026169811518 -0.00010083146659 0.00014278383626 
1.8804500327e-05 1.7499189684e-05 -4.2588251972e-05 -4.8305975548e-05 -0.00022848888285 0.00011204430401 1.4978615245e-05 1.7904244809e-05 -5.4037099115e-05 
3.0526951259e-05 -3.2277573368e-05 -2.5914177872e-05 -1.7401740431e-05 1.8917709323e-05 -3.9552690985e-06 1.2499759521e-05 4.039211344e-05 -4.1666174339e-06 
-1.6328746719e-05 -1.0133986571e-05 -1.6748813044e-05 2.8730279006e-05 1.0383125028e-05 -1.1048785352e-05 7.2899465228e-06 1.309481314e-05 6.1650138386e-06 
3.9421349614e-05 3.8662545107e-05 -3.8110811024e-05 -5.9668333126e-06 8.1524008757e-06 4.5812149145e-05 -1.6880206449e-05 -1.3352977772e-05 6.3091621468e-06 
4.1432651787e-06 -1.1506199814e-06 3.655920918e-05 5.091648041e-05 -1.9588590772e-05 2.3683920501e-05 3.9198680255e-05 3.3602525754e-06 1.737647695e-05 
-5.9762199517e-05 -5.8634670422e-06 2.2558040789e-05 -1.5668452522e-05 2.4083620976e-06 4.0528639047e-06 -1.1270711062e-05 -3.9368310029e-05 1.3554196119e-05 
5.7912357166e-05 2.963074843e-05 5.2921977622e-05 -1.1587176639e-06 1.9314894638e-06 -2.0506271804e-06 -3.1667352066e-06 3.8898779486e-06 -4.3328239957e-06 
7.9949962344e-07 2.4510216397e-06 1.1180770451e-06 -8.2269342748e-07 1.4350438244e-06 -2.7167135884e-06 -3.673622114e-06 2.2098249552e-05 3.3927545289e-05 
-8.2896159453e-06 2.4844768934e-05 -4.1605484557e-06 6.3909428572e-06 -7.4516507198e-06 -3.9193088975e-06 -7.1092347638e-06 -1.1457493927e-07 8.195286734e-07 
-2.402763472e-06 2.3839915712e-05 6.5191559176e-07 -1.4576616751e-05 6.9330640727e-06 -1.6710932289e-05 1.6838510782e-06 -9.7847435246e-06 4.5636333934e-06 
-5.6723546928e-06 -7.0199694409e-08 -1.7338426272e-06 -8.4163758007e-06 -1.6405339587e-06 -9.4391555725e-06 7.1115512924e-06 -9.8462176907e-06 1.502289497e-05 
-1.8121211702e-06 -2.5282408076e-07 1.5841432183e-06 -4.4124234497e-07 -1.2113246924e-06 -2.1473669415e-06 -4.3104303409e-07 -3.7048404407e-08 1.2443404643e-06 
1.8006165062e-06 -1.3050936179e-06 -1.6032563899e-06 3.2499840335e-06 2.1368852413e-07 -1.8063755469e-07 -8.7102669577e-07 6.5480084571e-07 -6.5302585364e-07 
-5.2243299005e-07 6.8249933653e-07 8.4057503516e-07 6.3720580486e-07 4.8111420259e-07 -5.6466777053e-07 9.2421407764e-07 2.6079152779e-07 -1.7701049023e-08 
7.6043960382e-07 -9.9742532523e-08 3.7721282957e-07 -1.5626068197e-07 -4.9779707607e-08 -7.4552782484e-07 -4.0703458212e-07 5.9781542481e-07 6.947122487e-07 
-3.7950429349e-07 -4.6353551111e-07 -1.648267375e-06 4.5221311142e-06 4.0718210711e-06 -3.1929543425e-07 1.8252288846e-06 4.7539608544e-07 -6.4728766236e-07 
-3.4413389709e-06 -2.2640118014e-06 -7.6953035657e-07 -9.6280945271e-07 -1.3034107947e-06 1.0415615563e-06 -1.7854796669e-07 5.16598888e-07 -1.572189948e-06 
1.8149182518e-07 -2.0332858691e-06 -2.633312618e-06 
radius 1 70 double
0.005 0.005 0.005 0.005 0.005 0.005 0.005 0.005 0.005 
0.005 0.005 0.005 0.005 0.005 0.005 0.005 0.005 0.005 
0.005 0.005 0.005 0.005 0.005 0.005 0.005 0.005 0.005 
0.005 0.005 0.005 0.005 0.005 0.005 0.005 0.005 0.005 
0.005 0.005 0.005 0.005 0.005 0.005 0.005 0.005 0.005 
0.005 0.005 0.005 0.005 0.005 0.005 0.005 0.005 0.005 
0.005 0.005 0.005 0.005 0.005 0.005 0.005 0.005 0.005 
0.005 0.005 0.005 0.005 0.005 0.005 0.005 
omega 3 70 double
-0.00047279900668 0.00042257813672 0.00011124083044 -0.00097841978081 -0.00022718856398 0.0006872470001 0.00023642077967 0.0010000082307 0.00088711728694 
0.0017037964506 -6.071974154e-05 0.0034932883478 -0.00072734232032 -0.00055395770241 0.00035504180104 0.0022639578598 -0.0025029614008 -0.00083386753271 
0.00081158670873 0.0001981065895 0.0004681296459 1.0412764695e-05 0.0019890183713 7.3387594691e-05 0.00017233916796 -0.00065171972953 0.0017656606352 
0.00092261880264 6.353896846e-05 -0.0001609377805 0.016702889077 0.0024777602436 -0.000121198508 -0.00031491675619 -0.0017999264326 -0.00043781204906 
-0.00045543177933 0.00087322485527 0.00018319503649 -2.3172527988e-05 0.00052185189869 0.00038020457387 -0.00084948053991 0.00052794173186 0.00023702282793 
-0.0021856334705 -0.0024644282492 -0.001113048522 -8.7813097899e-05 0.0010199522366 0.00034078340844 -0.00074575974058 -0.0016559435045 0.0045116586174 
0.0015548080059 -0.00030603606071 -0.00096418743409 0.00062976223231 -0.00064136294876 0.0014380340274 -0.0049055100018 -0.00015081499276 -0.002476796014 
0.00081294959826 0.00065213503301 0.00062468044303 -0.00082334004532 -0.00012558663317 -3.5695210064e-05 0.0006092756769 -0.00018616346416 8.8485658129e-05 
0.00024107992183 0.00075501493552 -0.00026238265939 -6.6755335352e-05 -0.0003143118126 0.00028556723438 0.00010649962971 0.00097058989988 -7.5170544296e-05 
0.00029172001718 0.00054933261255 -0.00080145201101 -0.00011929940935 0.00012174174373 -0.00020514768804 -0.00084797291665 -0.00031842054621 -0.0004495533764 
4.9306050393e-06 0.0003695588054 -0.00016423568365 -8.5708898427e-05 -0.0010577108835 -0.00044193753504 -0.00052649832986 0.00033139782028 -7.5570313541e-05 
2.3652170585e-05 0.00034849982653 7.1761360879e-05 0.0019391640361 0.0014633777837 -0.0019447635156 0.0011165959246 -0.00046320289655 -0.00040116014602 
0.016122163615 0.0007606020377 -0.0091903608235 -0.00041170044063 0.000366840063 0.00025273983167 0.00029411075044 -0.00041318671261 0.00015168613469 
0.00052051903153 0.00013157870864 2.1859844576e-05 0.00016544552575 -0.00082499240115 0.0010528358679 -0.0020774627665 -0.00053049267576 -0.00037949702423 
0.00012349437356 -0.00041068858862 -0.00011178707447 -8.5308431596e-05 0.00021846415948 0.00021880882591 -5.0909664928e-05 0.00035213215578 0.00035056905651 
0.00011949528078 -0.00012527955204 -0.00052321507266 -0.00083043065921 -4.6928952626e-05 0.00022423291864 -0.00057103250938 0.00052038091938 0.00033012601528 
-0.00015300916785 0.00094302961551 -0.00072961417889 0.0004514916541 -0.00067730524927 0.00045643584794 -0.0012012279511 -0.0020999010057 -0.000503641392 
9.3271895214e-05 -0.00038132723852 -0.00033603464499 0.00041368057142 0.00011919963906 0.00017955035167 0.00012365912821 0.00038292823281 -0.00037021121756 
-0.00058577300935 -0.00015698519753 3.551256519e-05 -9.5685750486e-05 -0.00047510859456 0.00022319573304 4.7762727222e-05 -9.9349813204e-05 -2.6772144766e-05 
-0.00011874238071 6.8506310121e-05 0.00015116335668 4.9881143623e-05 -9.3328205415e-07 4.5972871177e-06 5.761338908e-05 -0.00013804275597 -0.00039601827133 
6.5085509795e-05 -0.00030463674547 -2.079621794e-05 -0.00020131517873 -0.00015572259814 -3.4773390415e-05 1.833810774e-05 5.666902487e-06 -0.0001109356436 
0.00041898584542 -0.00014369062807 0.00035752741824 -0.0001100360164 -8.7034748894e-05 -0.001124052273 -6.7932824656e-05 -0.0002703952874 -3.1862294489e-05 
-0.0003742440385 -0.00024065034919 -0.0001109216832 -0.00010932927366 0.00011873657959 0.00022530622822 -0.00027470471806 -0.00026579676987 3.533162133e-05 
-0.00014257931839 -0.00023778084307 3.5483941297e-05 
