# vtk DataFile Version 4.2
Generated by LIGGGHTS
ASCII
DATASET POLYDATA
POINTS 70 float
0.000418079 -0.0233273 0.0223435 0.00109518 0.025515 0.0190765 -0.0120294 0.0305816 0.018897 
-0.0224303 -0.0185782 0.0253604 0.00740685 0.00200177 0.0275581 0.00236345 0.0149622 0.0281856 
-0.0220558 -0.0349189 0.0401433 -0.0129018 -0.0337764 0.0451129 0.00644864 -0.0363866 0.0438813 
0.0171144 -0.0365686 0.0449928 -0.00928743 -0.0225553 0.0431941 0.00868726 -0.0226274 0.0441331 
0.0238457 -0.0280224 0.0422678 -0.0376717 -0.0174658 0.0429194 -0.0229674 -0.0157184 0.0406491 
-0.000851085 -0.0156071 0.0408722 0.00835893 -0.0113907 0.0425668 0.0242944 -0.0163319 0.0416963 
-0.0415863 -0.000997154 0.0441122 -0.0311884 -0.000826944 0.0429114 -0.0205176 -0.00298265 0.0419863 
-0.00661278 -0.00297693 0.0406173 0.0048223 -0.000632935 0.0419364 0.0224438 -0.00639044 0.0431076 
0.0414781 -0.00569126 0.0414998 -0.0248479 0.00743941 0.0427061 -0.0150389 0.0094352 0.0435378 
-0.0257421 0.0176877 0.0409771 -0.0103057 0.018963 0.0431701 0.000576895 0.0188284 0.0449443 
0.0099064 0.0180887 0.0412072 0.0211344 0.0143789 0.0394943 0.0345895 0.0161633 0.0434443 
-0.0167891 0.026844 0.0409441 -0.00523744 0.0282065 0.0449442 0.0256636 0.0250731 0.0408066 
-0.0112033 0.0381561 0.0397033 0.00251101 0.0306317 0.0389334 0.0182531 0.0318421 0.037749 
0.0128908 0.0398133 0.0423538 -0.0337816 -0.0246078 0.0517925 -0.00448467 -0.0288531 0.0497044 
0.0100157 -0.0271868 0.054098 -0.0295613 -0.0123213 0.0478358 0.00310022 -0.0162278 0.0511575 
0.0160565 -0.0195909 0.0516682 0.0285006 -0.0137361 0.0539586 -0.0145636 -0.00465899 0.0535647 
0.0320232 -0.00267097 0.0461829 -0.0384588 0.00890544 0.0482396 -0.0248061 0.000621625 0.0519951 
-0.00508131 0.00271305 0.0487301 0.00426248 0.00919646 0.0470034 0.00732385 0.00333104 0.0547369 
0.024736 0.00322592 0.0519301 0.0410699 0.00706669 0.0530849 0.0156752 0.0105797 0.0479765 
-0.0320126 0.0237253 0.0490153 -0.0195982 0.0212758 0.0494667 0.0082669 0.0217558 0.0530111 
0.0176582 0.0211621 0.0468433 -0.0259958 0.0327117 0.0459471 -0.0127532 0.0343846 0.0488806 
0.00602392 0.0357298 0.0488134 -0.0047472 0.0407348 0.047259 -0.00479834 -0.0370392 0.0651268 
0.030431 -0.026536 0.0594641 0.0121803 -0.00499284 0.0596085 -0.0272096 0.018843 0.0634653 
0.00986967 0.0131724 0.0657127 
VERTICES 70 140
1 0 
1 1 
1 2 
1 3 
1 4 
1 5 
1 6 
1 7 
1 8 
1 9 
1 10 
1 11 
1 12 
1 13 
1 14 
1 15 
1 16 
1 17 
1 18 
1 19 
1 20 
1 21 
1 22 
1 23 
1 24 
1 25 
1 26 
1 27 
1 28 
1 29 
1 30 
1 31 
1 32 
1 33 
1 34 
1 35 
1 36 
1 37 
1 38 
1 39 
1 40 
1 41 
1 42 
1 43 
1 44 
1 45 
1 46 
1 47 
1 48 
1 49 
1 50 
1 51 
1 52 
1 53 
1 54 
1 55 
1 56 
1 57 
1 58 
1 59 
1 60 
1 61 
1 62 
1 63 
1 64 
1 65 
1 66 
1 67 
1 68 
1 69 

POINT_DATA 70
FIELD FieldData 7
id 1 70 int
22 224 82 599 257 447 1562 821 281 
851 2101 2075 858 982 1605 1936 1038 318 
2126 153 522 1510 1231 148 1780 535 546 
1822 1478 1435 1685 657 1983 668 2092 1192 
364 1100 1350 1646 348 722 1857 1010 1064 
1258 1546 1606 739 1489 1176 1962 1515 1335 
962 355 936 2095 1068 801 183 286 1240 
1230 1286 1721 2083 1148 1450 810 
type 1 70 int
2 2 2 2 2 2 2 2 2 
2 2 2 2 2 2 2 2 2 
2 2 2 2 2 2 2 2 2 
2 2 2 2 2 2 2 2 2 
2 2 2 2 2 2 2 2 2 
2 2 2 2 2 2 2 2 2 
2 2 2 2 2 2 2 2 2 
2 2 2 2 2 2 2 
i 3 70 int
0 0 0 0 0 0 0 0 0 
0 0 0 0 0 0 0 0 0 
0 0 0 0 0 0 0 0 0 
0 0 0 0 0 0 0 0 0 
0 0 0 0 0 0 0 0 0 
0 0 0 0 0 0 0 0 0 
0 0 0 0 0 0 0 0 0 
0 0 0 0 0 0 0 0 0 
0 0 0 0 0 0 0 0 0 
0 0 0 0 0 0 0 0 0 
0 0 0 0 0 0 0 0 0 
0 0 0 0 0 0 0 0 0 
0 0 0 0 0 0 0 0 0 
0 0 0 0 0 0 0 0 0 
0 0 0 0 0 0 0 0 0 
0 0 0 0 0 0 0 0 0 
0 0 0 0 0 0 0 0 0 
0 0 0 0 0 0 0 0 0 
0 0 0 0 0 0 0 0 0 
0 0 0 0 0 0 0 0 0 
0 0 0 0 0 0 0 0 0 
0 0 0 0 0 0 0 0 0 
0 0 0 0 0 0 0 0 0 
0 0 0 
v 3 70 double
-0.0081980061355 0.016078202438 0.22397461401 0.0040220536326 -0.0014474537573 0.22533382243 -0.007276787445 0.035722003624 0.1819603808 
0.014145632094 -0.015087318588 0.19120137105 -0.016787232744 0.07703407685 0.29668435867 0.11700861237 0.051655522688 0.24028857714 
0.42549242278 -0.24971018819 -0.18720435056 -0.112386714 -0.39690498327 0.16770763076 0.044733332055 -0.11787562491 0.39038943842 
-0.33857723738 0.23962182332 0.29213200352 0.3927963779 0.089001442018 0.20922496282 0.16587563335 0.02978577726 -0.29494118371 
0.21347917696 -0.074547144579 0.30590613915 -0.025780477153 0.0822462853 0.53298115183 -0.20346758238 0.021161162526 0.23468500648 
-0.034840892836 0.1115236692 0.46516775752 0.10934094652 0.15868704937 0.44121996755 -0.035698535714 0.25408049389 0.31745495065 
0.14073867657 -0.049258568175 0.53167059378 0.017213645648 -0.17945218222 0.42361416018 -0.04543661947 0.22379409275 0.27430964746 
0.24647510063 -0.10861822971 0.58188189947 0.14817668543 0.0465107033 0.36491568481 -0.12112820784 0.20692573746 0.29214465695 
0.16563325167 0.036119547113 0.38458725199 0.17760601752 0.023603343995 0.33176403571 -0.11544609304 0.072867800461 0.53304160172 
-0.1956018847 0.085095614171 0.33470625399 -0.025698608136 -0.17660574459 0.30553841355 -1.0617150593e-05 0.25214123897 0.27718582453 
0.035972924245 0.0047743715963 0.45537759874 0.13914889746 0.024540156732 0.074868501993 0.14969521373 -0.22186089852 0.46747850623 
-0.029295642112 -0.16702326003 0.37712727577 0.13372804956 -0.10327488381 0.24263916402 -0.0011537181975 -0.17942190051 0.37094055015 
-0.093141208508 -0.070115987751 0.36902193588 0.23938265267 -0.049149851019 0.59254799424 0.10808659725 -0.037542439476 0.4739093168 
-0.071274103595 -0.10828513836 0.41425405838 0.24606804745 -0.24319036503 0.32726232654 0.070630173282 0.084919868762 -0.38379490091 
0.33653067989 -0.21975549532 -0.0052231957729 -0.13645315898 0.28320378018 0.44395252014 -0.20934120085 -0.034550291761 -0.29155875873 
-0.14999503661 0.022605522767 -0.10835615092 -0.050952140792 0.098039143887 -0.43635489236 -0.068232067926 0.041766644881 -0.34891397576 
-0.23941333412 -0.12125180528 -0.031919768684 -0.024017632899 0.37548642453 0.44122027573 0.14057484258 -0.44003716185 0.23487889217 
0.28188783868 -0.11194199144 0.43693370572 -0.094009192921 -0.010620583863 0.25716842947 0.16308156947 -0.27441088359 0.27121638367 
-0.16377445497 0.006528236757 -0.35758288532 -0.0041941451799 0.038456542644 -0.40764573659 0.046459717138 -0.12042671895 0.20047966952 
-0.39873079057 -0.023931282108 0.40419847428 -0.33051866738 -0.029124713842 0.069157441937 -0.11404283587 -0.020666956841 0.20338846126 
-0.10423462965 0.0010173974278 -0.23023729346 -0.029106929189 0.097388405909 -0.034138118376 0.079424951182 -0.15955049408 0.25073830645 
0.088211039108 0.15091165116 0.39254628522 -0.33840739476 -0.066799878568 0.28933638264 -0.080474933468 0.0025585650011 -0.31088510753 
-0.04222514489 -0.066637168738 -0.34081721503 -0.10646888601 -0.1139177656 -0.31289794325 0.1235076155 -0.014790688385 -0.34189683491 
0.07709438078 -0.025819524304 -0.2850883225 
f 3 70 double
0.043323949512 -0.034377663509 -0.024094342425 0 0 -0.0012841259972 0 0 -0.0012841259972 
0 0 -0.0012841259972 0 0 -0.0012841259972 0 0 -0.0012841259972 
0 0 -0.0012841259972 0 0 -0.0012841259972 0 0 -0.0012841259972 
0 0 -0.0012841259972 0 0 -0.0012841259972 -0.35386432423 -0.50878022207 1.1032473199 
0 0 -0.0012841259972 0 0 -0.0012841259972 0 0 -0.0012841259972 
0 0 -0.0012841259972 0 0 -0.0012841259972 0 0 -0.0012841259972 
0 0 -0.0012841259972 0 0 -0.0012841259972 0 0 -0.0012841259972 
0 0 -0.0012841259972 0 0 -0.0012841259972 0 0 -0.0012841259972 
0 0 -0.0012841259972 0 0 -0.0012841259972 0 0 -0.0012841259972 
0 0 -0.0012841259972 0 0 -0.0012841259972 0 0 -0.0012841259972 
0 0 -0.0012841259972 0 0 -0.0012841259972 0 0 -0.0012841259972 
0 0 -0.0012841259972 0 0 -0.0012841259972 0 0 -0.0012841259972 
0 0 -0.0012841259972 0 0 -0.0012841259972 0 0 -0.0012841259972 
0 0 -0.0012841259972 0 0 -0.0012841259972 0 0 -0.0012841259972 
0 0 -0.0012841259972 0 0 -0.0012841259972 0 0 -0.0012841259972 
0 0 -0.0012841259972 0 0 -0.0012841259972 0 0 -0.0012841259972 
0 0 -0.0012841259972 0 0 -0.0012841259972 0 0 -0.0012841259972 
0 0 -0.0012841259972 -0.26959610568 -0.060917716821 0.94816165229 0 0 -0.0012841259972 
0 0 -0.0012841259972 0 0 -0.0012841259972 0 0 -0.0012841259972 
0 0 -0.0012841259972 0 0 -0.0012841259972 0 0 -0.0012841259972 
0 0 -0.0012841259972 0 0 -0.0012841259972 0 0 -0.0012841259972 
0 0 -0.0012841259972 0 0 -0.0012841259972 0 0 -0.0012841259972 
0 0 -0.0012841259972 0 0 -0.0012841259972 0 0 -0.0012841259972 
0 0 -0.0012841259972 
radius 1 70 double
0.005 0.005 0.005 0.005 0.005 0.005 0.005 0.005 0.005 
0.005 0.005 0.005 0.005 0.005 0.005 0.005 0.005 0.005 
0.005 0.005 0.005 0.005 0.005 0.005 0.005 0.005 0.005 
0.005 0.005 0.005 0.005 0.005 0.005 0.005 0.005 0.005 
0.005 0.005 0.005 0.005 0.005 0.005 0.005 0.005 0.005 
0.005 0.005 0.005 0.005 0.005 0.005 0.005 0.005 0.005 
0.005 0.005 0.005 0.005 0.005 0.005 0.005 0.005 0.005 
0.005 0.005 0.005 0.005 0.005 0.005 0.005 
omega 3 70 double
-7.1342624033 1.94815179 4.2325697085 1.0176346282 3.0842581102 -3.5674349955 -0.13791876583 -0.97584773056 -6.5552620558 
16.868889237 -21.018814855 13.950613995 -6.2387480614 -1.6290105186 2.7731815839 18.343384007 -3.2706640456 17.031988916 
9.1267890969 -44.651468296 -5.7908295732 -6.9798595719 -17.502612751 -3.5553046276 16.478064574 3.8498077202 26.369512204 
37.101900257 -32.720329206 -17.456480775 37.956873342 -67.608450571 35.94486058 17.533435063 26.914733798 4.3033909487 
44.546043492 45.78269914 -23.686735197 -21.063600613 -6.0144468437 -15.170885543 -11.93680503 -4.2925683798 -9.921475711 
3.0883095464 1.0152648219 18.480744752 18.444144656 24.215827811 -18.541653606 -6.5565178632 -10.2606227 12.508473735 
56.672121965 24.754146027 18.231604758 -26.133966328 10.58362666 -9.4147068746 -0.84117879725 -2.6694378958 -3.3147270404 
-11.619910733 -20.476464324 -18.096585283 22.905497143 -17.013479981 24.466295417 22.044219934 28.679056393 -32.731489634 
19.710670327 -48.257065053 2.7491292157 4.0475807432 1.1219014503 -26.673920233 -11.039348277 25.973355867 -4.9654611994 
4.4803554959 -11.57784783 16.51809667 20.847517191 -26.291780183 8.2964059607 6.1455749342 45.15787666 -45.271869073 
11.504271648 46.525247778 -17.186189774 -3.6532266414 -18.51698709 64.625427361 34.10069688 5.8115740807 -53.993502175 
33.639240698 12.535307151 -5.0000949152 27.930226473 27.400175715 -14.284102621 11.736850316 -7.4768506821 -37.223267645 
-3.1415767754 18.127385923 -10.35836107 22.535486371 -30.959205882 -35.174669888 21.714292836 6.1221778026 -7.953400371 
-15.754094132 29.239546102 14.166562196 14.29893479 -2.1265534606 -17.287563032 -17.682109706 15.917787279 -16.274474013 
22.567562933 36.949886989 1.2216817367 -1.5558568157 29.724573926 -17.246391991 3.336115466 -6.7876699352 6.8683523188 
-6.3087317421 -9.4371936271 -14.246954572 17.816471441 24.779920235 -13.14015791 18.183684091 -22.43384293 13.327305313 
19.446581347 -68.405800498 -23.356546701 -19.974260515 -1.6317700862 6.0134620602 7.3831825565 10.214102919 6.041483165 
-32.945524011 23.792605066 -27.057488615 24.353858251 -4.6297111788 -12.338993853 26.309146719 -5.5032315094 -2.9095908197 
6.2638264263 2.7773916702 9.6519052788 -11.164013424 15.406974509 14.813718477 5.6925591745 10.841877807 9.7638859195 
-83.531184609 -21.282198998 -6.1590528469 -21.983915411 -26.649258141 -47.198544088 51.025296742 12.031725037 25.441977857 
9.3456284203 -58.765023462 21.313025913 -33.490521119 41.981441503 -20.487143235 16.303344482 23.032626393 24.055836927 
-25.971356953 32.367898916 33.646411728 35.732858398 -45.379111873 44.7163517 -12.069471049 -35.243721185 21.414001205 
-30.096337659 4.7233432085 -2.852934089 -23.385258668 -6.860447478 7.1018130613 38.538385551 -23.800628407 -15.095810216 
-24.230576834 -71.274234477 -10.264745864 
