# vtk DataFile Version 4.2
Generated by LIGGGHTS
ASCII
DATASET POLYDATA
POINTS 70 float
0.0164134 -0.0386511 0.0255214 -0.0117728 -0.0228685 0.0329912 -0.00941999 -0.0103997 0.0314021 
0.000491102 -0.0117751 0.0322157 0.0273433 -0.0109221 0.0290903 0.034884 -0.0158502 0.0337071 
0.0228877 -0.0029348 0.0332102 -0.0343164 0.005252 0.0299891 0.0419444 0.00166526 0.0326432 
-0.0348042 0.0150031 0.0277786 -0.00484046 0.0142467 0.0345804 0.000205001 0.0347185 0.0315109 
0.00863197 0.0410891 0.0292322 -0.0246665 -0.0202976 0.0436888 -0.0300859 -0.00176158 0.0382069 
-0.00670264 -0.00167142 0.0448694 -0.031353 0.00813717 0.0391729 -0.0183883 0.00489111 0.0377837 
-0.00894491 0.00219479 0.0358827 0.0154535 0.0176455 0.0450909 -0.00349291 0.027615 0.04376 
0.018477 0.0266189 0.0408096 -0.00747097 -0.041305 0.0494146 0.00539866 -0.04159 0.0485266 
-0.0318423 -0.0143779 0.0481929 -0.0125235 -0.018942 0.0496785 0.0288272 -0.00311512 0.0480371 
0.00879652 0.0337112 0.0529786 0.0286779 0.030592 0.0504872 -0.00697934 -0.0377493 0.0768672 
-0.0263188 -0.0263144 0.0737466 -0.0162805 -0.0219251 0.0729248 -0.00502402 -0.0258833 0.0709951 
0.00776864 -0.0229712 0.0744583 0.0189885 -0.0234186 0.0722195 0.0328533 -0.0236976 0.0745634 
-0.0270616 -0.0143938 0.0739656 -0.0142954 -0.0102191 0.0761331 0.029346 -0.0112131 0.0679269 
-0.0415339 -0.00169227 0.0707647 -0.0211368 -0.000731045 0.0758722 0.00405392 -0.00158819 0.0722355 
0.0139641 -0.00264698 0.0749252 -0.0255703 0.0079348 0.0720566 -0.01143 0.00500278 0.0744698 
0.00517528 0.00989965 0.0686178 0.0246742 0.00637537 0.069935 0.014807 0.0142517 0.0749769 
-0.0263264 0.0251809 0.0727124 -0.0052192 0.0292493 0.0733402 0.0178658 0.0230839 0.0669574 
0.0120672 0.0289276 0.0740891 0.0337661 0.0219452 0.0756658 0.00279493 0.0405107 0.0739364 
0.0167287 -0.0331715 0.0776046 -0.00271403 -0.0228256 0.0823932 0.0076251 -0.0110883 0.0780914 
0.0182795 -0.0185368 0.0870289 0.0317789 -0.00946954 0.0775129 0.00184675 0.00489494 0.0842818 
0.0169016 0.00730012 0.0822067 0.0379559 0.00234141 0.0771367 -0.00209799 0.013612 0.0807932 
0.0381625 0.0155596 0.0859357 -0.0118676 0.0227989 0.0786962 0.00322781 0.0232612 0.0775658 
0.0135786 0.0216462 0.0816509 0.0229414 0.0298338 0.0780162 0.00565789 -0.0274372 0.0885734 
0.0292564 -0.0183413 0.088321 
VERTICES 70 140
1 0 
1 1 
1 2 
1 3 
1 4 
1 5 
1 6 
1 7 
1 8 
1 9 
1 10 
1 11 
1 12 
1 13 
1 14 
1 15 
1 16 
1 17 
1 18 
1 19 
1 20 
1 21 
1 22 
1 23 
1 24 
1 25 
1 26 
1 27 
1 28 
1 29 
1 30 
1 31 
1 32 
1 33 
1 34 
1 35 
1 36 
1 37 
1 38 
1 39 
1 40 
1 41 
1 42 
1 43 
1 44 
1 45 
1 46 
1 47 
1 48 
1 49 
1 50 
1 51 
1 52 
1 53 
1 54 
1 55 
1 56 
1 57 
1 58 
1 59 
1 60 
1 61 
1 62 
1 63 
1 64 
1 65 
1 66 
1 67 
1 68 
1 69 

POINT_DATA 70
FIELD FieldData 7
id 1 70 int
44 732 385 912 837 398 663 467 720 
208 936 1157 595 1606 1986 2166 895 1438 
1371 1929 1751 1782 2710 2509 2873 2267 2790 
3209 2149 4362 3909 3057 2566 4989 2117 3228 
5050 2454 5402 3265 4006 5103 5377 3841 3475 
2640 5353 3510 1464 3770 2996 4181 3364 3724 
5397 2252 4610 4179 3857 5509 4708 4052 2782 
3206 4482 4796 4280 3932 3102 5420 
type 1 70 int
2 2 2 2 2 2 2 2 2 
2 2 2 2 2 2 2 2 2 
2 2 2 2 2 2 2 2 2 
2 2 2 2 2 2 2 2 2 
2 2 2 2 2 2 2 2 2 
2 2 2 2 2 2 2 2 2 
2 2 2 2 2 2 2 2 2 
2 2 2 2 2 2 2 
i 3 70 int
0 0 0 0 0 0 0 0 0 
0 0 0 0 0 0 0 0 0 
0 0 0 0 0 0 0 0 0 
0 0 0 0 0 0 0 0 0 
0 0 0 0 0 0 0 0 0 
0 0 0 0 0 0 0 0 0 
0 0 0 0 0 0 0 0 0 
0 0 0 0 0 0 0 0 0 
0 0 0 0 0 0 0 0 0 
0 0 0 0 0 0 0 0 0 
0 0 0 0 0 0 0 0 0 
0 0 0 0 0 0 0 0 0 
0 0 0 0 0 0 0 0 0 
0 0 0 0 0 0 0 0 0 
0 0 0 0 0 0 0 0 0 
0 0 0 0 0 0 0 0 0 
0 0 0 0 0 0 0 0 0 
0 0 0 0 0 0 0 0 0 
0 0 0 0 0 0 0 0 0 
0 0 0 0 0 0 0 0 0 
0 0 0 0 0 0 0 0 0 
0 0 0 0 0 0 0 0 0 
0 0 0 0 0 0 0 0 0 
0 0 0 
v 3 70 double
0.0033024252817 0.0024110721142 -0.0091191746809 0.0035855657097 -0.0010459806938 -0.0052749922724 0.00073970578926 0.0026450629685 0.0022636353968 
0.0085622335415 0.001486884069 0.0030040596661 0.0027703929677 0.0047557115352 0.0015534891686 -0.00084232073931 -0.00028945216457 -0.0026586487332 
-0.0037285446454 0.0014002871393 0.0018142691582 -0.0017131829347 0.0047080613755 0.00054182582671 0.002803069495 0.011273208149 5.0539696869e-05 
0.0035862156676 -0.0017739015937 0.0033957772862 0.0034864013619 0.0012959261776 0.0013122992508 0.00046847089914 0.0018940157489 0.0052777539414 
0.0017890218261 0.0016707741028 0.0064590669175 -0.00083676115428 -0.0050314059616 -0.00019738222194 0.011919074929 -0.0022578708267 0.009874971057 
-0.0055050101426 -0.00077677879121 -0.0046073989396 0.0068591479123 0.0017913477373 0.012242224155 0.0069778398326 -0.0077366769679 0.0070347312455 
-0.0020860045361 0.0057202577503 0.0053376128721 0.00023632403727 -0.0030556465591 0.0089612134144 0.040012488758 0.023977462377 0.00052689759679 
-0.0067924857144 -0.008727446542 0.007315856365 0.019948591696 -0.017273937553 -0.0047858647157 -0.028770832009 -0.010545159027 -0.012769573004 
0.020492411491 0.0043791143947 -0.0053755743765 0.056209308169 0.017059399232 0.00045493638411 -0.0020992271836 -0.011472238105 0.032823069308 
-0.0073468856563 -0.022945532467 0.0048839783386 0.018912304712 -0.0030878682967 0.033797320575 -0.070516227342 0.21353891557 0.36226728086 
0.082587461502 -0.015761137639 0.038224321295 0.14154204794 -0.096996415169 0.16290950746 -0.053759049315 -0.14332515898 0.063502597562 
0.041994779354 0.2000518325 0.35560572672 0.051608403543 0.00016483741226 0.25420130029 -0.24537341495 0.10284611249 0.14175411879 
-0.10895875931 0.046911784498 0.26779549802 -0.0087492460562 0.015180793823 0.21576332745 0.015049051274 0.07619831934 0.094929986365 
-0.10803155328 -0.013230456645 0.068912275863 0.2074389726 0.068813496667 0.41347626293 -0.096204274332 0.092183057881 0.21781728349 
0.038460528624 0.18352286368 0.22498888051 -0.12066869368 -0.075665141935 0.22222576927 -0.086339845109 0.057805540485 0.35913762525 
0.016521135922 0.096198109769 0.11998428633 0.10138898491 -0.007604228034 0.20182126337 -0.18634416815 -0.27909951015 -0.25763537341 
0.19750714954 -0.10934741887 0.27329663823 0.22777364665 0.0083060627774 0.21996384731 -0.1287349047 -0.017476905951 0.18683518446 
-0.22709701716 -0.069086606006 0.20969089005 0.063392360497 0.15667463214 0.24000920034 0.019940746743 -0.058093123258 0.22260791415 
-0.20231429501 0.022951742172 0.33052810888 -0.062152991543 0.047124416358 0.19160920901 0.035674798136 0.16787848761 0.2951167653 
0.17753987633 0.36476741619 0.40352671904 0.059936468558 0.13009528527 0.22068683798 -0.12613208412 0.36242031829 0.37756634453 
-0.098998169854 -0.016733664294 0.20758590199 0.22556764799 -0.18074562074 -0.11602405192 -0.014452684184 -0.40595487318 0.39960827688 
0.17353220075 -0.026680358972 0.082436332005 0.3331137622 0.14567217667 0.32785182235 0.024163800717 -0.094263694167 -0.064037352654 
-0.42625233411 0.30936387955 -0.053463385103 0.051036306979 0.016528684305 0.43840547394 0.056398350805 -0.27625561106 0.11968736502 
0.32102859101 -0.039477209876 0.4052416793 
f 3 70 double
0.00077807211827 -0.00032105270014 -0.00069550499437 0 0 -0.0012841259972 0 0 -0.0012841259972 
-0.000361181328 -0.0025805571003 0.00060912350466 1.5402428287e-05 -1.4819750815e-05 -0.0012802761269 0 0 -0.0012841259972 
-4.998211349e-06 -2.3122200784e-06 -0.0012950584708 4.1674363461e-05 3.525938179e-05 -0.0011089039007 0.0047960930728 0.0017755396611 -0.0018209639465 
0 0 -0.0012841259972 0 0 -0.0012841259972 0.0053316766342 0.0018293502674 -0.0027439124186 
0 0 -0.0012841259972 0 0 -0.0012841259972 -0.00062893560681 -3.8268865714e-05 -0.0014146018796 
0 0 -0.0012841259972 0.019812693899 -0.011906828 0.00048982267413 0 0 -0.0012841259972 
0 0 -0.0012841259972 0 0 -0.0012841259972 -0.061396974761 0.019342726271 0.044833581838 
0 0 -0.0012841259972 0 0 -0.0012841259972 -0.010703617627 0.0045764506384 -0.0057738200097 
0 0 -0.0012841259972 0 0 -0.0012841259972 0 0 -0.0012841259972 
0 0 -0.0012841259972 0 0 -0.0012841259972 0 0 -0.0012841259972 
0 0 -0.0012841259972 0 0 -0.0012841259972 0 0 -0.0012841259972 
0 0 -0.0012841259972 0 0 -0.0012841259972 0 0 -0.0012841259972 
0 0 -0.0012841259972 0 0 -0.0012841259972 0 0 -0.0012841259972 
0 0 -0.0012841259972 0 0 -0.0012841259972 0 0 -0.0012841259972 
0 0 -0.0012841259972 0 0 -0.0012841259972 0 0 -0.0012841259972 
0 0 -0.0012841259972 0 0 -0.0012841259972 0 0 -0.0012841259972 
0 0 -0.0012841259972 0 0 -0.0012841259972 0 0 -0.0012841259972 
0 0 -0.0012841259972 0 0 -0.0012841259972 0 0 -0.0012841259972 
0 0 -0.0012841259972 0 0 -0.0012841259972 0 0 -0.0012841259972 
0 0 -0.0012841259972 0 0 -0.0012841259972 0 0 -0.0012841259972 
0 0 -0.0012841259972 0 0 -0.0012841259972 0 0 -0.0012841259972 
0 0 -0.0012841259972 0 0 -0.0012841259972 0 0 -0.0012841259972 
0 0 -0.0012841259972 0 0 -0.0012841259972 0 0 -0.0012841259972 
0 0 -0.0012841259972 
radius 1 70 double
0.005 0.005 0.005 0.005 0.005 0.005 0.005 0.005 0.005 
0.005 0.005 0.005 0.005 0.005 0.005 0.005 0.005 0.005 
0.005 0.005 0.005 0.005 0.005 0.005 0.005 0.005 0.005 
0.005 0.005 0.005 0.005 0.005 0.005 0.005 0.005 0.005 
0.005 0.005 0.005 0.005 0.005 0.005 0.005 0.005 0.005 
0.005 0.005 0.005 0.005 0.005 0.005 0.005 0.005 0.005 
0.005 0.005 0.005 0.005 0.005 0.005 0.005 0.005 0.005 
0.005 0.005 0.005 0.005 0.005 0.005 0.005 
omega 3 70 double
0.29222191655 -0.36876406681 0.22409404328 -1.1130989178 -2.4441942477 0.49473041189 0.20239678349 -0.044962745649 -0.16350249047 
-0.53012841383 0.19714943727 -0.76486390359 -0.49038359294 0.24832490304 0.1552973283 -0.45292874264 0.28642428088 0.98111288777 
0.65102048147 -0.24887782635 0.10427080487 -0.54681395995 -0.33062773657 -0.41540132973 -0.069133120405 -0.3404366548 -0.080507479912 
0.016340060142 -0.9555888871 0.37523472962 0.42390771415 0.21626316892 -0.71031367182 0.42888375381 0.10685930495 -0.6747219815 
0.090421890635 -0.03531319674 0.034258379976 2.442383601 0.21122123211 -0.82125786096 0.6208547644 0.80858199472 -0.40892262608 
0.77349120662 0.84422737327 1.9933878496 -0.59438659768 -0.023133149643 -0.87240018109 0.99046527314 2.2745842009 -0.43942684412 
1.0070149166 -0.015979698294 -1.4317091464 -1.6575736485 2.3827670782 1.1253446922 0.41612489451 1.2016265573 -4.7357197529 
-0.86937601977 -1.7608610342 1.7723202826 -4.6662933279 -4.4515141556 2.1843746518 7.251310613 -4.251173301 -8.0573879274 
2.7566053487 1.2232191245 -3.331142309 2.7573260201 -1.5257408083 -2.3323547982 1.1004237229 -2.5018270709 -0.91254647112 
-4.0042716619 2.7972716995 -0.13438910965 -0.18664094053 3.5445427287 1.6281354922 -1.2653484451 -53.503600591 3.7337444579 
-13.892977307 -13.861107625 -38.119026926 13.252900116 46.488147473 -12.834801574 6.4360710047 -16.715347025 33.749295557 
23.303081436 17.313050467 9.9942995816 6.5609103831 -15.921509554 11.813052677 -15.27046204 21.212717404 6.0206363563 
20.067048322 -8.9855864656 -21.745996744 11.222852182 20.916851816 -33.672933581 -22.27235091 -15.83244959 15.884824711 
3.4959875221 -4.5638973234 -9.2285365332 3.3236698123 -43.725196196 -24.905299431 15.674405925 -30.930392093 -4.180739879 
61.239586752 30.028347535 29.408703466 11.818440741 20.296618759 -39.315045629 0.5871484265 -8.4155688565 3.2542767983 
15.446065945 -1.6206019161 -8.0672454941 0.75127480852 13.605609796 -9.8921398972 -3.9901877196 11.733197974 11.560981384 
38.430194066 29.795168661 10.742049943 34.126829556 9.9520624665 49.244144436 6.2773967337 18.546044415 7.8536370853 
18.250035144 -8.6223048871 -31.460935274 -3.9566079096 31.385382715 -19.63781049 7.3037859372 7.8434117208 -25.950614987 
-13.128245416 57.306714267 -20.695993896 -13.140612938 14.278490227 4.6330915154 -34.120874563 -1.4066668289 12.84179326 
-1.2614732402 -65.123677062 -3.5135341979 16.03096336 23.570157128 15.803712699 -47.252057492 21.334310504 -21.010247176 
-10.704850101 -23.103530279 2.2401879626 -49.54339479 -24.659510363 25.102936995 -55.525934491 68.805824873 4.2369187992 
0.50674619987 -13.0237485 4.0292662193 48.932659845 13.74501316 -10.565309734 -40.325965877 -26.405978656 31.754424458 
-36.192819131 -23.530425949 13.305588381 -18.389546382 -21.77222406 59.06024208 -27.268218536 -27.717283834 -68.215458487 
14.096211767 -39.432536394 53.105041233 
