# vtk DataFile Version 4.2
Generated by LIGGGHTS
ASCII
DATASET POLYDATA
POINTS 70 float
0.00714537 -0.017571 0.019487 0.0032739 -0.0129992 0.0191385 0.0128603 -0.0131451 0.0186064 
-0.016666 -0.00111672 0.0170671 0.0165153 -0.000866598 0.0198469 -0.0116022 0.00558726 0.0157899 
0.00262447 0.00740239 0.0150116 -0.010871 0.0150611 0.0162108 -0.00413187 0.0113956 0.0150273 
0.00568846 0.0151225 0.0177843 0.0126194 0.0116627 0.0166033 -0.00248385 0.0217531 0.0198627 
0.000851371 0.0185593 0.0156705 0.00985738 -0.0195089 0.0282814 -0.0170468 -0.00922916 0.0212638 
-0.0132817 -0.00853092 0.0281163 -0.00791773 -0.0150942 0.0272952 0.0172329 -0.0101642 0.0234787 
-0.0110911 -0.00343702 0.0226303 0.0116402 -0.00567551 0.0232859 -0.010363 0.00246991 0.0233901 
-0.000304541 0.00178072 0.0274922 0.000298188 0.00417341 0.0217853 0.00868211 0.00609915 0.0251836 
0.00688064 0.0122687 0.0266038 0.00672866 0.0207053 0.0227357 0.00521842 -0.0212268 0.0321234 
-0.0122681 -0.0158539 0.0372574 -0.00322098 -0.0157838 0.0320246 0.00615489 -0.0121753 0.034076 
0.0135043 -0.0137825 0.0325305 -0.0174913 -0.00449689 0.0296538 -0.0047682 -0.00478235 0.0294953 
-0.0137955 0.00424957 0.0298804 0.00564864 0.0211631 0.0325596 -0.000821901 -0.0199759 0.0379957 
-0.00572136 -0.0186078 0.0414979 0.00184084 -0.0183317 0.0432567 -0.0195348 -0.00958625 0.0433048 
-0.0134891 -0.0165352 0.0433394 -0.00517079 -0.0126222 0.0432672 0.00315186 -0.0119677 0.043264 
0.00961442 -0.0137129 0.0427355 -0.0178789 -0.0039793 0.0390438 -0.0137161 -0.00503086 0.0432653 
-0.00143382 -0.00174406 0.0407433 -0.00663448 -0.00486672 0.041718 0.00228421 -0.00590981 0.0431875 
0.0100461 -0.00366988 0.0408769 0.0175573 -0.00424972 0.0420119 -0.016725 0.000175505 0.043297 
-0.0181421 0.00318138 0.0382727 -0.00877894 0.000974592 0.0432645 -0.00804666 0.00420574 0.0382432 
-0.00480873 0.00765142 0.0430593 0.000650051 0.00469647 0.0433071 0.00683093 0.0071623 0.0406795 
0.0089078 0.00194234 0.0433466 0.015385 0.00821308 0.0429484 0.0211538 0.00287363 0.0432327 
-0.0200627 0.00851155 0.0428132 -0.0168944 0.0137593 0.0431273 -0.0137327 0.00841961 0.0432015 
-0.0118261 0.0140703 0.0397907 -0.00611245 0.0148174 0.042366 0.00315351 0.0119296 0.0432911 
0.0114342 0.0126579 0.0411315 -0.00831791 0.0203098 0.0433411 0.00310819 0.0179894 0.0389057 
0.000623062 0.0218125 0.0429114 
VERTICES 70 140
1 0 
1 1 
1 2 
1 3 
1 4 
1 5 
1 6 
1 7 
1 8 
1 9 
1 10 
1 11 
1 12 
1 13 
1 14 
1 15 
1 16 
1 17 
1 18 
1 19 
1 20 
1 21 
1 22 
1 23 
1 24 
1 25 
1 26 
1 27 
1 28 
1 29 
1 30 
1 31 
1 32 
1 33 
1 34 
1 35 
1 36 
1 37 
1 38 
1 39 
1 40 
1 41 
1 42 
1 43 
1 44 
1 45 
1 46 
1 47 
1 48 
1 49 
1 50 
1 51 
1 52 
1 53 
1 54 
1 55 
1 56 
1 57 
1 58 
1 59 
1 60 
1 61 
1 62 
1 63 
1 64 
1 65 
1 66 
1 67 
1 68 
1 69 

POINT_DATA 70
FIELD FieldData 7
id 1 70 int
436 44 401 3257 290 801 209 2836 1958 
903 292 2857 602 1391 732 911 212 573 
709 388 2287 672 535 1777 2611 2180 1401 
952 1507 657 1490 2676 472 2199 2712 924 
1511 2945 2208 1396 2301 3323 1459 1971 851 
744 3036 1168 1177 2824 3103 3277 2749 2914 
3144 2489 2015 2454 2149 2602 2256 3260 2841 
2546 2133 3312 1811 2664 1632 3042 
type 1 70 int
2 2 2 2 2 2 2 2 2 
2 2 2 2 2 2 2 2 2 
2 2 2 2 2 2 2 2 2 
2 2 2 2 2 2 2 2 2 
2 2 2 2 2 2 2 2 2 
2 2 2 2 2 2 2 2 2 
2 2 2 2 2 2 2 2 2 
2 2 2 2 2 2 2 
i 3 70 int
0 0 0 0 0 0 0 0 0 
0 0 0 0 0 0 0 0 0 
0 0 0 0 0 0 0 0 0 
0 0 0 0 0 0 0 0 0 
0 0 0 0 0 0 0 0 0 
0 0 0 0 0 0 0 0 0 
0 0 0 0 0 0 0 0 0 
0 0 0 0 0 0 0 0 0 
0 0 0 0 0 0 0 0 0 
0 0 0 0 0 0 0 0 0 
0 0 0 0 0 0 0 0 0 
0 0 0 0 0 0 0 0 0 
0 0 0 0 0 0 0 0 0 
0 0 0 0 0 0 0 0 0 
0 0 0 0 0 0 0 0 0 
0 0 0 0 0 0 0 0 0 
0 0 0 0 0 0 0 0 0 
0 0 0 0 0 0 0 0 0 
0 0 0 0 0 0 0 0 0 
0 0 0 0 0 0 0 0 0 
0 0 0 0 0 0 0 0 0 
0 0 0 0 0 0 0 0 0 
0 0 0 0 0 0 0 0 0 
0 0 0 
v 3 70 double
-0.017098198318 -0.011342288858 -0.18963010424 -0.0085472072429 -0.0097859867287 -0.19394346387 -0.012819353585 -0.013430861886 -0.18369394593 
0.00056769787645 -0.012273671811 -0.20635319087 0.0032572647375 -0.016068928726 -0.18959685443 -0.00098321809872 -0.0010191256145 -0.21077307952 
-0.00070139190682 0.0016633822626 -0.19227833132 -0.007492141982 -0.0022323772358 -0.19021413066 -0.0019224107511 0.0034146890255 -0.19034656212 
-0.0025318991925 -0.0052930975778 -0.20406549683 0.0016527832553 -0.0069756587929 -0.19348405355 -0.025131337238 0.009558646256 -0.18897094275 
-0.019140188551 0.0015285784025 -0.18768132846 -0.030759000272 -0.015863387545 -0.1763646957 0.0049807468185 -0.0023142259802 -0.18692510146 
0.011159753316 0.015196705903 -0.19197745992 -0.020185441451 0.0086213442279 -0.23607703768 -0.015714594079 -0.019204767625 -0.1799659378 
0.0019880495762 -0.0096632781162 -0.19640608441 0.012993373432 0.0052424782199 -0.18746830232 0.009957939189 -0.0068437957977 -0.20785534931 
0.0094285217243 -0.0052004383883 -0.18760995841 0.010625581703 0.0074328537758 -0.18620872592 0.0098346594886 0.0084039304016 -0.19467750236 
0.0027036104126 0.0026813232597 -0.19329605667 -0.0084101736229 0.00042746347592 -0.19441635479 -0.0057762121035 -0.0023712027878 -0.18806212359 
-0.051290267584 -0.035656528535 -0.12253401008 0.016310582713 0.015872511719 -0.23106428691 0.03667029179 -0.035075709196 -0.14490279923 
-0.014111157666 0.010053766524 -0.20217701857 0.029432575551 0.023606562092 -0.20068393599 0.0105456112 0.0076740343447 -0.2003004225 
0.019075474836 0.02025854304 -0.21077278022 0.020175854293 0.028523733177 -0.20723826733 -0.11086199778 -0.068178433453 -0.25633217353 
0.01471319072 0.081443315999 -0.25415548299 0.089940667023 0.22515767725 -0.26575992856 0.1562074746 0.025648069874 -0.138339752 
-0.13929394689 -0.044274381632 -0.36414204498 0.13794631874 -0.012595350196 -0.31065047135 0.14057159015 0.11842969088 -0.34056708517 
-0.14526860272 0.014935195756 -0.36157035701 0.029484298379 0.056070255857 -0.33380341121 0.076428341184 -0.04780477751 -0.21095843452 
0.075626250753 0.099104913604 -0.33183314345 0.19126688032 0.021698223032 -0.19722364403 0.17774738313 0.032898546635 -0.41954584225 
0.037736400942 -0.04911574461 -0.077265141243 0.014129788858 -0.12654334941 -0.27937821416 0.083668097674 -0.040156278907 -0.27643948515 
-0.044771894903 0.070453382688 -0.27954371888 0.28890070777 0.022044665318 -0.32786131015 0.14837435815 0.099182668266 -0.30132166308 
0.17545283281 0.11395674557 -0.22233082883 0.15608193956 0.10624247865 -0.23279434415 0.02579393861 0.031658664215 -0.19350659807 
0.12308090246 0.086219194193 -0.24089764926 -0.18344018607 -0.066569861543 -0.35372142889 0.24319842312 0.22435861082 -0.1977831461 
0.10881327389 0.027366091644 -0.35450489333 0.085465248615 0.052766189026 -0.27084659425 0.17515403501 0.033558144332 -0.22022200124 
0.050250603015 0.08163006791 -0.15860551463 0.16043388383 -0.014417813349 -0.24547101146 0.053989751788 0.13697664598 -0.22825358004 
0.019650733808 0.11048222557 -0.33304005088 0.028663652448 0.067288205223 -0.17907501345 0.17133873641 -0.16919355057 -0.27433560363 
0.12544240561 -0.013009645098 -0.43266592446 
f 3 70 double
0.00068898576533 -1.8716381115e-05 0.00022382732296 0.0017750831341 0.00088125329632 -0.0015270535624 -0.00077852283293 -0.00053656086215 -0.00038995598181 
0.0014584515121 -0.0022168722954 -0.0043718296332 -0.00061557329785 9.8377330117e-05 0.00025729641341 -0.0011749003479 0.00076459457376 -0.0022467120804 
-0.00045552714449 -0.00015647846855 -2.2893808785e-05 0 0 -0.00027737121539 -0.00010907307905 3.0817356473e-05 -0.00025116132146 
0.0034884582558 0.003925305799 0.00033033938567 0.00072594342125 -0.00035380550248 -0.00017335077107 0 0 -0.00027737121539 
-3.9321525219e-05 0.00027534887227 -0.0001782131365 0 0 -0.00027737121539 -0.00016898058355 -0.0013342884809 -0.00073257518688 
0.00026249317536 -0.0019974840496 0.003127613751 0.0001566737356 -0.00075534858747 9.7526393539e-05 -3.8783316339e-05 4.7344019965e-05 -0.00029937225488 
0.00086319242472 0.00052998990005 -0.00028220099786 -0.00097858124579 -0.0024892174297 -0.00069475863956 -0.0015635079641 -0.00013757727262 -5.1292668082e-06 
0.0014631931607 0.00067158209063 -0.00039046027605 0 0 -0.00027737121539 0 0 -0.00027737121539 
0.00032252922154 0.00012325415275 0.00026846428421 0.00010358809717 0.00040549030149 -0.00062422240537 0.022932022928 0.017559473866 -0.015802667817 
0 0 -0.00027737121539 0.0036954725365 -0.0012801774258 0.0022548150382 0 0 -0.00027737121539 
0 0 -0.00027737121539 -0.00039211895202 0.00078157212129 -0.00012704308195 0.00082736686829 -0.00078015639622 0.00083160046729 
0.0045412770418 -0.022802378935 0.0086749576892 0 0 -0.00027737121539 0.0043214856132 0.0045804267288 0.00043645082449 
0 0 -0.00027737121539 0 0 -0.00027737121539 0 0 -0.00027737121539 
0 0 -0.00027737121539 0 0 -0.00027737121539 0.021478010428 -0.00042456785897 -0.020157269896 
0.014539935852 0.083707970696 0.013195427175 0 0 -0.00027737121539 0 0 -0.00027737121539 
0 0 -0.00027737121539 0.017306198137 0.0013447094181 0.020188900634 0 0 -0.00027737121539 
0.00053820650378 0.00017837360505 -0.00013451349242 0 0 -0.00027737121539 0 0 -0.00027737121539 
0 0 -0.00027737121539 0 0 -0.00027737121539 0 0 -0.00027737121539 
0 0 -0.00027737121539 0 0 -0.00027737121539 0 0 -0.00027737121539 
-0.0062662584835 0.0079049689766 -0.0031024764852 0 0 -0.00027737121539 0 0 -0.00027737121539 
0 0 -0.00027737121539 0 0 -0.00027737121539 0 0 -0.00027737121539 
0 0 -0.00027737121539 -0.0037350810615 -0.068506651354 -0.02599185178 0 0 -0.00027737121539 
0 0 -0.00027737121539 0.0037350810615 0.068506651354 0.02543710935 0 0 -0.00027737121539 
0 0 -0.00027737121539 
radius 1 70 double
0.003 0.003 0.003 0.003 0.003 0.003 0.003 0.003 0.003 
0.003 0.003 0.003 0.003 0.003 0.003 0.003 0.003 0.003 
0.003 0.003 0.003 0.003 0.003 0.003 0.003 0.003 0.003 
0.003 0.003 0.003 0.003 0.003 0.003 0.003 0.003 0.003 
0.003 0.003 0.003 0.003 0.003 0.003 0.003 0.003 0.003 
0.003 0.003 0.003 0.003 0.003 0.003 0.003 0.003 0.003 
0.003 0.003 0.003 0.003 0.003 0.003 0.003 0.003 0.003 
0.003 0.003 0.003 0.003 0.003 0.003 0.003 
omega 3 70 double
-1.734035399 0.013422143733 -2.9666342225 1.3667139699 0.282025313 0.25258471521 2.2762051059 -0.10363616086 -2.2185244454 
0.46725559163 2.7690036198 0.23503693442 -1.317504631 0.19359007203 -2.5001566962 2.821398171 0.36493841198 -2.2084376223 
0.19997601211 0.26470526115 0.96695860257 0.92347582972 0.39842454753 0.75558170736 0.12576457365 -0.68606788112 0.032244934684 
-3.954459178 -0.18691922259 -4.384102764 -1.628392045 -0.52246195116 -1.7516975727 -0.69181854672 -3.7913869118 0.77472031533 
1.8311701859 1.6930565904 1.5085969422 0.77873030961 2.1358109166 -3.1709012097 -2.1480191885 1.7863959655 -0.80756596113 
-7.9383140998 4.7991279487 -2.2190085443 7.9616054885 5.3910919065 -2.954982192 -0.71584382129 1.8430471053 -1.2160213317 
-0.4480807542 -0.76471726719 0.9421474146 -0.80272500757 5.9630570697 -5.6753722984 -1.3606758058 5.5000560168 -1.8649726071 
-2.428758402 1.9325804789 0.49257154739 2.3577997771 1.1715831454 2.3775064814 -4.6594811563 3.4285004109 -1.6952115885 
0.34635375902 5.5805083447 -2.0569364992 -2.1967008996 -2.1687955813 1.9531324864 -7.927035775 2.5579659843 -19.275058494 
1.4419962314 30.402491782 1.7945967556 -1.3936880617 15.757019393 5.2817648715 4.8871332137 2.6640168991 -6.8598791996 
-2.4346995358 5.1703940645 8.3007899571 -6.4672882856 2.9362829438 9.9188449741 -6.7227227811 -3.9807860065 -1.6259252511 
-4.7997636307 -6.8223030588 12.002040709 -1.1955434045 8.3633807126 7.9597140973 -18.93574159 20.126364028 -1.0843813666 
-36.25767409 1.4467305578 -29.914632062 -34.633698934 9.8509764066 11.917299336 39.244590134 13.546570159 -4.5275763114 
-27.340340144 -5.6549639748 -5.2678801686 -7.3377340363 -1.7542828401 7.4688877065 -21.647229038 11.923290801 51.420412467 
-51.606150189 9.9960768104 17.880831212 -0.74812855555 -2.929158607 -28.521802918 19.864281624 35.061088679 -31.176600431 
-12.993882972 18.989386515 27.804394704 -2.8314788162 -10.468114757 -1.2926709995 -9.2662163637 -0.20948531039 -3.9883484001 
-54.043975487 -41.966909732 -1.6165117333 -11.384074982 -27.678575919 -10.23229756 -6.1101221288 34.072748523 5.5769775728 
1.622860665 1.1040892376 -2.3279780965 7.325157948 38.234345644 -32.09564579 -32.839023672 30.382238498 4.3610334677 
-11.65079239 66.607812319 25.214622966 -27.985981291 -16.777153518 -60.080378907 12.441152102 10.550217341 -1.694119768 
-14.107451629 -1.3812389497 22.064408864 0.34647114428 -42.645377139 -45.30677669 -37.436997284 -24.32156853 -86.682482756 
5.4975236357 5.4978895161 -13.727507189 -33.991462365 34.483854371 -12.338390356 -7.5756257051 -4.1556515946 23.88408626 
2.499752545 13.483687606 2.2736012103 -15.114389909 57.123930588 24.213383142 -10.98335659 23.972167004 17.343206637 
-4.8016890774 -28.293683103 54.553762886 9.3746418388 17.324851809 4.4288110405 36.637011208 30.284348802 3.5123393219 
14.92880736 35.35108534 17.938055633 
