# vtk DataFile Version 4.2
Generated by LIGGGHTS
ASCII
DATASET POLYDATA
POINTS 70 float
0.0164071 -0.03114 0.020941 -0.0224738 -0.0209031 0.0230014 -0.00062649 -0.0277373 0.01582 
0.0218426 -0.022472 0.0196619 -0.0257305 -0.0105401 0.0194824 0.00316691 -0.0123657 0.0206598 
0.00489777 0.00272707 0.0182155 0.0148221 0.00317807 0.019993 0.00617726 0.015685 0.0196595 
0.00110936 0.0275862 0.0152162 -0.0109199 0.0366489 0.0160505 -0.0108159 -0.0347273 0.0324444 
-0.00184191 -0.0287759 0.0314053 0.0113374 -0.0290137 0.0306095 -0.0147961 -0.0115674 0.0262044 
-0.00239998 -0.0188283 0.0261674 0.0306144 -0.0147926 0.0277522 0.0400926 -0.0117024 0.0290374 
-0.0378929 -0.0039146 0.0254226 -0.00977374 -0.00399381 0.0318361 -0.000612826 -0.00304796 0.0258345 
0.0119 -0.00855472 0.0252108 0.0242014 -0.00308464 0.0296512 0.0419251 -0.00157406 0.0292339 
-0.0363053 0.0089811 0.0244397 -0.0304652 0.00575188 0.0332007 -0.0208918 0.0082523 0.025278 
-0.0111759 0.00575712 0.0294229 0.00067438 0.00680142 0.0270244 -0.0157102 0.0146006 0.0311054 
0.00502878 0.0193122 0.0303772 -0.0257647 0.0223324 0.0310926 -0.0179983 0.0229812 0.0244318 
0.0244749 0.0243767 0.0297796 0.0344982 0.0224503 0.0316656 0.0193229 0.0322688 0.025087 
0.00708981 0.0413354 0.027627 -0.0015626 -0.0369922 0.0435404 -0.0156785 -0.0254417 0.0391583 
0.0201539 -0.0187373 0.0388998 -0.0236797 0.0037335 0.0416354 0.00770995 0.00347009 0.0398523 
-0.000517925 -0.0293427 0.0534926 0.0183878 -0.0219083 0.0512383 0.00278186 -0.0110164 0.0472808 
-0.0332576 -0.00283556 0.0539739 -0.00861357 -0.00158359 0.0509025 -0.0280343 0.00665279 0.050668 
-0.00726313 0.00880565 0.0529017 0.0173874 0.00223713 0.0481955 -0.0170903 0.0128004 0.0485592 
0.00871133 0.018593 0.0471896 0.0274152 0.0148694 0.0453238 0.0377328 0.0115272 0.0511818 
0.0176178 0.0372303 0.054885 -0.0161236 -0.0363587 0.0581344 -0.0285458 -0.025008 0.0572615 
-0.0143782 -0.0228947 0.0557855 -0.00681479 -0.0128863 0.058854 0.00525683 -0.00418184 0.0648292 
0.00746182 0.00639294 0.0591688 0.0328005 0.00839654 0.0612486 -0.0325452 0.0179043 0.0572697 
-0.0237148 0.0110185 0.0623367 0.0110689 0.015501 0.0632745 -0.0272012 0.0291907 0.0561289 
-0.0176761 0.0252778 0.0579458 -0.00815205 0.0372391 0.0560551 0.00554967 0.0366862 0.0598579 
-0.00127985 0.0201101 0.0700897 
VERTICES 70 140
1 0 
1 1 
1 2 
1 3 
1 4 
1 5 
1 6 
1 7 
1 8 
1 9 
1 10 
1 11 
1 12 
1 13 
1 14 
1 15 
1 16 
1 17 
1 18 
1 19 
1 20 
1 21 
1 22 
1 23 
1 24 
1 25 
1 26 
1 27 
1 28 
1 29 
1 30 
1 31 
1 32 
1 33 
1 34 
1 35 
1 36 
1 37 
1 38 
1 39 
1 40 
1 41 
1 42 
1 43 
1 44 
1 45 
1 46 
1 47 
1 48 
1 49 
1 50 
1 51 
1 52 
1 53 
1 54 
1 55 
1 56 
1 57 
1 58 
1 59 
1 60 
1 61 
1 62 
1 63 
1 64 
1 65 
1 66 
1 67 
1 68 
1 69 

POINT_DATA 70
FIELD FieldData 7
id 1 70 int
318 1010 22 281 599 355 257 148 447 
224 82 286 936 546 1100 1038 982 962 
348 1350 739 810 1721 1068 153 1489 522 
821 364 657 801 1258 183 1240 722 668 
535 858 1478 1192 1562 1148 1546 1064 1646 
1857 2095 2126 2092 1231 2075 1230 1435 1515 
1606 2083 1176 1605 1685 851 2101 1780 1822 
1335 1936 1450 1510 1983 1286 1962 
type 1 70 int
2 2 2 2 2 2 2 2 2 
2 2 2 2 2 2 2 2 2 
2 2 2 2 2 2 2 2 2 
2 2 2 2 2 2 2 2 2 
2 2 2 2 2 2 2 2 2 
2 2 2 2 2 2 2 2 2 
2 2 2 2 2 2 2 2 2 
2 2 2 2 2 2 2 
i 3 70 int
0 0 0 0 0 0 0 0 0 
0 0 0 0 0 0 0 0 0 
0 0 0 0 0 0 0 0 0 
0 0 0 0 0 0 0 0 0 
0 0 0 0 0 0 0 0 0 
0 0 0 0 0 0 0 0 0 
0 0 0 0 0 0 0 0 0 
0 0 0 0 0 0 0 0 0 
0 0 0 0 0 0 0 0 0 
0 0 0 0 0 0 0 0 0 
0 0 0 0 0 0 0 0 0 
0 0 0 0 0 0 0 0 0 
0 0 0 0 0 0 0 0 0 
0 0 0 0 0 0 0 0 0 
0 0 0 0 0 0 0 0 0 
0 0 0 0 0 0 0 0 0 
0 0 0 0 0 0 0 0 0 
0 0 0 0 0 0 0 0 0 
0 0 0 0 0 0 0 0 0 
0 0 0 0 0 0 0 0 0 
0 0 0 0 0 0 0 0 0 
0 0 0 0 0 0 0 0 0 
0 0 0 0 0 0 0 0 0 
0 0 0 
v 3 70 double
-0.024342920883 0.010119551167 -0.23155009852 -0.0041336916147 -0.0045308357446 -0.21521038031 -0.008648290657 0.0085453793175 -0.22291460563 
-0.017971879155 0.010587840332 -0.22273499391 0.010386735748 -0.00029291652321 -0.22306440262 0.011744893977 0.014799303462 -0.22187067393 
0.0099238553462 0.010397674899 -0.21800384181 0.0057386006117 0.014147919613 -0.22323067355 -0.0069276297746 0.0022290778355 -0.20297539183 
0.0032497530988 0.0030468232981 -0.22499549217 0.0010721131687 -0.0085838264365 -0.22695573151 -0.01412973093 -0.0047916508351 -0.12417271797 
-0.012184560624 0.0086455044127 -0.15390121635 0.04153120227 -0.0058675415096 -0.21530828109 0.0041425874782 -0.0044992137372 -0.18601675219 
-0.0027657739149 0.014135862506 -0.20283270097 -0.010158451026 0.016665216084 -0.18584129514 -0.016806569186 0.011287662102 -0.18719781105 
-0.016551996581 -0.0013724995077 -0.24004277002 0.015876808861 -0.0022985906378 -0.14820458628 0.016844057654 0.019196008368 -0.2012506893 
-0.011714861198 0.0046880524221 -0.19727078409 -0.0028456917863 0.0068221328887 -0.15697167841 -0.0020858163138 0.02124684786 -0.20537316163 
-0.030571516313 0.008654859605 -0.23142091254 -0.0044710845715 0.018377411064 -0.20883066018 -0.00720737197 -0.0041299458842 -0.17024614589 
0.0023571659051 0.023463150047 -0.166810408 0.009612175288 0.019267275377 -0.18514697627 -0.0092439804925 -0.041287857402 -0.18278748254 
0.029423306475 -0.0099812417143 -0.16823606142 0.028454192053 0.0027832134361 -0.12608408944 -0.0077746060597 0.0070751636184 -0.22191996858 
-0.0051214218925 0.0060133383163 -0.15719294079 0.0051181950007 -0.0021851306741 -0.16724077448 -0.025587387456 -0.0042400729643 -0.20665138814 
0.0086528626529 -0.030493711873 -0.21599206955 0.0043059747254 0.16997381178 -0.0040562043816 0.058202474267 -0.19013816807 -0.24596805325 
0.0052720110766 -0.060897213723 -0.052223898926 0.0043164553224 0.096816719993 -0.076555248124 0.11177987417 0.033570496781 -0.11249476518 
0.16923042702 0.027091538809 0.15502915812 -0.07512623736 0.004301417094 0.024208699027 -0.012049954157 0.1277651925 -0.17374794509 
-0.016808801081 -0.025819446314 0.10118081383 -0.0096620514302 -0.30200713615 -0.051857574351 0.065962473451 -0.033685521043 -0.096594699079 
-0.00088545370339 0.069831941073 -0.089019890092 0.14379923059 -0.17920752163 -0.0064118741535 -0.0066849165128 -0.054230042425 -0.019373855129 
0.12549499401 0.081492643148 0.023348031772 -0.056851803615 0.014696842632 0.019856494899 -0.029668858624 -0.05201729507 0.11080950903 
0.036184528833 0.067632282596 0.15028211625 0.085327461173 0.056716747818 0.19751331738 -0.23234169217 -0.19869518972 0.058325053656 
-0.0082637855638 0.017131822214 0.060744429149 0.019271318126 0.078338125604 0.10705267074 0.033659327669 0.20048930044 0.051155294239 
0.061253174111 -0.10147886071 0.12453052699 -0.02833843441 -0.052596192574 0.037725129336 0.080578266893 0.11081184535 0.011408767201 
-0.15207777275 -0.14110113456 -0.0050101083683 0.023679685931 -0.016394797725 0.17435139337 0.11873114461 -0.20090282544 0.18294113655 
-0.094903472426 -0.067885842433 0.15082325982 0.069077316509 0.00093355755907 0.017435556123 0.10227401916 0.10476349126 0.16541079889 
0.064681077678 -0.16647759963 0.39604061294 
f 3 70 double
0 0 -0.0012841259972 0 0 -0.0012841259972 0 0 -0.0012841259972 
0 0 -0.0012841259972 0 0 -0.0012841259972 0 0 -0.0012841259972 
0 0 -0.0012841259972 0 0 -0.0012841259972 0 0 -0.0012841259972 
0 0 -0.0012841259972 0 0 -0.0012841259972 0 0 -0.0012841259972 
0 0 -0.0012841259972 0 0 -0.0012841259972 0 0 -0.0012841259972 
0 0 -0.0012841259972 0 0 -0.0012841259972 0 0 -0.0012841259972 
0 0 -0.0012841259972 0 0 -0.0012841259972 0 0 -0.0012841259972 
0 0 -0.0012841259972 0 0 -0.0012841259972 0 0 -0.0012841259972 
0 0 -0.0012841259972 0 0 -0.0012841259972 0 0 -0.0012841259972 
0 0 -0.0012841259972 0 0 -0.0012841259972 0 0 -0.0012841259972 
0 0 -0.0012841259972 0 0 -0.0012841259972 0 0 -0.0012841259972 
0 0 -0.0012841259972 0 0 -0.0012841259972 0 0 -0.0012841259972 
0 0 -0.0012841259972 0 0 -0.0012841259972 0.11104226881 -0.14588193743 -0.050477196274 
0 0 -0.0012841259972 0 0 -0.0012841259972 0 0 -0.0012841259972 
0 0 -0.0012841259972 0 0 -0.0012841259972 0 0 -0.0012841259972 
0 0 -0.0012841259972 0 0 -0.0012841259972 0 0 -0.0012841259972 
0 0 -0.0012841259972 0 0 -0.0012841259972 0 0 -0.0012841259972 
0 0 -0.0012841259972 0 0 -0.0012841259972 0 0 -0.0012841259972 
0 0 -0.0012841259972 0 0 -0.0012841259972 0 0 -0.0012841259972 
0 0 -0.0012841259972 0 0 -0.0012841259972 0 0 -0.0012841259972 
0 0 -0.0012841259972 0 0 -0.0012841259972 0 0 -0.0012841259972 
0 0 -0.0012841259972 0 0 -0.0012841259972 0 0 -0.0012841259972 
0 0 -0.0012841259972 0 0 -0.0012841259972 0 0 -0.0012841259972 
0 0 -0.0012841259972 
radius 1 70 double
0.005 0.005 0.005 0.005 0.005 0.005 0.005 0.005 0.005 
0.005 0.005 0.005 0.005 0.005 0.005 0.005 0.005 0.005 
0.005 0.005 0.005 0.005 0.005 0.005 0.005 0.005 0.005 
0.005 0.005 0.005 0.005 0.005 0.005 0.005 0.005 0.005 
0.005 0.005 0.005 0.005 0.005 0.005 0.005 0.005 0.005 
0.005 0.005 0.005 0.005 0.005 0.005 0.005 0.005 0.005 
0.005 0.005 0.005 0.005 0.005 0.005 0.005 0.005 0.005 
0.005 0.005 0.005 0.005 0.005 0.005 0.005 
omega 3 70 double
1.2941805657 -0.72439588871 -0.86811562109 1.4568281867 2.4303110197 -3.1374706454 -1.2031398513 1.8882023454 1.2030743264 
-0.40460495827 -1.6496973718 -1.5376525457 1.9175295995 -1.0950871211 2.8399364283 2.4010745701 -0.19629852476 -1.0358420814 
-2.1432575145 2.1635939488 -2.4499105793 -0.97001620737 0.2113585797 -0.5629726823 -2.019051159 -1.3481725791 1.7836042103 
-1.2569951447 -1.6588956796 -0.79644310248 -1.6207199383 -2.6408560021 0.61109268152 -6.1812323367 4.8787504261 3.522742847 
7.8165986384 6.5764996208 0.25465653213 -2.3137878447 -5.356356118 -16.091170628 0.41486712134 -3.8098871492 0.42420204504 
-1.1733907423 -3.8155091059 -1.747386312 -1.4403045846 -1.927935319 -0.49765365226 1.3635002767 -5.2831803609 -3.8362791375 
1.422734743 -4.3718001916 0.48840461987 3.0032005755 1.4470204374 -3.4267157124 0.050132824999 -0.0056599646773 0.27407630493 
2.2313829627 0.34231263086 -2.9435133362 -2.9548985385 -2.8937228069 0.42791236153 0.98496256754 -10.282183448 0.65888557904 
0.72725115756 -7.9882822274 -1.8843664191 -2.9861411835 10.212438873 -5.6840217065 -1.5244738819 -0.1105076244 3.3274988949 
-2.1415754337 -2.2416632946 -3.9739048526 -1.0218716044 1.543183994 5.1710167772 12.472016436 -5.1922060607 -1.0542292766 
-0.1336117578 -0.43960811932 2.1743712243 4.1132050549 4.0031381521 -1.6226688291 5.8193628552 4.1900931763 -4.3173236794 
1.3249785289 1.0571727584 -0.50106826308 0.080150805468 -2.5350318937 -3.5281916793 -5.0514107263 1.6661427516 1.3924239541 
0.49291233038 1.4886529767 0.48709609949 0.16324865397 -1.0646958568 4.5830159244 -8.3508931573 -11.013839584 -7.9459216819 
-8.832582409 11.046878153 26.718476941 -17.219441912 0.5078091302 -3.5508551107 -1.1359495926 -0.42447881122 -11.673427474 
-21.784884777 -1.0457642258 -5.692739779 -6.6326677571 17.164185341 -9.0536031846 3.1616441202 6.3760162511 0.74466621706 
-8.8900632723 0.82133806999 1.1294825516 -6.0912775265 16.963425352 -2.5620195158 -1.9899245562 8.4849914229 7.5406792331 
-16.333719749 -10.502546823 -5.6508534725 33.428709653 27.874940061 -25.851830397 2.2306924524 10.743462745 -7.8289081722 
-9.5647137018 13.725236935 -1.4507880581 -0.44229746883 -9.2459222076 -12.305796191 -16.68116093 -1.6952346177 6.9199618178 
-21.507684105 -14.449296972 21.687750938 -0.75193980738 -47.803257666 -6.7876143437 41.657382248 -53.773106769 43.564441833 
-28.914501544 -16.553333396 8.9702746231 -11.315759259 23.278623351 -20.359309118 -32.364140514 25.374319625 25.947792269 
13.776210073 52.950065779 38.990888092 -4.7857934102 -41.008726651 31.033321625 -36.862445323 6.2520342926 24.887354395 
-62.28015575 -32.802135551 -7.3212856011 22.174914426 3.0022237469 0.42403807743 3.900891007 -4.0512817284 -0.23910902439 
-6.5424810766 -29.254856499 -16.52359067 19.80013735 -9.7595110312 -27.603105104 -69.317161951 0.24007603454 19.325961939 
4.9534314175 -19.705921505 -32.162673181 
