# vtk DataFile Version 4.2
Generated by LIGGGHTS
ASCII
DATASET POLYDATA
POINTS 70 float
-0.0169767 -0.0351238 0.0426346 0.011859 -0.0226899 0.0415796 -0.0325267 -0.0185984 0.0426717 
-0.0149111 -0.0170586 0.0412007 -0.0376785 -0.00918117 0.0436646 -0.0160971 -0.00696961 0.0413931 
0.00352102 -0.0100034 0.0420797 0.041419 -0.00312745 0.045165 0.00384047 0.00218173 0.0432579 
0.0321363 0.00232455 0.0452324 -0.0259483 0.0226767 0.044272 -0.00812842 0.0240126 0.0423196 
-0.01356 0.0325486 0.0446658 0.0110284 0.0328929 0.0452282 0.000196958 -0.0414214 0.0538864 
-0.0166139 -0.0348731 0.0527847 -0.00213378 -0.0306787 0.0477352 -0.00748592 -0.0390762 0.0468287 
0.0105062 -0.0390773 0.0479208 0.0179361 -0.0316783 0.04883 -0.0247578 -0.0296122 0.0481837 
-0.013796 -0.0228503 0.0497104 0.00925212 -0.0285909 0.0545132 0.0299082 -0.0265075 0.0488873 
-0.0230814 -0.0197506 0.0465919 -0.0176262 -0.0100549 0.0515956 -0.00857356 -0.0112843 0.0467297 
-0.0008669 -0.0197544 0.049115 0.00964081 -0.0181194 0.050579 0.0191472 -0.0197142 0.0478003 
0.0296785 -0.0151094 0.0455552 -0.0367193 -0.0091378 0.05365 -0.0270807 -0.00973932 0.0478635 
0.0113475 -0.00446644 0.0485846 0.0249818 -0.0061796 0.0458757 -0.0416446 0.00500778 0.0468365 
-0.0215045 0.000965264 0.0547552 -0.0164197 0.00253663 0.0454879 -0.00774978 0.0077543 0.0515433 
0.00698152 0.00560838 0.0526401 0.0175253 0.00698121 0.0511507 0.0408041 0.00806527 0.053481 
-0.037447 0.0178323 0.0454433 -0.0323441 0.0134545 0.053083 -0.0231788 0.0126296 0.0459415 
0.0209806 0.0161144 0.0470047 0.0315008 0.0124042 0.049404 -0.0322127 0.0243464 0.0531263 
-0.0169039 0.0240083 0.0504258 -0.00699188 0.0262527 0.0520438 0.0111726 0.0236495 0.0524063 
0.0323309 0.0204666 0.0553717 -0.017355 0.0359865 0.0538433 0.00217375 0.0304309 0.0510527 
0.0214305 0.0328232 0.0471829 0.00275453 0.0405876 0.0498663 -0.00624989 -0.0262159 0.0572552 
0.0191187 -0.0212965 0.0608567 0.0287358 -0.0211134 0.0577761 -0.0395944 -0.0103294 0.0641251 
-0.00331322 -0.0165326 0.0612242 -0.0110792 -0.00768946 0.0594368 0.00658024 -0.0042755 0.0586089 
0.0376948 -0.00938972 0.0587512 -0.0351584 0.00406561 0.0558747 -0.0165749 0.00924743 0.0586285 
-0.000607546 0.00343997 0.0594619 0.0265397 0.00236989 0.0562333 0.00422003 0.0168121 0.0590876 
0.021361 0.0307682 0.0589874 
VERTICES 70 140
1 0 
1 1 
1 2 
1 3 
1 4 
1 5 
1 6 
1 7 
1 8 
1 9 
1 10 
1 11 
1 12 
1 13 
1 14 
1 15 
1 16 
1 17 
1 18 
1 19 
1 20 
1 21 
1 22 
1 23 
1 24 
1 25 
1 26 
1 27 
1 28 
1 29 
1 30 
1 31 
1 32 
1 33 
1 34 
1 35 
1 36 
1 37 
1 38 
1 39 
1 40 
1 41 
1 42 
1 43 
1 44 
1 45 
1 46 
1 47 
1 48 
1 49 
1 50 
1 51 
1 52 
1 53 
1 54 
1 55 
1 56 
1 57 
1 58 
1 59 
1 60 
1 61 
1 62 
1 63 
1 64 
1 65 
1 66 
1 67 
1 68 
1 69 

POINT_DATA 70
FIELD FieldData 7
id 1 70 int
1962 1605 1230 22 982 1176 858 1780 1562 
2095 1286 1100 1685 1936 821 2101 355 1068 
1546 1606 522 1515 1010 810 801 1038 1240 
2075 936 722 657 2126 1192 1064 1148 546 
668 82 1857 1510 851 257 318 1350 962 
1335 535 183 1489 1435 1231 1478 1646 447 
1721 2083 364 599 1258 286 153 348 1983 
739 2092 1822 148 1450 224 281 
type 1 70 int
2 2 2 2 2 2 2 2 2 
2 2 2 2 2 2 2 2 2 
2 2 2 2 2 2 2 2 2 
2 2 2 2 2 2 2 2 2 
2 2 2 2 2 2 2 2 2 
2 2 2 2 2 2 2 2 2 
2 2 2 2 2 2 2 2 2 
2 2 2 2 2 2 2 
i 3 70 int
0 0 0 0 0 0 0 0 0 
0 0 0 0 0 0 0 0 0 
0 0 0 0 0 0 0 0 0 
0 0 0 0 0 0 0 0 0 
0 0 0 0 0 0 0 0 0 
0 0 0 0 0 0 0 0 0 
0 0 0 0 0 0 0 0 0 
0 0 0 0 0 0 0 0 0 
0 0 0 0 0 0 0 0 0 
0 0 0 0 0 0 0 0 0 
0 0 0 0 0 0 0 0 0 
0 0 0 0 0 0 0 0 0 
0 0 0 0 0 0 0 0 0 
0 0 0 0 0 0 0 0 0 
0 0 0 0 0 0 0 0 0 
0 0 0 0 0 0 0 0 0 
0 0 0 0 0 0 0 0 0 
0 0 0 0 0 0 0 0 0 
0 0 0 0 0 0 0 0 0 
0 0 0 0 0 0 0 0 0 
0 0 0 0 0 0 0 0 0 
0 0 0 0 0 0 0 0 0 
0 0 0 0 0 0 0 0 0 
0 0 0 
v 3 70 double
-0.10270543716 -0.034889345197 0.062535798186 0.081168328307 0.022177254665 0.1247635229 -0.065482148817 -0.074907784991 0.10364996074 
0.018632048172 0.015025338135 0.17698416806 -0.025336200569 0.23736185459 0.18549588378 -0.035891063038 -0.01320878798 0.058965873962 
0.11812478162 -0.012595213323 0.091926975552 -0.12656136314 -0.063320858245 0.24306662328 0.065284486952 -0.040396444496 0.27401383326 
-0.23732335137 0.047211748086 0.16823500446 -0.030519272346 0.011938911775 0.24173945928 0.055458890733 0.11726260564 0.2011096614 
-0.01603024742 -0.069993220501 0.20287807167 0.091617550227 0.050312927264 0.13094491812 0.14175841891 0.066124498368 -0.042032510281 
0.01635068201 -0.094152345995 0.17865261556 -0.12490023748 -0.12098651143 0.2593784644 -0.0019844168176 0.10592431954 0.14428011461 
-0.081197973167 0.10315111757 0.17105858758 -0.09836357236 -0.042202564365 0.10887303005 -0.057661372188 0.00049576160239 0.31607364163 
0.10684696152 -0.064408210541 -0.31234112075 -0.032251832575 0.13523790011 0.32640340326 -0.18837606136 -0.049262938978 0.30820769936 
0.16439334904 0.010519128729 0.20589057969 0.075303711682 0.037838576552 0.20868074135 -0.089446394723 -0.033859038607 0.21444476618 
0.10788564789 0.15067835435 0.090023777626 -0.060361676562 -0.025410475744 0.23463509565 -0.0031601677634 -0.13218471967 0.19484403662 
0.026057809854 -0.20150150335 0.15640338552 0.24414836741 0.16572062529 0.25970110508 -0.10889965804 0.10409549649 0.16979212249 
-0.013743051119 -0.24492070152 0.1863121079 -0.017707201254 0.024954216709 0.20549993852 0.0034853441251 -0.065415220993 0.21145574162 
0.039524986717 0.20522583125 0.18940300267 0.038510989726 0.067011420723 0.12570935934 -0.17224375269 0.095641873646 0.08743529528 
-0.27337676489 0.0072219436603 0.25290416037 -0.13052182545 -0.11726706126 0.34351030626 -0.10293928678 -0.029711531532 0.35670851032 
0.049512581773 0.24373415828 0.19967305317 0.17256028115 0.054929932011 0.12068375966 0.07358025316 -0.12153628767 0.18780961514 
0.18648959344 -0.12470375816 0.40383043437 0.022686572038 0.042708045311 0.21727307351 -0.023114601198 -0.049814556921 0.27119694433 
0.083201138649 0.07914654441 -0.10600926451 0.0075017646839 0.16702422652 -0.53829553378 -0.17685952466 0.020538686479 0.40907943152 
-0.010559060599 0.0022603560585 0.24409440638 0.059815382846 -0.099909138124 0.15407358462 0.19506050843 0.1575304876 0.36353418258 
-0.022681386251 0.1194669775 0.17818231906 -0.02685195587 0.12318385372 0.10381870613 0.011524898825 -0.016022757839 0.21942581145 
0.068509550723 -0.088035405653 0.30349660334 -0.29132949731 -0.065021488841 0.48119414788 -0.050956223253 -0.14571006882 0.16094674611 
-0.00016988664412 -0.017371354948 0.27016979073 0.030505720868 0.15960898768 0.10299068697 0.086131624294 0.12720694359 0.40826071023 
-0.048064042587 -0.091544871631 0.51280397565 0.04594140416 0.18343659204 0.38674912909 0.22844168295 0.20813547874 0.3651720477 
0.10771559731 0.23708057237 0.14281086335 -0.048224001542 -0.028085532716 0.31227044736 -0.26847966564 0.088218636386 0.26955653653 
0.081160365343 0.065990245606 0.25496024157 
f 3 70 double
0 0 -0.0012841259972 0 0 -0.0012841259972 0 0 -0.0012841259972 
0 0 -0.0012841259972 0 0 -0.0012841259972 0 0 -0.0012841259972 
0 0 -0.0012841259972 0 0 -0.0012841259972 0 0 -0.0012841259972 
0 0 -0.0012841259972 0 0 -0.0012841259972 0 0 -0.0012841259972 
0 0 -0.0012841259972 0 0 -0.0012841259972 0 0 -0.0012841259972 
0 0 -0.0012841259972 0.026484017701 0.01584069373 0.00070356828983 -0.026484017701 -0.01584069373 -0.0032718202841 
0 0 -0.0012841259972 0 0 -0.0012841259972 0 0 -0.0012841259972 
0 0 -0.0012841259972 0 0 -0.0012841259972 0 0 -0.0012841259972 
0 0 -0.0012841259972 0 0 -0.0012841259972 0 0 -0.0012841259972 
0 0 -0.0012841259972 0 0 -0.0012841259972 0 0 -0.0012841259972 
0 0 -0.0012841259972 0 0 -0.0012841259972 0 0 -0.0012841259972 
0 0 -0.0012841259972 0 0 -0.0012841259972 0 0 -0.0012841259972 
0 0 -0.0012841259972 0 0 -0.0012841259972 0 0 -0.0012841259972 
0 0 -0.0012841259972 0 0 -0.0012841259972 0 0 -0.0012841259972 
0 0 -0.0012841259972 0 0 -0.0012841259972 0 0 -0.0012841259972 
0 0 -0.0012841259972 0 0 -0.0012841259972 0 0 -0.0012841259972 
0 0 -0.0012841259972 0 0 -0.0012841259972 0 0 -0.0012841259972 
0 0 -0.0012841259972 0 0 -0.0012841259972 0 0 -0.0012841259972 
0 0 -0.0012841259972 0 0 -0.0012841259972 0 0 -0.0012841259972 
0 0 -0.0012841259972 0 0 -0.0012841259972 0 0 -0.0012841259972 
0 0 -0.0012841259972 0 0 -0.0012841259972 0 0 -0.0012841259972 
0 0 -0.0012841259972 0 0 -0.0012841259972 0 0 -0.0012841259972 
0 0 -0.0012841259972 0 0 -0.0012841259972 0 0 -0.0012841259972 
0 0 -0.0012841259972 
radius 1 70 double
0.005 0.005 0.005 0.005 0.005 0.005 0.005 0.005 0.005 
0.005 0.005 0.005 0.005 0.005 0.005 0.005 0.005 0.005 
0.005 0.005 0.005 0.005 0.005 0.005 0.005 0.005 0.005 
0.005 0.005 0.005 0.005 0.005 0.005 0.005 0.005 0.005 
0.005 0.005 0.005 0.005 0.005 0.005 0.005 0.005 0.005 
0.005 0.005 0.005 0.005 0.005 0.005 0.005 0.005 0.005 
0.005 0.005 0.005 0.005 0.005 0.005 0.005 0.005 0.005 
0.005 0.005 0.005 0.005 0.005 0.005 0.005 
omega 3 70 double
16.758244121 -12.772020375 5.0740289328 12.130959452 -3.084967884 1.2040704292 3.1710991732 -10.527392904 10.217914747 
-0.81115649935 -28.581268421 2.6121924471 6.4396767666 31.127909787 -30.45163261 -23.092021646 -2.9906459133 -3.0173837555 
-1.129082744 21.60547875 1.5997067365 -3.5629678239 -5.3947829114 24.012937273 19.262675383 9.0764959036 -1.9669117373 
-4.1658530888 -11.636697716 5.3977506842 21.634277946 9.4106717598 -15.931724443 -20.113615772 51.118408088 -3.5006306547 
13.972095161 -0.39886653715 15.187827898 -10.788631011 22.264666339 17.164277643 -13.843234459 19.115314862 21.947349184 
-10.683186756 15.008831861 -35.356226244 -8.4108679211 -25.039322726 -35.476700451 22.710362718 -0.93930483179 -11.321139768 
20.058607438 -28.936462898 -13.506927096 -3.2791300548 14.000046315 -5.0662505184 -11.845170286 -9.992863607 0.48224642045 
10.461548843 58.973811178 24.920526369 42.553401649 11.926357146 -22.604968292 31.50134847 -26.888792284 0.90750526941 
-25.739698656 11.823391827 4.9667515517 -26.262313112 -7.143912862 2.7785535871 -6.3417040598 -21.436025417 -17.602939536 
-0.41366504347 -6.451590729 3.3334911118 28.609719979 -20.011865767 -32.430411 -18.528220444 13.395672806 -6.6437974941 
11.667782857 -44.787773895 -9.9077781625 -0.66201901054 10.979548529 1.4769735444 -11.146755743 35.535994398 -7.6815863479 
0.79975642689 -2.8187981686 -7.3740269255 23.384878136 -0.3780090127 -10.604212708 13.240213205 -5.1202624117 10.090653663 
3.8359640698 12.845820208 -11.317285337 7.8954389047 8.2758497778 7.1451980127 18.992065404 28.241953236 -7.9804971659 
6.3644305742 -7.2730048236 38.148133635 10.390797903 22.376403048 29.043385518 -34.079932649 -33.082570251 -1.8649759985 
-7.9897631094 11.080529241 13.007998883 -28.868990995 90.738635512 6.1934586018 5.7267529179 4.0690696752 -5.0137869394 
1.9392701192 -13.345073208 -3.8393659929 -1.4728104082 20.89529449 27.139597628 -20.232082786 14.733095617 15.913228267 
37.414833959 -26.249249401 -12.144591044 -41.228937117 12.989336541 -12.606994333 -14.890885864 -19.970280265 3.1611393036 
7.8240778788 -11.053983118 4.1381791938 1.9442273761 9.9722481923 2.4883549138 -5.3142168771 65.842419484 -11.166962692 
-39.517495819 5.4465391823 -7.8209051125 -4.040519973 1.2463040637 6.2853543554 -2.003289708 -0.16834310099 0.32954579845 
-8.0001871833 23.271460732 17.465235234 -6.9383493745 -3.7057401023 -7.0696568212 72.904688042 -19.478900646 0.029762580649 
-5.3724585374 -6.6388902078 -31.252666328 5.1773283819 20.421244413 -1.4088828366 18.31502128 3.7301299538 -44.037852482 
27.449942244 -24.430418243 10.605250023 -20.223267828 2.8451894886 19.997055138 31.683098065 -6.0389690614 -0.28987526706 
-26.480742183 70.1034414 -16.102011918 11.982663512 14.546868767 4.0009916776 4.2748464851 -20.366306312 19.338833158 
15.285922955 3.4085427428 17.76799162 
