# vtk DataFile Version 4.2
Generated by LIGGGHTS
ASCII
DATASET POLYDATA
POINTS 70 float
0.0142473 -0.0394483 0.0177748 -0.0129313 -0.0221119 0.0245525 -0.00173173 -0.0111614 0.0230522 
0.0269116 -0.0118848 0.0201561 -0.011612 -0.0099865 0.0220588 0.0221916 -0.00402988 0.024158 
-0.0356185 0.00675695 0.0213478 -0.0320268 0.0178046 0.019564 0.00966978 0.0400892 0.0243492 
-0.0263489 -0.0205722 0.0331181 0.0337536 -0.0176895 0.0255988 -0.0305064 -0.000113481 0.0302833 
-0.0070517 -0.00180361 0.0343362 -0.0190822 0.00624949 0.0298419 -0.0102881 0.00325065 0.0261464 
0.0419097 0.00130422 0.0259362 -0.0311435 0.0103228 0.0304477 -0.00414612 0.0152978 0.0261834 
0.0186042 0.0254205 0.0305597 0.00111491 0.0350782 0.0256512 -0.00972632 -0.0408648 0.0397934 
-0.000711007 -0.0419813 0.0441444 0.00765798 -0.0412708 0.0387176 0.000951142 -0.0333351 0.0393708 
0.0243203 -0.0342274 0.0412321 -0.0140477 -0.0203321 0.0382723 -0.00802313 -0.027699 0.0427684 
-0.0309082 -0.0147957 0.0398884 -0.0211277 -0.0129271 0.0408061 0.00370119 -0.0124161 0.0428522 
0.0264511 -0.00401262 0.0379898 0.0417272 -0.00454016 0.0450884 0.00967705 0.0185473 0.0431083 
0.0161184 0.0166514 0.0355984 0.0400409 0.0125039 0.0405986 -0.00198224 0.0263626 0.0385829 
0.029607 0.0297518 0.039667 -0.0206287 -0.0312286 0.0525582 0.000738879 -0.0279049 0.0477649 
-0.040027 -0.0126679 0.0540133 -0.0205449 -0.0139425 0.0534383 0.0109407 -0.0189023 0.0451998 
-0.00879258 -0.00531305 0.0477817 -0.0238517 0.00857469 0.0466665 -0.0144264 0.00826009 0.0499924 
0.0257448 0.00489724 0.0471614 0.0355354 0.00702451 0.047647 0.0386345 0.0162549 0.0499258 
-0.0226667 0.0307855 0.0491883 0.0101835 0.0370062 0.0540776 0.0103126 0.0312569 0.0456976 
-0.00693225 -0.035939 0.056332 0.0132156 -0.0307861 0.0578449 0.0279756 -0.0301156 0.0561799 
-0.0231794 -0.0206997 0.060323 -0.00529044 -0.0268493 0.0601637 0.00445214 -0.0214369 0.058577 
-0.00514914 -0.0168799 0.0593961 0.00492516 -0.0115591 0.0600618 -0.0304793 -0.00462235 0.0600501 
0.0358 -0.00386212 0.0566186 -0.03545 0.00312001 0.0554685 -0.0365602 0.0124504 0.0600607 
-0.0190425 0.0175359 0.0554212 -0.00398072 0.0146114 0.0575237 0.0110632 0.0149191 0.0581592 
-0.00167078 0.024409 0.0614043 0.0287749 0.023157 0.058253 -0.0142446 0.0394348 0.0558865 
-0.003225 0.0418245 0.0587639 
VERTICES 70 140
1 0 
1 1 
1 2 
1 3 
1 4 
1 5 
1 6 
1 7 
1 8 
1 9 
1 10 
1 11 
1 12 
1 13 
1 14 
1 15 
1 16 
1 17 
1 18 
1 19 
1 20 
1 21 
1 22 
1 23 
1 24 
1 25 
1 26 
1 27 
1 28 
1 29 
1 30 
1 31 
1 32 
1 33 
1 34 
1 35 
1 36 
1 37 
1 38 
1 39 
1 40 
1 41 
1 42 
1 43 
1 44 
1 45 
1 46 
1 47 
1 48 
1 49 
1 50 
1 51 
1 52 
1 53 
1 54 
1 55 
1 56 
1 57 
1 58 
1 59 
1 60 
1 61 
1 62 
1 63 
1 64 
1 65 
1 66 
1 67 
1 68 
1 69 

POINT_DATA 70
FIELD FieldData 7
id 1 70 int
44 732 912 837 385 663 467 208 595 
1606 398 1986 2166 1438 1371 720 895 936 
1782 1157 2710 2454 2509 1464 3102 2267 2996 
2873 2640 2252 2790 2566 2117 1929 3228 1751 
2149 3932 2782 3857 4179 3841 3057 3206 3265 
3510 3364 3475 3770 3724 3209 4006 4989 4280 
5103 5377 4708 5397 5509 4181 4482 4052 5353 
4796 4610 5050 5420 4362 3909 5402 
type 1 70 int
2 2 2 2 2 2 2 2 2 
2 2 2 2 2 2 2 2 2 
2 2 2 2 2 2 2 2 2 
2 2 2 2 2 2 2 2 2 
2 2 2 2 2 2 2 2 2 
2 2 2 2 2 2 2 2 2 
2 2 2 2 2 2 2 2 2 
2 2 2 2 2 2 2 
i 3 70 int
0 0 0 0 0 0 0 0 0 
0 0 0 0 0 0 0 0 0 
0 0 0 0 0 0 0 0 0 
0 0 0 0 0 0 0 0 0 
0 0 0 0 0 0 0 0 0 
0 0 0 0 0 0 0 0 0 
0 0 0 0 0 0 0 0 0 
0 0 0 0 0 0 0 0 0 
0 0 0 0 0 0 0 0 0 
0 0 0 0 0 0 0 0 0 
0 0 0 0 0 0 0 0 0 
0 0 0 0 0 0 0 0 0 
0 0 0 0 0 0 0 0 0 
0 0 0 0 0 0 0 0 0 
0 0 0 0 0 0 0 0 0 
0 0 0 0 0 0 0 0 0 
0 0 0 0 0 0 0 0 0 
0 0 0 0 0 0 0 0 0 
0 0 0 0 0 0 0 0 0 
0 0 0 0 0 0 0 0 0 
0 0 0 0 0 0 0 0 0 
0 0 0 0 0 0 0 0 0 
0 0 0 0 0 0 0 0 0 
0 0 0 
v 3 70 double
1.9361126116e-07 1.6675794955e-06 -4.9140969831e-07 -4.9331970718e-07 1.3746353298e-05 1.9040463992e-06 -8.1862806066e-07 -2.4902913628e-06 -8.8982550796e-06 
-5.781816528e-06 1.3429061803e-06 1.1527583882e-06 -4.4671862039e-06 -2.8396710134e-06 3.4730653703e-06 -7.8170368933e-07 6.0004765986e-07 -9.3062479186e-07 
2.9765988845e-06 1.0441645314e-05 9.971755781e-07 -8.6826858408e-07 -1.9840550686e-06 8.7311255153e-07 -7.5946294128e-06 -3.1489403929e-06 5.5919525684e-06 
-6.5291890423e-06 -2.9082196319e-06 8.382864651e-06 -2.0654384937e-06 -8.0695562113e-06 -4.4168880522e-06 -2.5026700929e-06 -1.8017295049e-06 2.6106140949e-05 
-1.065420753e-05 -3.0743947065e-06 -3.8547555787e-06 2.885399979e-07 -2.2298133335e-06 -4.0655082809e-06 -3.6692804646e-06 -1.4485368271e-06 -1.9082052263e-06 
-1.530178598e-05 2.3014764423e-05 -2.2957028122e-05 1.5474752941e-05 -1.2420059863e-05 -9.5702081641e-06 -1.5625693166e-05 -8.5252064649e-06 1.2935335433e-05 
5.2737913766e-07 1.2286524968e-06 3.5708421003e-06 2.1689598466e-05 3.0586297246e-05 -8.3382875181e-06 9.9775635464e-07 2.5041218447e-06 -1.1320666629e-06 
1.2037372489e-07 1.9966789677e-06 -3.4876834372e-06 -8.1244271612e-07 1.7575513286e-06 6.9743728579e-06 2.1675903553e-06 -9.1713707583e-07 1.4782028278e-07 
-4.4094406155e-06 2.7019250463e-06 -2.3117691407e-06 -9.2157177149e-07 -2.0173132484e-06 8.020712695e-06 -2.3590213962e-06 2.8747368176e-06 -4.5253026161e-07 
4.38576396e-06 1.619871261e-05 2.5001540605e-06 -2.7640943804e-06 -4.7281520075e-06 2.4523150297e-07 -1.5030786086e-07 -5.0049265258e-06 -3.4893764289e-06 
4.5953268024e-06 2.8254990209e-06 6.0441788737e-06 2.2733839402e-06 -9.5245967905e-07 4.80409801e-07 -6.2328893475e-07 -1.4988840459e-06 -1.6441917062e-06 
-3.6312026942e-07 -3.2490227258e-06 -4.1465527735e-07 1.6866784315e-06 -2.2222651274e-06 3.0379510356e-07 1.7674120237e-06 1.2887773405e-06 5.5996798087e-06 
-3.2999576284e-06 -2.244250632e-05 -9.8454915503e-06 -9.1813551185e-07 7.1154572196e-07 3.9737262027e-07 -2.1253767299e-06 1.0538825174e-06 4.2696669269e-07 
3.7963386332e-07 -1.1994135711e-06 -8.9570049718e-07 2.685798851e-07 -7.0032899244e-07 -7.6149541631e-07 -7.6964804994e-07 5.4184202991e-06 1.7091898758e-06 
4.3611749345e-07 -2.0948052017e-07 1.1593033113e-06 8.5634365043e-07 -1.2514922439e-06 -1.9312680783e-06 1.2174838334e-06 5.0156352291e-07 1.1466974106e-06 
1.2212952751e-07 6.87686051e-07 -5.4742252863e-07 1.5084376614e-06 -7.4282969024e-07 2.3817019316e-06 4.7258768366e-07 1.3377359212e-06 3.8755763891e-07 
1.1867736237e-06 9.3701408463e-07 -1.1984658365e-08 -2.5540722374e-06 -4.5172090849e-07 -2.9592693917e-06 1.1888863364e-06 -6.437262073e-07 -3.5866998505e-06 
-4.0845707153e-07 3.1630837141e-07 -5.5294620767e-09 -4.0198160639e-08 -1.4811647098e-06 7.5470112945e-07 -2.0099447453e-07 -2.7023479386e-07 -2.5942397529e-06 
1.0438060648e-06 -1.5417221445e-06 -5.4885916648e-07 1.1052622705e-06 -1.394334434e-07 -1.1539221176e-07 5.250967788e-07 -3.4742229824e-07 4.6206809859e-07 
3.9355083004e-07 2.5493082341e-07 1.9684725122e-07 -3.6694198905e-08 -5.8202057467e-08 1.1584162176e-07 -8.0134367789e-09 2.7223665991e-07 -1.59314322e-06 
3.8359123315e-07 1.7008525751e-07 6.2272650397e-07 3.1019530729e-08 -3.1449086466e-07 -5.7484180729e-07 4.9076615797e-07 -1.642976992e-07 -3.0706749042e-07 
-9.886600306e-08 1.5536671493e-06 1.564299073e-07 8.3392058398e-07 -6.1525041076e-07 -1.3006040618e-08 -1.2446779207e-07 5.8185778006e-09 -3.3042762253e-07 
-5.8735046131e-08 5.1372360807e-07 -1.0576763422e-06 2.6141349875e-07 3.0057283889e-07 -4.3054476386e-07 6.777170316e-07 -4.75297366e-07 -9.2297908046e-08 
-6.5480511678e-07 2.9882445859e-06 3.1045249886e-06 
f 3 70 double
3.0562322362e-05 -3.390749931e-05 -2.2861490973e-05 -5.622474943e-05 0.00012452108709 5.9695684133e-05 2.7309716548e-05 -1.8067510966e-05 9.9659230888e-05 
-7.3058524252e-06 3.6358645511e-05 1.7325468282e-05 -5.1549416715e-05 -4.0931842198e-05 -5.7507324581e-05 2.3422399639e-05 -5.8801136343e-06 4.5846180479e-05 
-1.6831531952e-06 6.9719980359e-05 -4.2108321521e-05 -0.00010210850848 2.0069361097e-05 4.5747043863e-05 -0.00014725738002 -0.00011115796353 -6.2614941336e-05 
3.592428806e-06 -4.3358354671e-05 4.7041720434e-05 -6.3690346194e-05 0.00018325552485 4.7761528074e-05 -3.7606553635e-05 -2.3147928905e-05 -8.749230639e-05 
-9.4722551579e-05 -3.1708914862e-05 0.00013747332778 -4.8952659235e-05 -9.0231247793e-06 5.6619934762e-05 3.9446488485e-05 1.4093865508e-05 4.6150755634e-05 
0.00018144073436 -0.00012017549792 0.00012963431765 -2.3104793618e-06 -1.5974682126e-05 -9.9931116901e-06 -0.00021503158592 -7.5279521318e-05 0.00011388477717 
7.575205816e-06 5.5025643189e-06 -1.5399728643e-05 0.00029602162785 0.00010952442292 3.4818736382e-05 2.299485215e-05 -6.4979649875e-06 -5.5664597913e-05 
1.9547962028e-05 -2.9627935617e-05 -1.783756451e-05 -2.9265277381e-05 8.1798424274e-06 1.1673685137e-05 -1.0352489347e-05 3.547570465e-05 -3.3915695202e-05 
6.2262337472e-07 2.1527176236e-05 6.5333731939e-06 -7.4399228039e-06 2.9043324236e-06 -1.8696090889e-05 -1.3030423632e-05 1.7633001188e-05 -5.7445039497e-06 
-5.0780902003e-06 9.0710013642e-05 4.10169455e-05 3.4841823685e-05 -3.0755698628e-05 2.952709295e-05 -1.7445849836e-05 8.7922873682e-06 2.6638346179e-05 
-1.1748515463e-05 2.6932965435e-06 -4.372868753e-05 -8.6601911824e-06 -8.998677465e-06 5.6025730302e-06 3.5813829961e-05 -1.0609474523e-06 -1.4458687677e-05 
-2.6448614415e-05 2.8408278132e-05 7.4969141802e-06 -4.7098905322e-06 1.4039841245e-05 4.1324135603e-06 -6.1339040075e-07 1.2509704377e-06 -3.587872595e-05 
0.00011673132864 0.00027929540528 0.00020297932421 -1.036343085e-06 3.1887502153e-06 1.3776298076e-06 2.7833378467e-08 -1.1904445685e-06 3.9946022193e-06 
4.4836001484e-08 -7.1212633625e-07 7.7758653252e-07 -5.2166286769e-06 2.5729570716e-07 4.924203573e-07 2.3982469189e-05 -5.677037567e-05 -4.6362318926e-05 
-3.0345246974e-06 2.189068396e-05 -1.2279398691e-05 -5.0000090409e-07 -4.2773042469e-06 1.4657930932e-06 -5.2294655046e-06 2.9081078228e-06 6.9788398743e-09 
-2.5337579614e-06 5.4624550124e-06 -1.6993619121e-06 -5.5824464378e-06 4.9358518447e-06 1.5864512942e-05 1.3584741944e-05 2.6444865983e-05 -4.9828607528e-06 
-2.9172079772e-06 7.5902856168e-06 -1.2592812066e-06 7.164358926e-06 2.1028743478e-06 -5.6200387252e-06 -2.8910636656e-05 -6.5558695905e-06 -5.6333504401e-05 
3.6156832126e-06 -2.2777976842e-07 -2.5868987937e-06 -4.2916704648e-07 3.9118166662e-07 -3.736701987e-06 -2.08354955e-06 3.9359946509e-07 -2.3714811495e-06 
2.4195508351e-06 6.4558791142e-07 7.3918584543e-08 -1.4437647572e-06 -2.0553903076e-06 -1.7762260067e-06 -1.6389966216e-06 9.9882224586e-07 -2.4769206021e-07 
-2.4725655597e-07 -1.9362624228e-07 -1.3755286052e-06 1.2238501748e-06 -3.6851072275e-07 -4.5893190791e-07 -5.3059227443e-07 -5.9144383783e-07 -1.3820131271e-06 
1.4088097351e-06 -9.3404149327e-07 2.9520568903e-07 1.082260196e-07 7.6326350509e-07 -1.8201573709e-06 -2.1655921633e-07 7.4984578343e-07 -4.0035465797e-07 
-1.0901770349e-06 3.3018883231e-06 -1.6855549566e-06 3.3787120009e-06 2.9759779201e-06 -2.0905540166e-06 1.3253595971e-06 1.3691342761e-06 1.4848164015e-07 
-1.1177552997e-06 7.974976391e-07 -4.9311032187e-07 -9.9328349295e-07 -4.4730313458e-07 1.7693285803e-06 1.4786547361e-06 -1.4509719828e-06 -4.8566944455e-07 
1.9589412286e-06 4.8273959675e-06 7.4800726388e-07 
radius 1 70 double
0.005 0.005 0.005 0.005 0.005 0.005 0.005 0.005 0.005 
0.005 0.005 0.005 0.005 0.005 0.005 0.005 0.005 0.005 
0.005 0.005 0.005 0.005 0.005 0.005 0.005 0.005 0.005 
0.005 0.005 0.005 0.005 0.005 0.005 0.005 0.005 0.005 
0.005 0.005 0.005 0.005 0.005 0.005 0.005 0.005 0.005 
0.005 0.005 0.005 0.005 0.005 0.005 0.005 0.005 0.005 
0.005 0.005 0.005 0.005 0.005 0.005 0.005 0.005 0.005 
0.005 0.005 0.005 0.005 0.005 0.005 0.005 
omega 3 70 double
-0.0010948162246 -0.00021979771469 0.00041309075034 0.0011839616475 0.00064924804391 0.00072677197113 -0.0016427934395 -0.0040393503295 -0.0015666679571 
0.0019306426939 0.00074672247705 0.0030219441403 0.00022694876587 0.0017891025124 -0.0016063211933 0.00034229276586 -0.00011754603853 0.0007984862607 
-0.00076777248096 -0.0019122016115 -0.00046314444919 -3.1068862817e-05 -0.0022664662022 -0.0010630540946 -0.002494409341 0.00082765305398 0.00056410635819 
-0.0010497147239 -9.4922033588e-05 -0.00058734416591 0.016851848186 0.0034459625741 0.00010463543652 0.00034429413363 -0.0011254021555 0.0018270573638 
-0.00034211437304 0.0010293957312 -8.1060249411e-05 -0.00060388230113 0.00063979281955 -0.00025792811379 -0.00055960328338 0.00044984474173 0.00038927433259 
7.8930226931e-05 0.0006840103869 0.00014701750982 0.0010598856079 -0.0012333459357 0.0017155459412 0.0022585420946 -0.0048483856726 0.002474858657 
0.00075979965176 0.00029607646179 -0.0016302867799 0.0033156233406 -0.00016023078906 -0.00058189991733 -0.0023365762652 -0.00074020724987 -0.0011182070037 
0.0011701299835 0.00077966312667 0.00067098939916 -0.0002104783971 0.00010426732817 0.0001096226496 0.00060400500017 -0.00040510670831 -4.3076121179e-05 
-0.00079710055716 0.00042038042598 0.0009656620864 -0.00037375909351 -0.00011881083103 0.00032302813152 1.7128066003e-05 0.00059253487845 -2.3026310178e-05 
-0.0010511055065 -0.00028553173355 -0.00074748501196 0.00048386311685 -0.00098041459718 0.00020658494807 0.002950556212 0.00023646953609 -0.0006915034023 
-8.0366291521e-07 -4.298766851e-05 -6.2938025518e-05 0.00022721990569 0.00083899774668 0.00027901293505 -9.8571864085e-05 0.00037970704682 -0.00045084446396 
0.00067324580631 -5.6781988934e-05 0.00029564720773 0.0002012738934 0.0026043644791 -0.00088296682796 0.0022275209777 -0.00050719513512 -0.00084338846735 
0.014935988321 0.0049987431641 -0.0066176649842 -2.3258305092e-06 0.00016223218029 -0.00028160706842 -0.00012984293911 -0.00074007787498 0.00068641498051 
-0.00036025783504 -1.7846839768e-05 -0.00027568741737 0.00017833774791 -8.4821945082e-05 -0.00011058654756 -0.0010711401719 -0.00094794889982 0.00032226237996 
0.00031508347643 -0.00045537221768 -0.00038091814721 0.00035822131616 9.6746000038e-05 -0.00013981572262 -0.00017928883462 0.00019711582618 -0.00025207825041 
-0.00046496526207 9.1183818809e-06 3.9986903046e-05 0.00026298835811 0.00023640170144 -0.00037947135441 2.9795350596e-05 0.00010354294011 -0.000381130783 
0.00030603109771 -0.00063496723643 0.00066661474408 0.00079576547828 -0.00046564961143 0.00016370552535 0.0022733321009 0.00048712147644 0.0014613680684 
-8.7011473612e-05 0.00034476534836 0.00060425174422 0.00034168142767 -0.0001422996385 0.00017330255412 -3.1633149139e-05 -0.00027808137165 0.00011508148724 
4.1288653239e-05 0.00016974073566 -3.8656512293e-05 3.2484039573e-06 -0.00020006569704 -0.00012247278495 0.00011662046171 -0.00026479044352 6.4103292639e-05 
-0.0002075510917 -0.00012788521391 9.3765278905e-05 -2.5162201299e-06 3.4994307701e-05 9.2859638893e-05 -0.00011330498814 -6.8150937996e-05 0.00028609334548 
-3.9819033454e-05 0.00042812875635 6.2462004802e-05 -3.529226418e-06 3.8731560034e-06 0.00027001742986 -3.7652528417e-07 2.0748024329e-05 -5.5371789796e-05 
0.00010716150378 -7.3339852825e-05 0.00035805215156 -4.9482580178e-05 -0.00034252353817 -0.00077755282246 -1.188163293e-05 -9.5478663546e-05 -0.00028659851225 
-0.00018871698694 4.5193517263e-05 -0.00020102235118 6.8417217554e-06 -0.00010164838881 0.00011235175029 0.00021407594234 -2.5583143e-05 -1.8480802794e-05 
0.0002060614452 0.00061388728796 -1.6301401971e-06 
