# vtk DataFile Version 4.2
Generated by LIGGGHTS
ASCII
DATASET POLYDATA
POINTS 70 float
0.00499027 -0.0148524 0.00986572 0.0118482 -0.00440938 0.0123169 0.0192861 -0.00512185 0.0130749 
-0.0132095 0.00719485 0.0127347 0.0164575 0.0033796 0.0128096 -0.00268989 0.0107182 0.0111496 
0.00115181 0.0154906 0.0102474 0.0100646 0.0158241 0.0109343 -0.00441444 -0.0198849 0.017715 
0.00200789 -0.0217787 0.0166371 0.00811382 -0.0204292 0.0189891 0.00829204 -0.0184845 0.0133159 
-0.0191315 -0.0103626 0.016002 -0.0126934 -0.0151401 0.0166639 -0.0135872 -0.00868199 0.0141192 
-0.00831436 -0.0114354 0.0149027 0.00301681 -0.0133272 0.0153226 0.00627212 -0.00880448 0.0175464 
0.0138311 -0.0151223 0.0184957 -0.0168016 -0.00510202 0.0177037 0.0151934 -0.00286704 0.0172905 
0.0210433 -0.00617701 0.0204497 0.0217391 -0.000205713 0.0197222 -0.0208132 0.00264117 0.0151301 
-0.0151411 0.000943837 0.0161517 -0.00536843 0.000103883 0.0141095 -0.0013667 0.00589053 0.0147812 
0.00988593 0.00237981 0.0192944 0.0214868 0.0046778 0.0162362 -0.0188039 0.00869022 0.0148301 
-0.0109526 0.00906527 0.0196802 0.00739303 0.0104803 0.014926 0.00502785 0.0129888 0.0198364 
0.0167528 0.0107275 0.0175522 -0.0124916 0.0180644 0.0132579 -0.00660246 0.0172946 0.0182622 
-0.00312944 0.0217178 0.0135978 0.00208345 0.019289 0.0153128 -0.00959197 -0.0197056 0.0233497 
-0.00183605 -0.0169953 0.022298 -0.00380351 -0.0178375 0.0279745 0.00137685 -0.0218138 0.0239817 
0.00916474 -0.019879 0.0255587 -0.0114356 -0.0097787 0.0220225 -0.0094173 -0.0154595 0.0275851 
-0.000564036 -0.0111025 0.0218631 0.00477973 -0.0114872 0.0245673 0.00863566 -0.0151385 0.0217712 
0.0128563 -0.0113014 0.0284316 -0.0218547 -0.00236986 0.0239334 -0.0190612 -0.0075511 0.0250947 
-0.0128148 -0.00401724 0.023599 -0.00456915 -0.00173068 0.0254994 0.00795451 -0.00408567 0.0228184 
0.00239095 -0.00413488 0.0274894 0.015605 -0.00370927 0.0281844 -0.021606 0.00350807 0.0227561 
-0.0152501 0.0028838 0.0218282 -0.00929568 0.00428004 0.0255629 -0.00367049 0.00368142 0.0230429 
0.00438225 0.00360987 0.0213423 0.017502 0.00158567 0.0259274 0.0206368 0.00720096 0.0216394 
-0.0168518 0.0110881 0.025729 0.0122453 0.0118231 0.0252969 -0.0127434 0.0178526 0.0248473 
-0.000419683 0.0218663 0.0289067 0.00333101 0.0216018 0.0225827 0.0074783 0.0205483 0.026953 
0.0213001 0.00519677 0.02942 
VERTICES 70 140
1 0 
1 1 
1 2 
1 3 
1 4 
1 5 
1 6 
1 7 
1 8 
1 9 
1 10 
1 11 
1 12 
1 13 
1 14 
1 15 
1 16 
1 17 
1 18 
1 19 
1 20 
1 21 
1 22 
1 23 
1 24 
1 25 
1 26 
1 27 
1 28 
1 29 
1 30 
1 31 
1 32 
1 33 
1 34 
1 35 
1 36 
1 37 
1 38 
1 39 
1 40 
1 41 
1 42 
1 43 
1 44 
1 45 
1 46 
1 47 
1 48 
1 49 
1 50 
1 51 
1 52 
1 53 
1 54 
1 55 
1 56 
1 57 
1 58 
1 59 
1 60 
1 61 
1 62 
1 63 
1 64 
1 65 
1 66 
1 67 
1 68 
1 69 

POINT_DATA 70
FIELD FieldData 7
id 1 70 int
44 388 573 709 290 535 209 292 924 
1401 1391 436 952 1396 212 1507 657 1177 
401 1459 1168 1511 2133 851 911 472 672 
2015 744 732 2287 1777 2611 1632 801 1958 
602 903 1811 2256 3312 3103 2945 2546 2749 
2914 2602 1490 2664 2454 3036 3323 2489 2208 
3042 2824 2301 2676 2199 3144 1971 3260 2149 
3257 2841 2836 2857 2180 2712 3277 
type 1 70 int
2 2 2 2 2 2 2 2 2 
2 2 2 2 2 2 2 2 2 
2 2 2 2 2 2 2 2 2 
2 2 2 2 2 2 2 2 2 
2 2 2 2 2 2 2 2 2 
2 2 2 2 2 2 2 2 2 
2 2 2 2 2 2 2 2 2 
2 2 2 2 2 2 2 
i 3 70 int
0 0 0 0 0 0 0 0 0 
0 0 0 0 0 0 0 0 0 
0 0 0 0 0 0 0 0 0 
0 0 0 0 0 0 0 0 0 
0 0 0 0 0 0 0 0 0 
0 0 0 0 0 0 0 0 0 
0 0 0 0 0 0 0 0 0 
0 0 0 0 0 0 0 0 0 
0 0 0 0 0 0 0 0 0 
0 0 0 0 0 0 0 0 0 
0 0 0 0 0 0 0 0 0 
0 0 0 0 0 0 0 0 0 
0 0 0 0 0 0 0 0 0 
0 0 0 0 0 0 0 0 0 
0 0 0 0 0 0 0 0 0 
0 0 0 0 0 0 0 0 0 
0 0 0 0 0 0 0 0 0 
0 0 0 0 0 0 0 0 0 
0 0 0 0 0 0 0 0 0 
0 0 0 0 0 0 0 0 0 
0 0 0 0 0 0 0 0 0 
0 0 0 0 0 0 0 0 0 
0 0 0 0 0 0 0 0 0 
0 0 0 
v 3 70 double
-3.9467364385e-06 -1.1515683579e-05 -6.1630231996e-06 -7.5420023122e-06 3.6186471183e-06 2.7303864926e-06 3.9185477916e-06 -6.5374355215e-07 2.219792908e-06 
2.2314913855e-05 -1.9243443624e-06 -5.9038464529e-07 2.083075831e-06 3.3539583636e-07 1.4265614909e-06 -1.250032645e-05 -1.0018554705e-05 -9.638928991e-06 
-6.6557147273e-05 4.2740100521e-05 -4.1535763288e-05 2.5811836244e-06 9.8552146585e-06 4.538104243e-06 6.9519721281e-06 5.5375170765e-06 -8.3002285137e-06 
-3.2343509343e-06 -1.6676006716e-06 1.1465013989e-06 6.1802193521e-06 1.2220688788e-07 5.1896530787e-06 1.9438020583e-06 -2.2138489693e-05 -9.8509406157e-08 
1.6376878162e-05 3.717609378e-06 -6.0716133864e-06 6.0934258204e-05 9.381242782e-06 1.996624649e-05 1.7838559558e-05 1.0251460152e-05 7.078030944e-06 
-1.0735124281e-05 -1.1409866505e-05 3.7915885771e-05 1.8085677419e-05 6.7840423422e-07 4.9377319575e-06 -1.6995857153e-06 1.8577857956e-05 -2.189707463e-06 
-5.0909613652e-06 -2.5042129516e-05 1.8307383087e-06 -7.7994288777e-07 1.2336715895e-05 -7.935953966e-06 -9.3565844068e-06 -1.1014759988e-05 4.4939200839e-06 
4.1404632489e-05 -1.6137397273e-05 2.8746992241e-05 -1.4553892857e-05 -1.0554277333e-05 1.8092179815e-05 1.6014020427e-05 1.3806943667e-05 -7.2657045755e-06 
3.3303825688e-05 -5.6621268688e-06 1.5071034907e-05 -1.2058383337e-05 1.1579590395e-06 1.5398355384e-06 -1.4033191683e-05 2.1870760236e-05 1.0242472234e-05 
4.8869979175e-06 6.9016767439e-06 -2.9880481441e-06 -4.9445212917e-06 8.8136904992e-06 3.5523768814e-06 2.0542319378e-05 -1.2792745975e-05 -2.9215037932e-05 
2.0636022695e-05 -6.4032083022e-06 -1.8292934511e-05 -9.3624274676e-07 2.4066583711e-05 -1.9955262237e-05 -7.8192694241e-06 -7.9801826979e-06 -1.387676158e-05 
1.5863495635e-05 -3.6160461925e-06 -8.3994995103e-06 -3.7784589146e-05 -7.0888976927e-06 -1.4606589061e-05 1.8672928164e-06 -1.3303129357e-05 -1.8892270542e-05 
2.707039858e-06 2.401821953e-06 2.2351273214e-05 -2.7273182334e-05 2.4567214316e-05 1.1413998843e-05 1.1280657624e-06 9.3007591589e-06 1.7822228092e-06 
-2.2642831598e-06 -1.0635534979e-06 -6.2197473125e-06 -1.5067141996e-06 -2.1838303666e-06 3.2936972742e-06 -2.3003731746e-06 -3.0117213826e-06 -1.7039954257e-05 
-6.5279411996e-06 -8.627943011e-06 -2.7635612692e-05 1.3314620822e-05 -2.5204312466e-06 -2.998483776e-06 -5.5404237415e-07 -2.2583598364e-06 -1.1972267101e-06 
-1.0632945884e-07 -3.8093470284e-06 2.0690499154e-06 -1.0831122196e-05 3.9712950369e-06 1.504955178e-06 -2.2476921631e-06 -1.0854673502e-05 5.3376334906e-06 
-1.0596081567e-06 9.0905840556e-07 -1.0311183088e-06 5.8100730288e-06 -1.3860747353e-06 4.2421038142e-06 1.5400107001e-05 -1.3042864071e-05 -1.4997149822e-05 
-2.9817581844e-06 -4.1194316437e-07 4.4185831456e-06 -2.2377666297e-05 -1.6141167582e-05 -3.9247651757e-06 -2.7312523973e-06 1.1784879852e-05 3.6132388055e-06 
1.379787559e-06 -6.11722299e-06 1.0538244758e-05 1.0018634218e-06 3.9353075418e-06 4.5445315987e-07 -8.3818418789e-06 1.2049525614e-05 3.218319052e-05 
9.2992858955e-06 2.7333212104e-05 3.2316207431e-05 -1.0172528004e-05 -1.0612736755e-05 -1.8190175802e-06 5.3323942931e-07 -1.4806746518e-05 1.6835588457e-06 
-1.4010748604e-05 -2.0317790821e-06 -3.9126817332e-06 1.5233938448e-06 -1.6709274981e-06 -2.0404123352e-06 -6.4693022904e-08 4.5989579551e-06 2.8896573893e-06 
9.0519019228e-07 1.5516594212e-05 -6.9007617712e-06 1.2482777842e-05 -5.9954632441e-06 -2.2952091768e-06 2.4844376941e-06 4.7019011976e-06 2.1436088206e-07 
3.6562752077e-06 -5.0509308046e-06 -3.3444544575e-07 -1.7572945873e-06 2.0518346772e-06 4.3011514402e-06 1.1089645107e-05 1.0235110084e-05 -7.6367868475e-06 
-2.7622906968e-06 -2.6409472782e-06 -1.9037410814e-06 
f 3 70 double
4.7019584404e-05 1.4048656372e-05 -1.4131937754e-05 -9.5541649393e-06 1.5305366534e-05 9.2468587308e-06 1.0274722969e-05 -1.7610132769e-05 -1.2608426614e-05 
2.6481877959e-05 4.3973456552e-06 1.8518478858e-05 -1.5024687551e-05 -3.4037834667e-07 -2.0571055541e-05 5.5043195878e-05 -2.6302466434e-05 2.1003647676e-05 
4.6257120658e-05 -0.00014597911665 1.960365682e-05 -1.6016038259e-05 4.1312560728e-05 -1.7493986831e-05 -1.2095389826e-06 -1.5492313032e-05 -1.5566341163e-05 
1.209518085e-05 -1.5351007618e-05 1.8679176083e-05 -8.1450598319e-06 1.3173667287e-05 6.8835331463e-06 -1.0890686022e-05 1.6031225446e-05 -2.5916708128e-06 
6.1479159738e-06 -1.7488478732e-05 1.1636117542e-05 -0.00014281123014 -5.0129755647e-05 -2.1111573414e-06 -1.2318465913e-05 -4.5578504584e-06 1.370167286e-05 
-9.2585881527e-06 1.1474159689e-05 2.342814039e-05 3.1420165473e-05 -3.257305452e-06 -1.941288759e-05 -2.1746606422e-05 -2.8148954923e-06 2.8574184685e-05 
9.2179477271e-06 2.0809470819e-05 4.4443614078e-05 -2.2966827693e-05 -1.8195038425e-05 4.2766054893e-05 7.3573613473e-06 2.3110257293e-05 1.5738010878e-06 
1.2997828062e-05 3.0177988764e-06 1.6708185014e-05 1.3524714642e-05 1.1232553352e-05 -6.1617959944e-06 3.2313390418e-06 -1.1866834029e-05 -1.0160391225e-05 
-2.0159710304e-05 4.4131989992e-06 3.6855273985e-06 -5.2196394177e-06 2.6398112019e-05 -2.0463593194e-05 -2.2339402618e-05 7.9319903174e-06 2.6477103869e-05 
4.3474076623e-06 3.2287947168e-05 1.0291382632e-05 -7.8527764412e-06 8.3078073078e-06 3.814876685e-06 -3.3113060882e-05 -1.6100380601e-05 2.1882768795e-05 
5.983883647e-05 -3.0289902475e-05 -1.8735472475e-05 -7.0381026432e-06 -3.9660587679e-05 2.7821860488e-05 -1.6759102066e-05 -5.277185801e-06 -4.3200371231e-06 
-1.1102723392e-05 -7.3819814912e-06 1.1082706089e-05 2.9879812977e-05 -1.0765127685e-05 -0.00011347265754 4.9730558836e-05 -4.8392751534e-05 2.494996781e-05 
8.1295236022e-06 1.0873374402e-05 1.7107384211e-05 1.4604131393e-05 -2.9197452524e-05 9.1315438593e-06 5.6278677432e-06 -1.4116160202e-05 -2.9273636507e-06 
-6.7579091494e-06 -6.284823842e-07 3.4977424205e-06 2.9294206994e-06 -2.1248473227e-06 -4.7888920858e-06 -8.9076032953e-06 8.4108186534e-06 -4.3043328782e-06 
-1.6956365049e-05 3.2291242336e-06 -1.3259127098e-05 2.2507652381e-06 -5.6891336961e-06 -9.1947292376e-07 4.804726862e-06 3.7417466298e-06 2.8840645399e-06 
-5.049930559e-06 3.7129877867e-06 -1.2483995727e-06 -3.2531996265e-06 -5.1253697735e-06 -4.9557451915e-06 -2.8037355667e-07 -4.1519966234e-06 -7.0484968707e-06 
1.1582188626e-06 4.1118212313e-07 -1.3220557139e-07 -1.8486100903e-05 -5.5544042326e-07 1.9492561811e-05 -8.6800829968e-06 3.2781198484e-05 2.4677000992e-05 
4.8485042885e-06 2.4573138702e-05 7.2507634873e-06 -1.5956512157e-05 -9.7200030927e-06 -7.3693578077e-06 -5.2301627469e-06 -4.3252825083e-06 -1.1335995843e-06 
1.0564397093e-05 1.5302441337e-05 2.7162940309e-06 5.1563265435e-06 4.4086138842e-06 -7.7951232465e-06 2.8394749049e-05 4.8259794315e-07 -4.1400023891e-05 
-2.6562147586e-05 -1.6953946635e-05 -2.3791926071e-05 -5.5474465274e-06 1.7803299299e-05 3.5341276955e-05 1.4014132244e-05 -1.1313392242e-05 2.5283335588e-06 
-9.3402154811e-06 3.142509757e-06 1.5852953806e-05 1.1798116268e-06 -1.104497493e-07 -7.9328999392e-06 1.2180323183e-05 2.3564768633e-06 4.4812763417e-06 
1.3529139961e-05 9.0930000054e-06 4.5839724901e-06 -1.4260172652e-05 2.1317628352e-05 1.922918984e-05 3.9744730371e-06 -5.3645175758e-06 -3.4650601543e-06 
1.7239482421e-07 -8.3472524326e-07 6.5189885612e-07 -9.9009935862e-06 -4.0120213121e-07 -2.5362569342e-06 -1.0646098882e-05 1.2673439982e-05 -8.4785459381e-06 
-2.4747258805e-07 -2.0715461624e-06 7.4725020371e-07 
radius 1 70 double
0.003 0.003 0.003 0.003 0.003 0.003 0.003 0.003 0.003 
0.003 0.003 0.003 0.003 0.003 0.003 0.003 0.003 0.003 
0.003 0.003 0.003 0.003 0.003 0.003 0.003 0.003 0.003 
0.003 0.003 0.003 0.003 0.003 0.003 0.003 0.003 0.003 
0.003 0.003 0.003 0.003 0.003 0.003 0.003 0.003 0.003 
0.003 0.003 0.003 0.003 0.003 0.003 0.003 0.003 0.003 
0.003 0.003 0.003 0.003 0.003 0.003 0.003 0.003 0.003 
0.003 0.003 0.003 0.003 0.003 0.003 0.003 
omega 3 70 double
-0.0026735124429 0.0014046071294 -0.00046410990033 0.00016110511554 0.0010936525423 0.00032069697013 0.001050927523 -0.00070256017206 -0.0012062905124 
-0.0014068327756 0.0051215997351 -0.0015288157189 -0.00056743271337 6.2456780973e-05 -0.00018535559826 -0.0093356888072 -0.005815985748 -0.0041179422693 
0.0087527342354 -0.003563313314 0.0011834223648 -0.00082444450804 0.0016052437649 -0.0019855698391 -0.00093369577582 6.5820775873e-05 -9.0133307226e-05 
-0.00034728400583 -0.0010095479763 -0.00081820273676 -0.00064889950352 -0.00027900996462 -1.7062793713e-05 -0.0027334496642 0.0015988419486 0.0013058053917 
-0.00025896056231 -0.000886643769 -0.0015207053356 0.0030975935548 -0.002669512123 0.0012303944183 6.3523503023e-05 -0.003382316693 -0.0048416677718 
-0.011191054538 0.0023241737445 0.0008393990057 -0.0030875637446 0.0018138029152 0.00032492024116 0.0055425666861 0.0048688999585 0.0013112661213 
-0.00046382532548 0.00041115160161 -0.0012245748027 -0.0014685474836 -0.0039350883843 0.0087376136233 -0.00088510065993 -0.00018951563965 0.00094419378171 
0.0023270070844 -0.0021333766235 -0.0016987739969 -0.003875466927 0.00061027137743 -0.0011356505366 -0.0027398451401 0.0021430216319 0.00087543292909 
-0.0070355676087 -0.0042459404589 -0.0002263589437 -0.0001381942604 0.00270878546 -0.0008301593932 0.0033210598988 0.0029364116186 0.00368173069 
-0.0016635306809 -0.001088894364 0.00040602277188 -0.0012045085494 -0.00018669608126 -0.00024601446442 -0.0048686486534 0.0062062648674 0.00089299111855 
-0.00048569133297 0.0034097634032 -0.0017223202342 0.0025649150164 -0.00074231698178 -0.00037847140423 0.0023974107722 0.0031230108211 0.003242145735 
0.0042029573992 0.00046368658797 -0.001556454282 -0.0011722784786 0.0044518590102 0.00046142426213 -0.0047474227786 -0.0027789509037 0.0067394147243 
-0.00018831444858 -0.00018924317234 0.0027914617516 0.0014281479647 0.0026310086872 -0.0035851539192 0.00098319293747 0.00023414897205 0.0013798072147 
-0.00031430035609 0.0045294344031 0.00065967992584 -0.00020737306033 0.0017604423828 -1.5455241612e-05 0.001384228213 -0.0018935595192 -0.00084908172893 
0.00019286312229 0.00038262967901 -0.00019033190944 -0.0015649658789 0.0019582669386 -0.0045290998577 0.0017231595081 -0.00033499951383 0.0015127965655 
0.0029186095347 -0.00080181190918 -0.0029782349703 -0.0047844169079 -0.0065193039321 -0.0050575180815 0.0036987957255 0.0028187643195 0.0014311583088 
0.0021027005404 0.0025257181404 0.0038724804359 0.0026219639756 7.2344989104e-05 0.0012317498433 -0.0017385717288 0.00085027742048 0.0013217638593 
0.00071165002553 -0.0016926691048 -0.003615929338 -0.0048573144314 0.0056397671703 0.00067002728197 0.0032419229284 -0.00012155647193 -0.00071135121838 
0.00049484301057 0.0002353141309 -0.0008095027492 -0.00050099112553 -0.0010922735874 -0.0017398677744 0.00031401000801 0.00035506260468 0.0010565799728 
0.00023112748227 -0.0024834347795 -0.0019769295481 0.0011172924548 0.0019759062123 -0.0017984608454 -0.0023443406448 -0.0010738031724 -0.0018152324898 
-0.00030915329045 0.0022384207695 0.0010797883859 0.00022886193627 -0.00092265429024 -0.00070976023936 -0.00039844052283 0.00023965353791 0.0003488172772 
0.0002765130245 0.00080855753282 -0.0012614373768 0.00060293796467 0.0015977082096 0.00090477852501 0.00053096537753 -0.00044935289936 -0.00027656083659 
-0.0012088332301 -0.00089604789071 -0.0017757577335 0.00091978605129 -0.0010362375198 -0.0017952268661 0.0029376834543 -0.00018462917503 0.00014030718488 
-0.0025759173488 0.00069769256276 -0.0015427814354 
