# vtk DataFile Version 4.2
Generated by LIGGGHTS
ASCII
DATASET POLYDATA
POINTS 70 float
0.00390608 -0.0127354 0.0208431 0.0137253 -0.0122146 0.0208813 -0.0167338 -0.00127367 0.0192038 
-0.0120012 0.00496421 0.0175254 0.00248563 0.00715863 0.0165912 -0.0113633 0.014714 0.0175561 
-0.00414076 0.0108567 0.0166331 0.00592487 0.0147282 0.0192785 0.0130069 0.0108716 0.0185159 
-0.00231624 0.0216877 0.0210141 0.0010534 0.0182833 0.01734 -0.01678 -0.00941866 0.0215699 
-0.013631 -0.00920947 0.0288727 -0.00736795 -0.0152239 0.0284809 0.00843471 -0.0166062 0.0215853 
0.0179949 -0.00884825 0.0259549 -0.0111857 -0.00353043 0.0243574 0.0165763 -0.000456414 0.0217184 
0.0115079 -0.00484205 0.0252485 -0.0104757 0.00232643 0.0255299 -0.00043844 0.00193865 0.0292507 
0.000202514 0.00414226 0.0236682 0.00848365 0.00656509 0.0270503 0.00697632 0.0123166 0.027882 
0.00689103 0.0207316 0.0239663 0.0123172 -0.0181296 0.0313392 -0.00271508 -0.0160136 0.0356323 
-0.0175357 -0.00425903 0.031209 -0.004449 -0.00448045 0.0312901 -0.0138033 0.00533217 0.0330501 
0.00299586 -0.0213216 0.0398814 0.0145493 -0.013059 0.0387319 -0.00672101 -0.00247008 0.0439881 
0.0141093 -0.00623676 0.0428356 -0.0181051 0.00540978 0.0445257 0.01435 0.00442998 0.0452284 
-0.0126564 0.0125366 0.0447237 0.000909031 0.0137965 0.0434204 0.00852411 0.00964058 0.0413404 
0.0162673 0.0141928 0.0424081 0.00642605 0.0206474 0.0429773 -0.00312177 -0.0206572 0.0502747 
0.00778655 -0.0198529 0.0495334 -0.0159862 -0.0106033 0.047076 -0.0073905 -0.0127482 0.0464988 
0.00798149 -0.00900495 0.0504763 0.0104882 -0.0160373 0.045569 0.0166758 -0.00938177 0.0505642 
-0.0200931 -0.00520037 0.0473678 -0.0108275 -0.00617232 0.0465715 -0.0126965 -0.00129251 0.0495365 
-0.00511442 -0.00458358 0.0504172 0.000219512 -0.000467385 0.0472494 0.00251753 -0.00503331 0.0506246 
0.0062659 7.63597e-05 0.0505635 0.0113444 -0.00160312 0.0459838 0.015311 -0.000619058 0.0504026 
-0.0212348 0.00165523 0.049383 -0.0191426 0.00732108 0.0505003 -0.0124669 0.00701548 0.0488861 
-0.00521849 0.00227328 0.0477075 0.020909 0.00227336 0.0502857 -0.0138151 0.012882 0.0506211 
-0.00724139 0.0108201 0.050587 0.000298643 0.00861343 0.0468191 0.00883684 0.0147286 0.050575 
0.0189104 0.00853392 0.0495991 -0.00672942 0.0206681 0.0490466 0.00304083 0.0180077 0.050263 
0.0136968 0.0165769 0.0474786 
VERTICES 70 140
1 0 
1 1 
1 2 
1 3 
1 4 
1 5 
1 6 
1 7 
1 8 
1 9 
1 10 
1 11 
1 12 
1 13 
1 14 
1 15 
1 16 
1 17 
1 18 
1 19 
1 20 
1 21 
1 22 
1 23 
1 24 
1 25 
1 26 
1 27 
1 28 
1 29 
1 30 
1 31 
1 32 
1 33 
1 34 
1 35 
1 36 
1 37 
1 38 
1 39 
1 40 
1 41 
1 42 
1 43 
1 44 
1 45 
1 46 
1 47 
1 48 
1 49 
1 50 
1 51 
1 52 
1 53 
1 54 
1 55 
1 56 
1 57 
1 58 
1 59 
1 60 
1 61 
1 62 
1 63 
1 64 
1 65 
1 66 
1 67 
1 68 
1 69 

POINT_DATA 70
FIELD FieldData 7
id 1 70 int
44 401 3257 801 209 2836 1958 903 292 
2857 602 732 911 212 436 573 709 290 
388 2287 672 535 1777 2611 2180 1391 1507 
2676 472 2199 1401 1490 2914 657 2841 2602 
2664 3312 2149 2489 2712 3036 2301 1971 851 
924 1511 1459 1396 3277 3260 3323 2945 952 
2454 1177 1168 2208 2256 3144 3103 2015 2133 
2546 744 1632 2824 3042 2749 1811 
type 1 70 int
2 2 2 2 2 2 2 2 2 
2 2 2 2 2 2 2 2 2 
2 2 2 2 2 2 2 2 2 
2 2 2 2 2 2 2 2 2 
2 2 2 2 2 2 2 2 2 
2 2 2 2 2 2 2 2 2 
2 2 2 2 2 2 2 2 2 
2 2 2 2 2 2 2 
i 3 70 int
0 0 0 0 0 0 0 0 0 
0 0 0 0 0 0 0 0 0 
0 0 0 0 0 0 0 0 0 
0 0 0 0 0 0 0 0 0 
0 0 0 0 0 0 0 0 0 
0 0 0 0 0 0 0 0 0 
0 0 0 0 0 0 0 0 0 
0 0 0 0 0 0 0 0 0 
0 0 0 0 0 0 0 0 0 
0 0 0 0 0 0 0 0 0 
0 0 0 0 0 0 0 0 0 
0 0 0 0 0 0 0 0 0 
0 0 0 0 0 0 0 0 0 
0 0 0 0 0 0 0 0 0 
0 0 0 0 0 0 0 0 0 
0 0 0 0 0 0 0 0 0 
0 0 0 0 0 0 0 0 0 
0 0 0 0 0 0 0 0 0 
0 0 0 0 0 0 0 0 0 
0 0 0 0 0 0 0 0 0 
0 0 0 0 0 0 0 0 0 
0 0 0 0 0 0 0 0 0 
0 0 0 0 0 0 0 0 0 
0 0 0 
v 3 70 double
0.0042319483448 0.0030380242334 0.018037941891 0.0055119805832 0.0088493357009 0.013602795371 0.00049175447512 0.0037549827381 0.020968786345 
-0.00094926458383 0.0025561483728 0.018386210058 -0.0015206874559 0.0050216811176 0.015132384481 -0.0055321727167 0.00051103357493 0.022509422954 
-0.0029522185534 -0.0006236839066 0.017123316786 -0.006522044536 0.0040461366642 0.014022317343 -0.0038071995321 0.0085441375116 0.019932834026 
-0.014534031671 0.0055822154272 0.015114566552 -0.0079633468944 0.00053484948267 0.016117173935 -0.0039199247881 0.0044996769919 0.020385670352 
0.00047458262718 0.005480201203 0.020327452432 -0.00065255876292 0.0017821365094 0.018762832002 0.004307293962 0.004790745807 0.016735677384 
0.010733564937 0.017565913294 0.0090334616652 0.00032392809408 0.0054672280187 0.021760893245 0.0011663821759 0.01346396765 0.020491843646 
0.0039923921639 0.0075479146255 0.015508591207 0.0004061479846 0.0033801922128 0.020175437672 0.00082979571302 0.0036175641146 0.022808386169 
-0.0044254316348 0.0012059787996 0.017526413833 -0.0020957691352 0.0070817990038 0.023950792282 -0.011938591559 0.00803984585 0.021720909746 
-0.0080103019328 0.0051105610585 0.012667650961 0.016984417554 0.011691983621 0.018979853084 0.0070395324141 0.015407558405 0.037321911692 
-0.0046221028838 0.02107296996 0.027024747095 0.0026439472756 0.0037274751742 0.023918818386 0.019410039368 0.027733320633 0.02690889381 
-0.079451587264 0.081396517404 -0.020762036889 0.090708337824 0.036584057373 0.10751353128 0.088668564877 -0.02203779502 -0.0027247015255 
-0.18376787075 0.027903261386 -0.19589207372 0.040631931212 -0.081132172935 -0.087910525792 0.029837625592 0.25463899802 -0.17323277036 
0.029554561513 -0.12352734394 0.08021156568 0.05584952081 0.094778677012 0.11853875849 -0.11064658442 -0.069555053089 0.08360963118 
-0.10454838174 0.038484763082 0.055632069002 0.06783608075 -0.030867789832 0.096473106791 -0.11130484742 -0.1554216391 -0.31773819053 
-0.1956844762 -0.15685810064 -0.15337261067 0.07655326295 -0.17535640955 0.1361018435 0.097224849195 -0.15658134388 0.080501343286 
0.041297787845 0.12978039413 0.08003964538 0.23597140837 0.22530404922 -0.38739520829 -0.2844662821 -0.037317495158 -0.27819069349 
-0.12228921726 -0.058723932937 0.087757728407 0.017462530593 -0.088642016187 0.057045935059 0.2818976865 -0.059839849142 -0.078876441973 
-0.082297866075 0.048520840467 -0.50524550995 0.13579810108 0.20248950577 -0.15401104269 0.15516416315 -0.022770983194 -0.16825731225 
0.12958394766 0.29642866587 -0.46558452852 -0.016658171467 0.082842386244 0.059225066808 -0.23523105922 0.022463278258 -0.6649006909 
0.03958201218 0.065343208174 -0.021662198627 -0.16374832986 -0.056187882242 0.15221293589 -0.098712446206 0.013285419583 -0.47108099513 
-0.036488226463 0.072477669821 -0.35687552601 0.076026069856 0.17114753716 0.066307082285 -0.0084715032103 -0.29760063918 -0.26724009987 
-0.13930044507 0.18133277771 -0.054221017042 0.18429451832 -0.1168859125 -0.020471460696 -0.10049242601 -0.27192872099 -0.23132485467 
-0.03635786107 -0.02471201832 -0.050923276206 -0.2026580351 -0.1521663437 -0.1648536297 0.079456310326 -0.039581820582 -0.16545236407 
0.23236394728 -0.17991928591 -0.32259485513 
f 3 70 double
0 0 -0.00027737121539 0 0 -0.00027737121539 0 0 -0.00027737121539 
-0.00010952003807 -9.1586130076e-05 -0.00034167939821 0 0 -0.00027737121539 0 0 -0.00027737121539 
-8.0172593158e-05 -0.00012268712276 -0.000257789033 0.00030768359962 0.00041686072158 -0.00046280510803 0.00022260566972 -0.00014855189422 -0.00031294603574 
0.00020334911419 0.00096884587298 -0.00072367155277 1.0909432729e-05 4.6905045356e-05 -0.00036255998751 -1.1908373051e-05 2.3627105619e-05 -0.00029735927444 
0 0 -0.00027737121539 0 0 -0.00027737121539 0 0 -0.00027737121539 
0 0 -0.00027737121539 -8.84688344e-06 -4.8525005296e-07 -0.00028523722039 0 0 -0.00027737121539 
0.00014800525675 0.00094934878556 -3.5788706642e-05 4.942752817e-05 3.6442218071e-07 -0.00021451375148 0 0 -0.00027737121539 
0 0 -0.00027737121539 0 0 -0.00027737121539 0 0 -0.00027737121539 
-6.9656234735e-05 4.3349425791e-05 -0.00028759531032 0 0 -0.00027737121539 0 0 -0.00027737121539 
0 0 -0.00027737121539 0 0 -0.00027737121539 0 0 -0.00027737121539 
0.0059515330796 0.0014827952922 0.0032631062813 0 0 -0.00027737121539 0 0 -0.00027737121539 
0 0 -0.00027737121539 0 0 -0.00027737121539 0 0 -0.00027737121539 
0 0 -0.00027737121539 0 0 -0.00027737121539 0 0 -0.00027737121539 
0 0 -0.00027737121539 0 0 -0.00027737121539 0 0 -0.00027737121539 
0 0 -0.00027737121539 0 0 -0.00027737121539 0 0 -0.00027737121539 
0 0 -0.00027737121539 0 0 -0.00027737121539 0 0 -0.00027737121539 
0 0 -0.00027737121539 0 0 -0.00027737121539 0 0 -0.00027737121539 
0 0 -0.00027737121539 0 0 -0.00027737121539 0 0 -0.00027737121539 
0 0 -0.00027737121539 0 0 -0.00027737121539 0 0 -0.00027737121539 
0 0 -0.00027737121539 0 0 -0.00027737121539 0 0 -0.00027737121539 
0 0 -0.00027737121539 0 0 -0.00027737121539 0 0 -0.00027737121539 
-1.2969653494e-05 0.00019984495543 0.00014947740382 0 0 -0.00027737121539 0 0 -0.00027737121539 
0 0 -0.00027737121539 0 0 -0.00027737121539 0 0 -0.00027737121539 
0 0 -0.00027737121539 
radius 1 70 double
0.003 0.003 0.003 0.003 0.003 0.003 0.003 0.003 0.003 
0.003 0.003 0.003 0.003 0.003 0.003 0.003 0.003 0.003 
0.003 0.003 0.003 0.003 0.003 0.003 0.003 0.003 0.003 
0.003 0.003 0.003 0.003 0.003 0.003 0.003 0.003 0.003 
0.003 0.003 0.003 0.003 0.003 0.003 0.003 0.003 0.003 
0.003 0.003 0.003 0.003 0.003 0.003 0.003 0.003 0.003 
0.003 0.003 0.003 0.003 0.003 0.003 0.003 0.003 0.003 
0.003 0.003 0.003 0.003 0.003 0.003 0.003 
omega 3 70 double
0.56469483535 1.7265364504 -0.11602282026 0.60542288284 0.095342849706 0.18318806289 -0.77581808209 -0.36198423356 -0.12805483442 
-0.057673170888 -0.64783225305 0.56363928949 -0.30190095142 0.036420776983 0.51114061899 -0.4036487458 0.22180278776 -1.1463282015 
-0.17141814809 -0.18027670514 -0.1461709287 1.1325415103 -0.66868686698 0.23414948767 -0.31422958637 -0.91055776686 0.2546822309 
0.23400269892 -0.11779095294 0.037305663746 -0.16531698515 -0.35039641582 0.069934126166 -0.27139371471 -0.9675235633 -0.090737670812 
-1.811094062 -0.5657287479 -1.1721494733 1.1666924229 1.1018954085 1.7240569352 -0.13339643868 1.4943200374 0.41984254146 
1.0850219762 -0.98517312468 1.5179519458 0.045774011036 0.1705579206 -0.0020707397428 0.34744278814 -0.53235938403 0.67457370478 
0.22874282777 -0.46894122229 0.27712919787 -0.53871784076 1.1891995855 -0.9621026519 0.43896442336 0.26107043126 -0.62102595958 
0.75676113627 0.24932872564 0.52480218739 -0.017324215008 -1.7568586966 1.0940433407 -0.67872706326 1.1041628414 0.6992495367 
0.6225288133 1.5754184882 -1.6153230027 1.7774150537 -0.053252747125 0.41166250472 -4.9234318346 1.2147709948 -0.19655034453 
-1.6475892941 0.74179673837 -4.3511616605 1.2156933406 -0.56222594419 0.17740055815 0.42778558494 0.74368718686 1.4383303485 
-33.510734525 -21.316603432 30.117328499 -0.48111875384 9.9654605216 -0.77112896138 31.052821736 -9.8288314811 28.278908714 
20.537285073 -53.244790299 13.86319731 -35.527340188 -13.962017318 -13.664114323 4.3291137826 44.124656843 5.5773243038 
17.196167584 -11.57537841 43.121768352 3.8733356114 -5.1295122337 31.041427126 7.3053919772 -13.761481838 -1.6588797987 
-0.71249336683 -23.945359525 1.1194880434 7.1171279765 12.049967148 -12.23594187 22.361256366 -48.282506312 55.249227812 
47.841599619 -94.100291044 25.392164034 -12.693691806 28.432594386 15.815807698 -44.429850629 -23.479272902 -4.597683715 
-4.9619833837 -3.2862682262 -21.007532125 90.116355524 -43.013985852 -38.000057084 23.332920597 -4.648815564 -0.47664344488 
-35.901735391 -3.82438437 11.317557418 -4.4653755004 -2.4838283659 3.072473471 31.932415573 7.0828085875 48.265759095 
-34.922095191 -54.008690143 -81.684845028 38.387007597 17.011201437 -16.819229178 49.653185294 -48.128259409 -17.07754594 
-1.6365704159 -5.1503537672 55.045142598 -60.300343779 24.652568385 -1.802894506 -0.084672637238 -0.11182372386 4.7291154951 
-55.097456898 37.328388089 -26.825320825 52.926788049 -33.248295664 8.4218073258 -33.922411842 -54.683737853 25.852132256 
15.807926688 37.314693253 14.389823231 38.622134704 -3.6142018068 -11.382766928 36.912800792 -32.023192013 -10.157925613 
107.24978186 -26.674381197 24.298965645 23.730773514 -19.694728759 0.26998656792 25.613503864 -50.06381691 -36.152443446 
27.293476614 47.934451667 16.239288815 9.4164876184 20.786614487 -7.2088103829 8.9547357846 -7.5393885491 -66.144918253 
47.690821431 -53.335692245 -3.1121099161 
