# vtk DataFile Version 4.2
Generated by LIGGGHTS
ASCII
DATASET POLYDATA
POINTS 70 float
0.00553893 -0.0411841 0.0430533 0.00867471 -0.0306562 0.0419811 -0.0364521 -0.0201803 0.0366426 
-0.00141285 -0.0275913 0.0427737 0.0143746 -0.0203644 0.0391032 0.023814 -0.0238749 0.0408644 
-0.0253073 -0.0194141 0.0382222 -0.0103295 -0.0199013 0.0428888 0.00472189 -0.017568 0.0379338 
0.0141752 -0.0105987 0.0413901 0.0248402 -0.0128114 0.0425755 0.0306442 -0.0124633 0.0334471 
-0.02791 -0.0084555 0.0375878 -0.00660749 -0.00185598 0.043002 -0.0264066 0.00641659 0.0412183 
-0.0157078 0.0168243 0.0343896 0.00274322 0.012688 0.0332521 0.0105449 0.0109414 0.0415603 
0.0227616 0.0126602 0.0391235 0.0327455 0.0104403 0.0379925 -0.0216784 0.0292293 0.0406723 
0.0116098 0.02696 0.0353117 0.0221354 0.0272613 0.0361637 0.0322811 0.0202197 0.033607 
-0.00488203 0.0321672 0.0350591 0.0116765 0.0389709 0.035349 -0.0245404 -0.0303694 0.0530163 
-0.017444 -0.0380896 0.0519731 -0.00582436 -0.0375194 0.0460574 0.0159001 -0.0377497 0.0467028 
0.0320838 -0.0263159 0.0501994 -0.018941 -0.0109931 0.0451821 0.0123629 -0.0133046 0.0534441 
0.0351461 -0.0112252 0.0446749 -0.0256458 -0.00363408 0.052526 0.00341382 -0.00397414 0.0447785 
0.0250103 -0.00096758 0.0433422 -0.041222 0.00781982 0.0465789 -0.0164948 0.00719394 0.0492726 
-0.0090387 0.000504684 0.053157 0.00111061 0.00618858 0.0474169 0.0186487 0.00775082 0.0484857 
0.0400888 0.00298478 0.0500059 -0.0180923 0.0192653 0.0508996 -0.00666083 0.012804 0.044555 
0.0226261 0.0176745 0.0532097 0.0299402 0.0109378 0.0508315 -0.0305305 0.0226775 0.0468821 
0.0038658 0.0266846 0.0441775 0.0147704 0.0244008 0.0489563 -0.0124301 0.031502 0.0446782 
0.00832217 0.0377649 0.0474219 0.0222509 0.0323231 0.0459355 0.00733385 -0.0224564 0.0586714 
0.0188887 -0.0230799 0.0558014 -0.0347842 -0.0123652 0.0559682 -0.00587413 -0.0166237 0.0545569 
0.0307721 -0.0114483 0.0589518 0.0185909 -0.00582258 0.0583647 -0.0334421 0.00357222 0.0646432 
0.0398828 0.00148259 0.062273 0.0114252 0.0171437 0.0589224 0.031742 0.0144172 0.0600999 
-0.0328895 0.022573 0.0580312 -0.00288783 0.0207735 0.0541548 -0.0262183 0.0327269 0.0627083 
-0.0001704 0.0349773 0.0560373 -0.0155961 -0.0358389 0.0710535 0.00752199 -0.0127345 0.0653518 
-0.0165359 0.0223691 0.0656966 
VERTICES 70 140
1 0 
1 1 
1 2 
1 3 
1 4 
1 5 
1 6 
1 7 
1 8 
1 9 
1 10 
1 11 
1 12 
1 13 
1 14 
1 15 
1 16 
1 17 
1 18 
1 19 
1 20 
1 21 
1 22 
1 23 
1 24 
1 25 
1 26 
1 27 
1 28 
1 29 
1 30 
1 31 
1 32 
1 33 
1 34 
1 35 
1 36 
1 37 
1 38 
1 39 
1 40 
1 41 
1 42 
1 43 
1 44 
1 45 
1 46 
1 47 
1 48 
1 49 
1 50 
1 51 
1 52 
1 53 
1 54 
1 55 
1 56 
1 57 
1 58 
1 59 
1 60 
1 61 
1 62 
1 63 
1 64 
1 65 
1 66 
1 67 
1 68 
1 69 

POINT_DATA 70
FIELD FieldData 7
id 1 70 int
364 281 821 1606 286 982 148 1068 936 
1936 1038 1510 447 801 2083 1780 1286 2075 
1176 535 1192 1064 1489 1515 668 183 810 
257 1231 153 22 1983 1562 1435 2092 546 
739 1335 1478 1685 355 599 858 1258 1721 
1350 1230 1240 1822 2126 1148 522 1605 1010 
1646 1100 657 1546 1450 2095 722 962 851 
2101 82 318 348 224 1857 1962 
type 1 70 int
2 2 2 2 2 2 2 2 2 
2 2 2 2 2 2 2 2 2 
2 2 2 2 2 2 2 2 2 
2 2 2 2 2 2 2 2 2 
2 2 2 2 2 2 2 2 2 
2 2 2 2 2 2 2 2 2 
2 2 2 2 2 2 2 2 2 
2 2 2 2 2 2 2 
i 3 70 int
0 0 0 0 0 0 0 0 0 
0 0 0 0 0 0 0 0 0 
0 0 0 0 0 0 0 0 0 
0 0 0 0 0 0 0 0 0 
0 0 0 0 0 0 0 0 0 
0 0 0 0 0 0 0 0 0 
0 0 0 0 0 0 0 0 0 
0 0 0 0 0 0 0 0 0 
0 0 0 0 0 0 0 0 0 
0 0 0 0 0 0 0 0 0 
0 0 0 0 0 0 0 0 0 
0 0 0 0 0 0 0 0 0 
0 0 0 0 0 0 0 0 0 
0 0 0 0 0 0 0 0 0 
0 0 0 0 0 0 0 0 0 
0 0 0 0 0 0 0 0 0 
0 0 0 0 0 0 0 0 0 
0 0 0 0 0 0 0 0 0 
0 0 0 0 0 0 0 0 0 
0 0 0 0 0 0 0 0 0 
0 0 0 0 0 0 0 0 0 
0 0 0 0 0 0 0 0 0 
0 0 0 0 0 0 0 0 0 
0 0 0 
v 3 70 double
0.061067954888 -0.078794985451 -0.34390304628 0.055875082814 -0.035035572511 -0.4033174865 0.036955879819 0.074323329154 -0.39901250805 
0.039480543552 -0.076837499283 -0.37491488358 -0.045518540269 -0.0097296937793 -0.3927888026 0.02064620844 0.044526959774 -0.38022772351 
0.014374269256 -0.10683619559 -0.41113218046 0.087069720731 -0.12398757089 -0.40745139002 -0.0089572624231 0.066234635537 -0.42781178971 
-0.029578393692 0.041422123994 -0.3047372759 -0.00043216794831 0.12324905435 -0.34136508468 -0.017766201627 -0.45469623264 0.034275359993 
-0.058005076289 -0.029841228672 -0.4144699185 0.10638547574 0.096606633115 -0.40121602629 0.023377091808 0.028981324882 -0.38843466018 
-0.069928992692 -0.0094523857372 -0.43333279002 -0.090650344354 -0.19155372046 -0.48226744112 -0.017735865374 -0.020089147963 -0.3836749966 
-0.09496193717 -0.051532783051 -0.37875253446 0.0072101560775 0.07324889328 -0.35892977186 -0.021604802954 0.022309264695 -0.34254097251 
-0.15779353371 0.045490249191 -0.41286454961 -0.038902339307 0.036640505391 -0.39970894884 0.057842909277 -0.1331698755 0.032051264113 
0.014757134558 -0.054794830228 -0.48756940717 -0.11558598686 -0.10008118792 -0.39085335639 -0.041598128135 0.051320265827 -0.24772095014 
0.049361910364 -0.078387403104 -0.2938832707 -0.066555343001 0.016917875485 -0.39419122966 -0.077682567983 0.043527383587 -0.32695295935 
-0.11728265324 -0.11773052448 -0.36240431812 -0.18961207867 0.067805243888 -0.45606546478 -0.039887505182 -0.047124344798 -0.30757809478 
-0.083732148737 0.014471531668 -0.35871123701 0.074567982471 -0.060731270949 -0.28269210844 0.12474016531 0.045582617517 -0.32446993257 
-0.036021321654 0.044599467596 -0.38255458491 -0.048664940885 0.079562892047 -0.26091645977 0.014050728558 -0.18082434596 -0.31777716612 
0.10778063825 -0.063229693976 -0.35728862901 -0.028840073728 0.0036797055645 -0.30669334564 0.0022244250746 -0.020984510396 -0.30806750859 
-0.039847214918 0.019829706638 -0.20023736971 0.19631352515 -0.028833247378 -0.39000820485 0.039780225133 0.10935073853 -0.34752211497 
-0.014800020041 0.042028788093 -0.32886169384 -0.0046770802243 -0.11403145592 -0.28820023529 -0.00024044254509 -0.007452718268 -0.37277462709 
-0.083735744867 0.061533147447 -0.39567854162 -0.027064158668 0.15142762472 -0.33548982989 0.011189853244 0.19755484842 -0.36656773352 
-0.055805598272 0.11479435446 -0.37893767562 0.15908945533 -0.08318669596 -0.40914073573 -0.064548346161 0.21135845449 -0.21899346179 
-0.027565533933 0.050109546206 -0.28126503317 0.12327691511 -0.011173868823 -0.21427540629 -0.056768727928 -0.023496621769 -0.24676746719 
0.017827997767 -0.11490255054 -0.24420307011 -0.050478928204 0.0051335214712 -0.20296913141 0.13023683449 0.1008917799 -0.1586254468 
0.035619271044 0.088763943995 -0.20526417658 -0.018378450285 0.085923034619 -0.28738429755 0.15142344375 -0.068750556556 -0.41360058543 
0.20692702634 0.11437765301 -0.25091176687 0.0080088805804 -0.16768009057 -0.3692045161 -0.02584419542 -0.101813533 -0.025058829452 
0.12588034792 -0.12522465304 -0.20178010219 -0.21534132421 -0.091169338247 0.04777323472 0.3642115342 -0.12634070953 -0.20323188526 
-0.037490954775 0.091726289362 -0.10333153559 
f 3 70 double
0 0 -0.0012841259972 0 0 -0.0012841259972 0 0 -0.0012841259972 
0 0 -0.0012841259972 0 0 -0.0012841259972 0 0 -0.0012841259972 
0 0 -0.0012841259972 0 0 -0.0012841259972 0.0025138697611 0.0031499070961 -0.0010742612522 
0 0 -0.0012841259972 0 0 -0.0012841259972 0 0 -0.0012841259972 
0 0 -0.0012841259972 0 0 -0.0012841259972 0 0 -0.0012841259972 
0 0 -0.0012841259972 0 0 -0.0012841259972 0 0 -0.0012841259972 
0 0 -0.0012841259972 0 0 -0.0012841259972 0 0 -0.0012841259972 
0 0 -0.0012841259972 0 0 -0.0012841259972 0 0 -0.0012841259972 
0 0 -0.0012841259972 0 0 -0.0012841259972 0 0 -0.0012841259972 
0 0 -0.0012841259972 0 0 -0.0012841259972 0 0 -0.0012841259972 
0 0 -0.0012841259972 0 0 -0.0012841259972 0 0 -0.0012841259972 
0 0 -0.0012841259972 0 0 -0.0012841259972 0 0 -0.0012841259972 
0 0 -0.0012841259972 0 0 -0.0012841259972 0 0 -0.0012841259972 
0 0 -0.0012841259972 0 0 -0.0012841259972 0 0 -0.0012841259972 
0 0 -0.0012841259972 0 0 -0.0012841259972 0 0 -0.0012841259972 
0 0 -0.0012841259972 0 0 -0.0012841259972 0 0 -0.0012841259972 
0 0 -0.0012841259972 0 0 -0.0012841259972 0 0 -0.0012841259972 
0 0 -0.0012841259972 0 0 -0.0012841259972 0 0 -0.0012841259972 
0 0 -0.0012841259972 0 0 -0.0012841259972 0 0 -0.0012841259972 
0 0 -0.0012841259972 0 0 -0.0012841259972 0 0 -0.0012841259972 
0 0 -0.0012841259972 0 0 -0.0012841259972 0 0 -0.0012841259972 
0 0 -0.0012841259972 0 0 -0.0012841259972 0 0 -0.0012841259972 
0 0 -0.0012841259972 0 0 -0.0012841259972 0 0 -0.0012841259972 
0 0 -0.0012841259972 
radius 1 70 double
0.005 0.005 0.005 0.005 0.005 0.005 0.005 0.005 0.005 
0.005 0.005 0.005 0.005 0.005 0.005 0.005 0.005 0.005 
0.005 0.005 0.005 0.005 0.005 0.005 0.005 0.005 0.005 
0.005 0.005 0.005 0.005 0.005 0.005 0.005 0.005 0.005 
0.005 0.005 0.005 0.005 0.005 0.005 0.005 0.005 0.005 
0.005 0.005 0.005 0.005 0.005 0.005 0.005 0.005 0.005 
0.005 0.005 0.005 0.005 0.005 0.005 0.005 0.005 0.005 
0.005 0.005 0.005 0.005 0.005 0.005 0.005 
omega 3 70 double
-10.131161844 14.57855283 -8.8976038713 -14.921127513 -3.3881926831 -7.7236271499 -2.7881095574 -1.3597112668 0.70452680382 
39.446416579 9.1322913064 12.557610339 18.664111791 -10.857951145 6.8381355011 -11.224682033 -5.3922243638 0.66970176191 
-1.3558107679 6.9225357736 12.348840538 0.25058007452 -22.138059736 20.109574259 -20.668341743 17.622757571 -1.3917147219 
5.3691047385 -3.0545740228 -6.5609257563 -10.44165823 32.792799679 -12.152086609 27.431406869 3.7262905334 -16.472108487 
-1.7677953433 -1.7392382207 3.8985819841 29.463008901 13.663138534 20.614771386 8.4156830778 11.468658963 7.4810741851 
16.821904904 -5.7296866133 2.2572161615 -2.674862615 -12.392685779 6.2509392027 18.123076225 -9.6881299873 8.6793405869 
-6.3712003306 -1.7776979208 15.041384727 -12.962541838 -5.5605812502 3.9696098308 -5.3587225157 -5.1211104467 4.9004899313 
-4.602284593 4.0440214365 -6.6711796397 -21.271609778 -10.051637537 2.4956268672 15.697428288 2.8620780744 10.156638313 
6.1478747431 -26.635719906 -11.031251098 -1.3675121302 1.2687244117 -1.9885156412 -14.686249722 20.449647941 -16.356751768 
6.8188130357 19.044661548 -0.21638165838 29.235216075 -30.460292317 3.292695577 -9.98142638 -13.213944707 -20.922040839 
-8.1797782365 8.1682677493 -11.654871766 -22.89514343 -6.0110215603 30.752805011 14.489751733 6.9470015998 12.078080979 
18.096116132 -22.193142761 5.053083575 8.620140748 5.0658118086 -12.517216023 -19.270950813 -10.705298803 5.0820479697 
-8.3334718746 17.379660037 -8.0301577933 -3.9883628905 5.8230609881 7.6271790583 26.592557231 30.248296287 11.582837912 
17.498463125 42.842073886 13.122130266 10.87300063 1.3451592014 -2.9586963155 0.79979596175 -4.824505361 -1.5238242147 
16.247484889 -14.49391712 5.1167423409 26.644285989 38.218690736 -53.878032233 -19.842967961 5.8822458932 -7.4135095116 
10.800085206 16.09142482 -9.1489260356 -32.3534493 -19.289681404 -7.6851571541 -10.309162862 8.7328776076 -8.5239539869 
-32.189720482 10.107347822 13.073108856 22.072453061 -23.000805699 5.7329163065 -7.6933197601 17.283971255 31.181598109 
28.539762205 -5.3720332327 -21.666898317 -24.827242927 -20.065900785 -10.52244287 -37.048541286 -2.1677261893 -9.8431725619 
10.158142022 -7.5129183616 0.093780047655 -10.124947854 -12.802213239 7.6482400433 -7.4079786653 18.181618568 4.8129897069 
0.52840995935 -5.2049697748 -22.963515246 14.789360438 -0.38982677159 8.6687017658 -15.69188171 22.054848888 -15.768206035 
8.9834834942 -0.8080757636 -4.200079703 22.296362744 8.3393595142 -19.68903022 6.2363648297 4.1607070048 9.4357844649 
10.340037076 -11.468688459 -33.207158012 37.112253766 44.995840264 17.639844787 14.717959721 -8.3648071736 3.7244833902 
-6.6031017971 -6.9333523416 9.7018415306 41.000706132 -74.291604335 -18.975333637 -37.486507689 -6.32094144 -12.609372364 
16.020154109 -7.2412237741 44.845345574 
