# vtk DataFile Version 4.2
Generated by LIGGGHTS
ASCII
DATASET POLYDATA
POINTS 70 float
-0.00795813 -0.0412426 0.0291063 0.0107442 -0.04056 0.028204 -0.0173705 -0.0382037 0.0305797 
0.00663592 -0.031147 0.029559 0.0165882 -0.0321118 0.029702 -0.0344365 -0.0218754 0.0267638 
-0.0283721 -0.0299035 0.0282145 -0.0184699 -0.0272704 0.029253 -0.00777845 -0.026234 0.0307586 
0.00397666 -0.0223006 0.033389 0.0124069 -0.0203109 0.0283915 0.0218145 -0.0235263 0.0294671 
0.0311101 -0.0268017 0.0311588 -0.0395114 -0.0141191 0.0305166 -0.0262406 -0.0169071 0.0296172 
-0.0140658 -0.0183957 0.0306106 -0.00177975 -0.0112887 0.0295124 0.0186074 -0.0106508 0.0299006 
0.029697 -0.0102792 0.0301825 0.039396 -0.0144701 0.031628 -0.0289799 -0.00729478 0.0299301 
-0.0186669 -0.00247988 0.0325187 -0.00969874 -0.00520127 0.0290309 0.00818327 -0.00831917 0.0303136 
0.00152489 -0.000871159 0.0307507 0.018036 -0.000715887 0.0308859 -0.0405269 0.0034385 0.0291901 
-0.0310578 0.00314043 0.0323911 -0.0226617 0.00934654 0.0286431 -0.00945895 0.00709051 0.0284771 
0.0120585 0.00878389 0.0303774 0.0274776 0.00493128 0.0299721 0.040805 0.00972545 0.0315667 
-0.0337512 0.0110303 0.0268689 -0.0380994 0.0176129 0.0330139 -0.0225653 0.0174234 0.0345383 
-0.0139082 0.0160234 0.0297326 0.00182145 0.0157823 0.0319728 0.0283018 0.0160663 0.0292816 
0.0200421 0.0133976 0.034247 -0.0297903 0.021128 0.028701 -0.018358 0.0257466 0.0309298 
-0.00861779 0.0251619 0.028742 0.00923698 0.0225242 0.0307509 0.0191183 0.0220361 0.0292949 
0.0344527 0.0239073 0.0302825 -0.0250224 0.0337374 0.029655 -0.0143322 0.0394024 0.0273776 
-0.00968135 0.0335751 0.0340416 -0.000411438 0.0308411 0.0314742 0.0169749 0.0379712 0.0270274 
0.00935874 0.0322499 0.0330736 0.0256114 0.030357 0.029324 -0.00297332 0.0416574 0.0298925 
-0.0244306 -0.0341322 0.0363743 -0.0323326 -0.0250511 0.0360098 0.0126884 -0.0260134 0.0366013 
-0.0139191 -0.0103234 0.036511 0.0124853 -0.0147183 0.036681 0.0278563 -0.0184657 0.0356222 
-0.0377779 -0.0048744 0.034021 0.0019095 -0.00767015 0.0380736 -0.040979 0.00910787 0.0374152 
-0.0160128 0.00795079 0.0359808 -0.00667626 0.00121795 0.0360777 0.00415559 0.00705233 0.0362549 
-0.00683799 0.0129847 0.0361183 -0.0310186 0.028317 0.0355426 0.0263354 0.0230744 0.0361386 
-0.018571 0.0375828 0.0362573 
VERTICES 70 140
1 0 
1 1 
1 2 
1 3 
1 4 
1 5 
1 6 
1 7 
1 8 
1 9 
1 10 
1 11 
1 12 
1 13 
1 14 
1 15 
1 16 
1 17 
1 18 
1 19 
1 20 
1 21 
1 22 
1 23 
1 24 
1 25 
1 26 
1 27 
1 28 
1 29 
1 30 
1 31 
1 32 
1 33 
1 34 
1 35 
1 36 
1 37 
1 38 
1 39 
1 40 
1 41 
1 42 
1 43 
1 44 
1 45 
1 46 
1 47 
1 48 
1 49 
1 50 
1 51 
1 52 
1 53 
1 54 
1 55 
1 56 
1 57 
1 58 
1 59 
1 60 
1 61 
1 62 
1 63 
1 64 
1 65 
1 66 
1 67 
1 68 
1 69 

POINT_DATA 70
FIELD FieldData 7
id 1 70 int
1563 1872 886 1405 973 586 205 1075 1933 
1767 2109 1616 2156 112 1692 2012 1092 716 
1004 1924 1267 466 28 1535 340 2714 681 
2266 1144 1508 1449 421 249 907 1100 2701 
373 2735 1627 474 2586 2432 805 1642 197 
2527 1150 1400 1894 455 2724 1244 2199 1296 
2779 1364 2556 1964 2721 307 2111 1614 2389 
2039 733 369 2331 1331 1956 1752 
type 1 70 int
2 2 2 2 2 2 2 2 2 
2 2 2 2 2 2 2 2 2 
2 2 2 2 2 2 2 2 2 
2 2 2 2 2 2 2 2 2 
2 2 2 2 2 2 2 2 2 
2 2 2 2 2 2 2 2 2 
2 2 2 2 2 2 2 2 2 
2 2 2 2 2 2 2 
i 3 70 int
0 0 0 0 0 0 0 0 0 
0 0 0 0 0 0 0 0 0 
0 0 0 0 0 0 0 0 0 
0 0 0 0 0 0 0 0 0 
0 0 0 0 0 0 0 0 0 
0 0 0 0 0 0 0 0 0 
0 0 0 0 0 0 0 0 0 
0 0 0 0 0 0 0 0 0 
0 0 0 0 0 0 0 0 0 
0 0 0 0 0 0 0 0 0 
0 0 0 0 0 0 0 0 0 
0 0 0 0 0 0 0 0 0 
0 0 0 0 0 0 0 0 0 
0 0 0 0 0 0 0 0 0 
0 0 0 0 0 0 0 0 0 
0 0 0 0 0 0 0 0 0 
0 0 0 0 0 0 0 0 0 
0 0 0 0 0 0 0 0 0 
0 0 0 0 0 0 0 0 0 
0 0 0 0 0 0 0 0 0 
0 0 0 0 0 0 0 0 0 
0 0 0 0 0 0 0 0 0 
0 0 0 0 0 0 0 0 0 
0 0 0 
v 3 70 double
-4.9016156442e-07 2.0694386619e-07 -3.6085224801e-07 -3.7360120081e-07 -2.8307493799e-07 3.3264813974e-07 -1.0062482627e-06 3.4980354321e-07 -5.3460704401e-07 
2.7026461215e-07 2.9927154073e-07 -5.4540748333e-07 2.482269882e-07 -1.3485700287e-08 -5.8517341241e-07 -1.5932358396e-06 6.2473932517e-06 -1.3363727605e-06 
-8.6575400936e-07 3.5087493853e-07 2.2423460914e-07 1.8647225524e-07 3.3856884701e-07 -3.1735876228e-09 -8.0854246744e-07 4.5984924849e-07 7.0469219045e-07 
4.0498225984e-07 4.2243102525e-07 -9.249088511e-07 -6.4833100256e-08 1.5753904855e-07 1.9576170559e-09 2.5567619081e-08 -2.5887839076e-07 -1.6562011605e-07 
-2.0244939744e-07 -6.5053106175e-07 -1.0099293295e-08 -1.2002582701e-06 5.022157027e-06 -1.8174961934e-06 8.3189925549e-07 2.3027128234e-07 7.4417894009e-07 
-5.9249421324e-09 -8.6300346075e-07 -1.8131213188e-07 1.6508616353e-07 2.5246229414e-07 1.3399490108e-07 7.4547539554e-08 -1.6709003189e-07 -4.4390425698e-07 
3.5136330916e-07 3.5053157953e-07 5.6789160585e-07 -1.0741032125e-07 -1.3406032683e-08 4.4533647972e-07 1.7623342408e-07 8.4263412816e-07 2.5808632827e-07 
-3.9288963854e-07 -5.8960631878e-07 -5.6301230262e-07 -5.5993212646e-07 1.0017986061e-06 4.3563379723e-07 6.5002699544e-07 -1.008241682e-06 -2.7007251821e-07 
-5.8636745185e-07 -4.0293191336e-07 9.1315475474e-07 -2.006296367e-07 -4.5623086866e-07 6.0990698132e-07 -8.1555111994e-07 -1.0516319255e-06 -5.3064770897e-07 
-4.9445707527e-07 -1.8090202735e-06 -2.5227896666e-06 1.1645578296e-07 1.8210855746e-07 -2.9121904368e-07 -1.8283867537e-07 -2.6542888149e-07 -1.4665200425e-07 
2.9951604189e-07 -7.0316048247e-07 2.2223350538e-07 4.8494677178e-07 1.2743242122e-07 2.826199288e-07 -2.5326094678e-07 9.5860897313e-07 -1.3230836932e-06 
-1.9745098379e-07 -2.8725999995e-07 4.2393792967e-08 -1.6189797084e-07 -3.5074402768e-09 -4.6563168164e-07 -4.068099805e-07 1.8885479604e-07 1.857796872e-07 
-6.8069179007e-07 -5.4938008609e-07 3.9334984822e-09 -3.493204847e-07 -1.5422041312e-07 -6.1260610952e-07 -3.3808070439e-07 2.1663614907e-06 1.0865820397e-06 
5.1159051035e-07 -2.3909577647e-07 -9.1169721818e-07 -8.9569999388e-08 -2.4247018439e-07 1.9039331544e-07 -3.2742464123e-07 -1.4871702536e-07 2.3103784655e-07 
-2.6498399656e-07 -3.0253426238e-07 2.4544945421e-07 -1.0872387302e-08 -3.7442222099e-07 1.9110698623e-08 -1.4643175866e-07 -7.6943072805e-08 9.2115144779e-08 
2.7277655996e-07 1.043886946e-07 -1.6388839655e-07 -2.1925839399e-07 -4.0779119008e-07 2.6239547675e-08 -1.8764189745e-07 -1.8740297879e-07 3.2858561307e-07 
-3.6233512661e-07 -3.4434145687e-07 -5.5832245202e-07 -5.2973254011e-07 4.1594528392e-07 -5.4824057839e-07 -3.006913376e-08 4.9324527155e-08 -2.2741167368e-07 
-4.9932736449e-08 -5.4436170386e-08 -1.7322271553e-07 -9.5847925992e-08 1.1064111014e-07 1.7147535268e-07 -4.2078305839e-05 -2.1825032492e-05 -1.6208141264e-06 
-1.3689109484e-06 5.8075719107e-07 -4.7076287247e-07 -1.3666359179e-05 -4.959801791e-06 -2.3998073375e-06 -8.6222100471e-08 -4.4887452922e-07 -5.0610178636e-07 
-1.4096523223e-07 -1.4019846976e-07 1.9931419065e-08 1.116683748e-06 -1.2995863419e-06 -2.7978413502e-07 1.6508653936e-07 -5.3194063852e-07 7.4215499584e-08 
8.6979489491e-07 -1.1639008815e-06 1.3642805326e-07 3.419633551e-07 -3.2479854878e-07 1.1882820053e-07 -1.0755622406e-08 -8.781020523e-07 -5.7294149502e-07 
1.3131647954e-07 -1.3888870903e-08 -4.763787058e-07 7.2791932906e-07 6.5121187503e-07 -2.7059020214e-07 7.4701302342e-07 2.3379650533e-07 3.9273816497e-07 
-4.1117578214e-07 8.7645550457e-07 -4.712660352e-08 -1.7058266875e-07 2.0152022166e-07 1.8937348563e-07 -9.4045786004e-07 6.5489269285e-07 7.9653840768e-07 
-2.4793361461e-08 3.444832923e-07 -1.3172924269e-08 
f 3 70 double
-1.6859104002e-06 -1.8229021093e-06 -1.6255426791e-06 -6.1636909154e-07 1.46632145e-06 -7.8892868227e-08 -5.0694103932e-06 3.7801003739e-06 2.4775814616e-06 
-2.0106613245e-07 -2.0758935219e-06 -4.5856926477e-07 -3.0155504633e-07 1.6637316433e-06 1.9196168025e-07 3.0533755439e-06 3.2647245873e-06 -1.3632647799e-06 
1.1200188567e-06 -2.154343029e-06 1.1689600068e-07 7.7257567778e-08 -1.7542644303e-07 -9.2516462371e-07 -7.3915176228e-07 -2.9108450858e-08 2.5136769538e-07 
1.4069582644e-06 1.6777700365e-06 -6.3557707804e-07 -1.6969316527e-06 7.5270809399e-07 -3.0234923052e-07 -1.8928304726e-06 3.614943156e-08 1.1728026828e-06 
-4.1957451417e-07 5.9148880063e-07 -1.3264215749e-06 -1.4329599375e-07 2.6954377707e-06 -1.9241626541e-06 -5.8387757247e-07 1.0926716675e-06 2.2572522147e-06 
3.6499516856e-07 2.6063148711e-06 -5.3677775224e-07 9.1802679053e-07 1.0395196132e-06 -1.821328443e-06 -5.8278697177e-08 5.7104309897e-08 1.2335282811e-07 
1.2472574028e-06 4.8648497486e-07 -9.7622723431e-07 7.0690027953e-07 5.2307077632e-07 -2.6776619375e-08 2.7023117043e-07 -1.4586590033e-06 5.1047856175e-08 
2.2745043859e-06 1.6995074066e-07 7.8416579109e-07 -4.4562067941e-08 9.2208846733e-07 -2.1796748751e-06 3.0801838134e-06 9.2911687084e-07 -3.761692523e-07 
3.4928854157e-06 1.5435272187e-06 -2.2402862617e-06 -9.7646563876e-08 5.1240644459e-07 3.0795657256e-07 -4.6795897405e-07 -1.3694370915e-07 1.0963733432e-06 
7.5767512642e-07 4.0657342089e-07 1.8658728244e-07 1.0235428858e-06 -3.1172074329e-08 -1.764596169e-07 2.3990967727e-06 2.9783624747e-06 -9.7905957297e-07 
1.3018772666e-06 1.5998276216e-06 -1.2018209246e-06 1.5697423956e-06 9.6861196223e-07 1.6554978919e-06 -1.6709593001e-07 -7.3342304273e-07 -1.972692807e-06 
3.3094110309e-07 5.9356007527e-07 -1.8033049145e-07 -7.1920302381e-07 -7.2242596612e-07 5.8940832439e-07 -7.4623126967e-07 -7.0852926402e-07 -1.268886664e-07 
1.9889422802e-06 1.5557047206e-06 9.6207994991e-07 7.9559583324e-08 1.5937644001e-06 -1.1206836184e-08 2.4071811167e-07 7.7888759939e-07 -1.8419554497e-06 
1.909080128e-07 6.8036024485e-07 -2.1363805614e-07 7.7621088681e-07 1.652260107e-06 1.1050963523e-07 -4.7144740137e-07 -7.587073997e-08 5.0765727288e-07 
-1.8514923366e-07 -1.9100031711e-07 1.0523805305e-06 4.9040503004e-07 -2.3813249088e-07 -6.8390899538e-07 -1.3970823947e-07 2.8280205078e-07 3.8276155172e-07 
2.2980651099e-08 3.375855982e-07 -1.3666098749e-06 -3.1292126645e-07 -3.0154968948e-06 1.1885021704e-06 2.2759456087e-07 -1.2826167993e-06 -1.890690877e-07 
-8.2757095209e-08 -4.0176446503e-07 -4.7749689833e-07 -3.7274828211e-07 7.6821473467e-08 7.7680962912e-07 1.7436296298e-06 6.5240808953e-07 4.0270120443e-07 
1.3477453553e-07 2.6296951759e-07 -8.5090719982e-07 1.504070367e-07 -3.7245841665e-07 2.0734213868e-07 -9.4014429243e-07 2.7281096564e-07 4.6902771904e-07 
-1.2092221309e-07 -6.4861755041e-07 1.3025971937e-06 5.1291249831e-07 -2.4921745178e-06 1.3009912759e-06 9.4179032416e-07 1.0594207371e-06 2.5530044692e-07 
-2.7278685144e-07 -1.0415474832e-06 -6.2975608972e-07 -7.9329030942e-08 2.5492333694e-06 5.6174783703e-07 2.8305360162e-07 -1.3129842255e-09 -1.7511070978e-07 
-2.2218685756e-08 1.4245256601e-06 4.2921196608e-08 1.7874206357e-06 -3.6422202222e-07 1.4845990157e-07 4.7448581018e-07 -1.0062222753e-06 6.6970578441e-07 
-2.0521732616e-06 -1.1809761334e-06 -6.470541658e-07 -1.8010867651e-06 -4.1666020594e-06 1.0803557085e-06 -2.7317674832e-06 -3.707902834e-07 4.3736523588e-07 
-7.6469776145e-07 -1.637892442e-06 1.3103097605e-06 2.6395503768e-07 -2.5718179479e-09 -5.6854780584e-07 -7.1801527135e-07 5.8845462906e-07 8.7028890283e-08 
2.5537165655e-07 -6.5770518852e-08 -7.066587667e-07 
radius 1 70 double
0.005 0.005 0.005 0.005 0.005 0.005 0.005 0.005 0.005 
0.005 0.005 0.005 0.005 0.005 0.005 0.005 0.005 0.005 
0.005 0.005 0.005 0.005 0.005 0.005 0.005 0.005 0.005 
0.005 0.005 0.005 0.005 0.005 0.005 0.005 0.005 0.005 
0.005 0.005 0.005 0.005 0.005 0.005 0.005 0.005 0.005 
0.005 0.005 0.005 0.005 0.005 0.005 0.005 0.005 0.005 
0.005 0.005 0.005 0.005 0.005 0.005 0.005 0.005 0.005 
0.005 0.005 0.005 0.005 0.005 0.005 0.005 
omega 3 70 double
0.00025139374368 0.00024207853481 -0.00072373736507 5.9824200853e-05 -0.00029993732801 -4.4198153436e-05 0.00045282051875 -0.00046676582914 0.00069015500364 
1.4323509335e-05 6.7526525375e-05 0.00010227458046 1.631176088e-05 -1.0489074963e-05 -7.1661085187e-05 0.0014609319904 -1.5379743758e-05 -0.00051182647417 
-0.0001679447694 -0.00013316274282 6.4358963772e-06 -9.8490894122e-05 5.847197855e-05 1.7568330623e-05 4.2043260082e-05 8.8019760506e-05 1.6003290755e-05 
0.00022336560844 7.6224920079e-05 -0.00011213119203 -0.00046625724333 -0.00016827531016 0.00023226724585 -2.3261938041e-05 -4.1257661132e-05 -5.6431297898e-05 
-0.00013698956621 -4.7929283205e-06 -0.00019150646166 -0.0011667238717 -0.00027785621778 0.00016067207589 0.00015132535061 0.00033934357008 -0.00045942797236 
-0.00028433297084 0.00015360195558 5.4681668729e-05 0.00034032566943 -0.00014172629519 0.00041386786746 -0.00010757928749 -9.5145828744e-06 -0.00013711964157 
8.7932010459e-05 5.6470588221e-05 -6.1992526011e-05 -3.7352090768e-05 0.00012886900515 6.9495723285e-05 -0.00037754745232 -1.3254578337e-05 0.00045693541871 
7.582515673e-05 0.00013033951523 0.00026071111114 0.00017933880968 3.1943827505e-05 1.735057037e-05 -0.00064635278151 -0.00078105891199 -3.8184256848e-05 
-0.00022052960091 0.00042332501222 0.00088727427302 -4.6604620236e-05 -6.9270381496e-05 -6.979603354e-05 -6.6073929421e-06 -0.00059579925119 0.00067512624857 
-0.0022531364514 0.00088763684108 -0.0017776979216 6.9369180116e-05 0.00034267517419 0.0001458051606 8.9127095343e-05 -0.00016700346724 -9.0535691793e-06 
-1.0524633204e-05 9.7102992712e-05 0.00019780625414 -0.00013513216184 4.4239497255e-05 -0.00016517939067 -0.00033981581778 -0.00022303642163 -0.00052893556032 
-7.9385078811e-05 -3.5531143347e-05 -9.7679140121e-05 0.00013667814874 0.00013681189787 0.0002501144821 -6.2308668208e-05 2.7907418644e-05 3.1402588154e-05 
2.5932764581e-05 -4.0332171439e-05 -4.7533043544e-05 0.00011300859293 -0.00021167220025 3.0812017053e-05 0.00061598697854 -4.524235309e-05 1.3355397585e-06 
-1.7152984905e-05 0.00018394772203 0.00034345329438 4.7152075368e-06 3.556955673e-05 5.6757847634e-05 -6.6260530074e-05 1.0177257884e-05 1.6027205724e-06 
-0.00014577634736 1.6310746183e-05 0.00012982586487 -9.6764324981e-05 -6.1243660301e-05 7.6820906981e-06 4.3588845859e-05 -0.00010735242682 -3.4540490948e-05 
9.1002298582e-05 -1.2711602308e-05 -0.00047253257314 -0.00028405243353 -0.00029590080859 -0.00023739091225 -0.00054026688447 -0.00020494202294 -0.0003663601501 
-0.00028452688504 8.5737892551e-05 0.0004520887047 -5.7887923511e-05 -0.00014024373688 -0.00017340976739 -2.3677607699e-05 -8.7458758895e-05 8.8226622693e-05 
3.9332869702e-07 6.3696693971e-05 3.0410084988e-05 7.3002981912e-05 -6.5089888828e-06 3.1020729284e-06 0.0048945697918 -0.0096081096332 -0.00024047963232 
-0.00012235439028 0.00046250707595 -0.00074189412322 0.00099187708535 -0.0027384594807 0.0009219298205 -0.00018379102333 6.4210598323e-05 1.5771529579e-06 
0.00015998861924 0.00010889889528 0.00010626352609 -0.0004386684984 -0.00023083807132 0.000133925061 9.2201135594e-05 -1.1707607158e-05 2.9795749762e-05 
0.00013868777882 -6.0488452162e-05 -0.00025584039744 -0.00028862485969 -0.00030301839087 0.00012764168565 -7.8069120402e-05 0.00094027027167 -0.00058015401444 
0.00021197236198 0.00042109639216 0.00028030749806 3.7190918954e-05 9.765516012e-05 -0.00010315119493 0.00051165026875 3.2621715256e-05 -0.00014052978029 
0.00010319881474 -0.00011709415175 1.1382842979e-05 8.4110462865e-05 0.00020442128155 0.00017066188097 -0.0001253311532 -0.00028324683413 2.7623556218e-05 
-0.0003643005979 -7.6827431699e-05 -0.0001101531057 
