# vtk DataFile Version 4.2
Generated by LIGGGHTS
ASCII
DATASET POLYDATA
POINTS 70 float
-0.0219315 -0.0222094 0.0421414 -0.0306003 -0.011712 0.0413758 0.0258704 -0.0184478 0.04259 
0.00369267 -0.00297822 0.0408622 -0.0178418 0.0205207 0.042992 -0.0237454 -0.0316783 0.0489691 
-0.00547793 -0.0380695 0.0458863 0.00463956 -0.0376032 0.0502889 0.0164958 -0.0374932 0.0493969 
-0.032924 -0.023426 0.0488007 -0.00573737 -0.0256297 0.0522812 0.00354989 -0.0221651 0.0507467 
0.0185859 -0.0261807 0.0475577 0.0297578 -0.0287145 0.0462335 0.0340622 -0.0241389 0.0552315 
-0.0383199 -0.0120057 0.0487639 -0.0237763 -0.019659 0.0526457 -0.00424115 -0.0161895 0.0466733 
0.0050116 -0.0117877 0.0500095 0.0244594 -0.0181297 0.0540753 -0.0303227 -4.871e-05 0.0503798 
-0.0230911 -0.00596186 0.055595 0.000502422 -0.00281518 0.0552654 0.0159027 -0.00647926 0.0483633 
0.0301201 -0.0101842 0.0497141 -0.0409346 0.00178966 0.0518887 -0.0240132 0.00752314 0.0539141 
-0.0107742 0.00921934 0.0462215 0.00813613 0.00479762 0.0467228 0.0206389 0.0068095 0.0495614 
0.0281543 0.000130931 0.0484449 0.0385503 0.0010062 0.0539454 -0.0345416 0.0114966 0.0485761 
-0.02338 0.0200242 0.051956 -0.00455475 0.0107971 0.0545211 0.00967798 0.0155247 0.0460834 
0.0328871 0.0175179 0.0535424 0.0404205 0.0111215 0.0471512 -0.0361189 0.020733 0.0538213 
-0.0290241 0.0289592 0.051419 -0.0107834 0.0297677 0.0496493 -0.00094545 0.0230144 0.0480674 
0.0148267 0.0240142 0.0504018 0.0241589 0.0203129 0.0461233 0.0288424 0.0279945 0.0537794 
-0.0189501 0.0372367 0.0522211 -0.00720497 0.0400291 0.0476321 0.0120949 0.0352997 0.0475018 
0.0221954 0.035023 0.0509886 -0.00668814 -0.0401425 0.0582977 0.00487968 -0.0403079 0.0609518 
0.0234803 -0.0304643 0.0598262 -0.0279642 -0.0299287 0.058418 -0.0132527 -0.0271678 0.0594 
0.0129861 -0.0244543 0.0577267 -0.0125426 -0.0151147 0.057531 -0.00197633 -0.0113923 0.0598309 
0.0160631 -0.0124126 0.0567603 -0.0316183 -0.00746695 0.06188 0.014084 -0.0010963 0.0571104 
-0.034354 0.00677825 0.0606513 0.0335817 0.00872957 0.064135 -0.0134567 0.0166743 0.0557185 
0.00318325 0.0205033 0.0584041 -0.00353366 0.0292575 0.0598106 0.0136996 0.0213788 0.0607329 
-0.0281034 0.0301247 0.0649816 0.0162607 0.0368399 0.0606691 0.00571482 0.0414975 0.0585973 
0.0151716 0.0094222 0.0712716 
VERTICES 70 140
1 0 
1 1 
1 2 
1 3 
1 4 
1 5 
1 6 
1 7 
1 8 
1 9 
1 10 
1 11 
1 12 
1 13 
1 14 
1 15 
1 16 
1 17 
1 18 
1 19 
1 20 
1 21 
1 22 
1 23 
1 24 
1 25 
1 26 
1 27 
1 28 
1 29 
1 30 
1 31 
1 32 
1 33 
1 34 
1 35 
1 36 
1 37 
1 38 
1 39 
1 40 
1 41 
1 42 
1 43 
1 44 
1 45 
1 46 
1 47 
1 48 
1 49 
1 50 
1 51 
1 52 
1 53 
1 54 
1 55 
1 56 
1 57 
1 58 
1 59 
1 60 
1 61 
1 62 
1 63 
1 64 
1 65 
1 66 
1 67 
1 68 
1 69 

POINT_DATA 70
FIELD FieldData 7
id 1 70 int
373 307 1400 1563 2389 2714 2432 455 586 
466 421 1331 1752 2199 2109 733 1872 2266 
2586 805 1296 1933 716 1767 681 112 1964 
1075 197 1627 1616 2701 1924 1144 907 1004 
2039 2779 1267 1405 1100 1894 2331 886 1535 
1244 973 1642 205 2724 474 1449 1508 2527 
2111 2735 1364 1614 1150 2721 2012 340 2156 
28 1956 1692 2556 249 1092 369 
type 1 70 int
2 2 2 2 2 2 2 2 2 
2 2 2 2 2 2 2 2 2 
2 2 2 2 2 2 2 2 2 
2 2 2 2 2 2 2 2 2 
2 2 2 2 2 2 2 2 2 
2 2 2 2 2 2 2 2 2 
2 2 2 2 2 2 2 2 2 
2 2 2 2 2 2 2 
i 3 70 int
0 0 0 0 0 0 0 0 0 
0 0 0 0 0 0 0 0 0 
0 0 0 0 0 0 0 0 0 
0 0 0 0 0 0 0 0 0 
0 0 0 0 0 0 0 0 0 
0 0 0 0 0 0 0 0 0 
0 0 0 0 0 0 0 0 0 
0 0 0 0 0 0 0 0 0 
0 0 0 0 0 0 0 0 0 
0 0 0 0 0 0 0 0 0 
0 0 0 0 0 0 0 0 0 
0 0 0 0 0 0 0 0 0 
0 0 0 0 0 0 0 0 0 
0 0 0 0 0 0 0 0 0 
0 0 0 0 0 0 0 0 0 
0 0 0 0 0 0 0 0 0 
0 0 0 0 0 0 0 0 0 
0 0 0 0 0 0 0 0 0 
0 0 0 0 0 0 0 0 0 
0 0 0 0 0 0 0 0 0 
0 0 0 0 0 0 0 0 0 
0 0 0 0 0 0 0 0 0 
0 0 0 0 0 0 0 0 0 
0 0 0 
v 3 70 double
-0.025999542813 0.011337488294 -0.10773456698 0.027012502212 0.0005417148451 -0.089056492818 0.075817088354 0.02783212724 -0.19687247266 
-0.046383551049 0.033035912917 -0.16370944382 0.013770215867 -0.033441936419 0.017015218913 -0.11836533407 -0.028729897835 0.022775717888 
0.074786018442 -0.061822193455 -0.059546564768 -0.086729527901 0.075982382583 0.137719624 0.075607108346 0.026412821675 0.039277903455 
0.013014325352 0.14203239067 0.029750342799 -0.030994861191 0.021152506377 -0.047798206328 0.064406051772 -0.19475069328 -0.039187508471 
0.023232973859 -0.062826076042 -0.031981281802 -0.11564977025 0.08726985808 -0.06989015684 -0.074535058283 0.17090918451 -0.010735342971 
-0.063353930517 -0.020328859412 -0.04310733841 -0.21270209596 -0.2212364999 -0.062228265476 0.14693701038 0.023702453333 0.018536814222 
0.15870953804 -0.029187834633 0.037162907856 -0.13732231006 0.15815685445 -0.037691854404 0.13499949806 0.061919710282 0.069461916597 
-0.015868333984 0.070447325067 0.15389134928 0.15458716922 -0.19373091802 0.075349931038 0.040529080955 0.0235328998 -0.09774475589 
0.007081635731 -0.047333574141 -0.0096065191946 0.013800960671 0.079471205706 0.12196753961 -0.14682040799 -0.15487506739 0.19436339968 
-0.056851414858 0.15164749828 0.037672793326 -0.0019725823232 -0.050065204695 -0.024269422189 -0.0012256762406 -0.017828718251 0.16055960153 
0.061986494945 -0.040979911196 -0.033978181381 0.090075078328 -0.044366803396 -0.082654288742 0.082998560739 0.047508616091 0.14877401829 
0.0087372413436 0.0094651956275 0.033730184436 -0.0093100357217 0.030529914956 0.083998157322 -0.068560809585 0.006970442864 -0.011199287503 
0.020671205138 0.12861900508 0.10098654696 0.078003851888 0.084228609932 -0.056072677458 0.030098292088 -0.027802962411 0.13686627529 
-0.16935542693 0.14667493469 -0.012514539546 0.24631555 -0.098223069294 -0.035039763111 0.046339876525 -0.098943973231 -0.0018540097616 
0.014562676127 -0.037698083123 0.12638819962 -0.019878034769 0.03899320739 0.0071884387503 -0.1916528033 -5.5375014543e-05 0.15664524775 
0.028631396809 0.24392131037 0.14853767425 0.01798658973 -0.020522938344 0.040973280763 -0.074685595888 -0.012959275753 0.020897973089 
0.067732522877 0.073275332795 0.09555836019 -0.019653346414 -0.0096366115818 0.1972284811 -0.11338787459 -0.048316105012 0.080992588208 
0.36977223256 0.085245441984 0.004307396866 -0.0012528369324 -0.087234668397 -0.040018055692 -0.0021518055962 0.094377550649 0.174401117 
0.084288620515 0.14712125935 0.038975642561 0.10575053982 -0.13923711726 0.16126604593 -0.24926676719 -0.061996127763 -0.10872602021 
0.22843085333 -0.064593260159 0.042078800089 0.071419201711 -0.066897642146 0.16792234378 -0.038385142352 -0.0812919733 0.032372262989 
0.046812431326 0.065926615003 0.16267664216 -0.012898323855 0.050955898964 0.24280936279 0.14751495181 0.084810413946 -0.13204458829 
-0.036700615206 0.1772155937 0.11222036542 0.034765917648 -0.084978816197 -0.038307736779 -0.079554414624 -0.041538181388 0.13207038914 
-0.061151400234 -0.15009729457 0.25504512306 -0.16437106885 0.3238869013 0.085310860754 -0.063854116619 -0.12729676733 0.080397803 
0.013635745813 0.063771109591 0.052778875362 
f 3 70 double
0 0 -0.0012841259972 0 0 -0.0012841259972 0 0 -0.0012841259972 
0 0 -0.0012841259972 0 0 -0.0012841259972 0 0 -0.0012841259972 
0 0 -0.0012841259972 0 0 -0.0012841259972 0 0 -0.0012841259972 
0 0 -0.0012841259972 0 0 -0.0012841259972 0 0 -0.0012841259972 
0 0 -0.0012841259972 0 0 -0.0012841259972 0 0 -0.0012841259972 
0 0 -0.0012841259972 0 0 -0.0012841259972 0 0 -0.0012841259972 
0 0 -0.0012841259972 0 0 -0.0012841259972 0 0 -0.0012841259972 
0 0 -0.0012841259972 0 0 -0.0012841259972 0 0 -0.0012841259972 
0 0 -0.0012841259972 0 0 -0.0012841259972 0 0 -0.0012841259972 
0 0 -0.0012841259972 0 0 -0.0012841259972 0 0 -0.0012841259972 
0 0 -0.0012841259972 0 0 -0.0012841259972 0 0 -0.0012841259972 
0 0 -0.0012841259972 0 0 -0.0012841259972 0 0 -0.0012841259972 
0 0 -0.0012841259972 0 0 -0.0012841259972 0 0 -0.0012841259972 
0 0 -0.0012841259972 0 0 -0.0012841259972 0 0 -0.0012841259972 
0 0 -0.0012841259972 0 0 -0.0012841259972 0 0 -0.0012841259972 
0 0 -0.0012841259972 0 0 -0.0012841259972 0 0 -0.0012841259972 
0 0 -0.0012841259972 0 0 -0.0012841259972 0 0 -0.0012841259972 
0 0 -0.0012841259972 0 0 -0.0012841259972 0 0 -0.0012841259972 
0 0 -0.0012841259972 0 0 -0.0012841259972 0 0 -0.0012841259972 
0 0 -0.0012841259972 0 0 -0.0012841259972 0 0 -0.0012841259972 
0 0 -0.0012841259972 0 0 -0.0012841259972 0 0 -0.0012841259972 
0 0 -0.0012841259972 0 0 -0.0012841259972 0 0 -0.0012841259972 
0 0 -0.0012841259972 0 0 -0.0012841259972 0 0 -0.0012841259972 
0 0 -0.0012841259972 
radius 1 70 double
0.005 0.005 0.005 0.005 0.005 0.005 0.005 0.005 0.005 
0.005 0.005 0.005 0.005 0.005 0.005 0.005 0.005 0.005 
0.005 0.005 0.005 0.005 0.005 0.005 0.005 0.005 0.005 
0.005 0.005 0.005 0.005 0.005 0.005 0.005 0.005 0.005 
0.005 0.005 0.005 0.005 0.005 0.005 0.005 0.005 0.005 
0.005 0.005 0.005 0.005 0.005 0.005 0.005 0.005 0.005 
0.005 0.005 0.005 0.005 0.005 0.005 0.005 0.005 0.005 
0.005 0.005 0.005 0.005 0.005 0.005 0.005 
omega 3 70 double
25.874278405 -23.905895433 -10.246877144 -12.329502354 0.0014992557875 3.5123882171 -11.192697416 -8.8611360355 -8.3013657141 
-0.21771796665 14.126014929 29.850651062 8.5686996152 22.339901459 -2.5226973032 -8.8763856328 10.972809512 -16.451954685 
2.6959653928 5.5312548355 0.38599537864 -10.449252105 7.8974384184 18.576790431 -32.639258384 2.2933933451 4.3067051984 
-16.07672534 -7.0187690537 -1.4790403454 0.68559487336 -5.6649980719 8.3102303955 -13.950358947 -1.1099997026 -16.389843797 
-0.91897859572 11.175480664 -13.967100981 11.206771535 -18.820840324 -4.6575416958 -3.8842356446 2.7233392529 -0.47832807861 
-7.0337779785 -20.99931105 14.655755649 -9.6771742389 22.649416621 -34.882441036 -13.04655991 10.33763831 -2.0464226806 
15.253338809 20.923625434 18.923388995 -9.3915757331 13.32195296 6.8555854366 10.740608235 -1.5029279669 -34.003310265 
-4.9355842487 -1.1832355025 -14.904807561 11.728360519 16.881223391 24.950633706 16.738968787 36.422172097 18.415911831 
19.819128738 -17.206675245 -27.218518895 19.16994631 8.7433392251 -38.938964079 -32.399065802 9.9425417595 -8.5668091899 
3.1815467818 11.173756 14.279813448 4.6990422221 -20.104575121 0.9540314202 0.77484032616 47.538281138 13.214950548 
15.271066704 -12.504147675 -19.85627508 22.02066654 6.5483069092 -20.499655558 -4.2422246252 -28.875207985 -8.6407198295 
-12.307254806 58.349431093 -14.038874178 -17.91656355 16.610471237 7.1794244521 2.9443844492 8.2697912307 5.0689597506 
4.2141723129 1.5030339141 5.0986398406 4.3291579669 24.325151266 -1.0597154548 19.931936286 -5.1562010248 -3.1085581516 
13.388571356 12.208866899 -24.862318551 9.5984111733 10.213789892 -15.100779266 4.4018725427 7.8896670552 -7.9907679095 
-5.7071302882 5.6049406772 -20.571296339 9.6927692304 -16.626716006 6.1213703726 -10.691034927 -15.434205876 -3.7324958369 
13.164610651 7.0038094055 -15.838760912 -26.623745007 15.838039647 9.8878824137 5.9019872805 25.253062601 8.1078672286 
-24.824603936 -29.535969032 2.4596700203 32.460356262 3.4410766292 -36.784827543 4.0155044536 -15.664939617 44.789697594 
-17.946450594 31.060484561 14.249693103 15.766144586 -28.580077359 -2.7550033957 -10.176538346 -1.8059112528 -25.350970772 
-51.798567152 42.646118784 -8.8116356702 38.062891478 -19.881881173 -16.984833332 -40.228457895 -58.389208432 41.404510759 
-8.564433122 -5.2628997366 44.354398889 49.923830665 0.81959563796 -32.287941305 16.453130456 -16.55845196 16.379093142 
4.4397614483 23.327484187 -30.495532011 -5.6430961459 21.865218656 -4.0453445426 -35.05456733 44.528700103 -57.819487471 
-58.77350537 -21.317166286 -1.9907933896 34.839897951 -41.670529837 7.8544114816 2.8947678379 11.170428713 42.499157879 
2.9481267975 13.351600769 5.2623027574 3.276684475 3.3610735625 2.7877016371 -31.964551787 15.766975219 -26.362332083 
-40.672116755 13.114758025 -13.394744959 
