# vtk DataFile Version 4.2
Generated by LIGGGHTS
ASCII
DATASET POLYDATA
POINTS 70 float
-0.0113914 -0.0399505 0.0395133 -0.0182594 -0.0317774 0.0435164 0.029326 -0.0210176 0.0442785 
-0.0292098 -0.0175438 0.0461769 0.012533 -0.0105451 0.0437066 -0.0402232 -0.0106031 0.0459958 
-0.0203574 -0.00871745 0.046301 -0.0115083 -0.00368382 0.041907 -0.000405283 -0.00620551 0.0452631 
0.00845026 -0.000574154 0.0443064 0.0210604 0.0088089 0.0464409 0.0392796 0.00578453 0.0461564 
-0.0204986 0.0125275 0.0428183 -0.0083572 0.0192744 0.0436427 0.00489214 0.0186479 0.0423992 
0.0308186 0.0145378 0.0411497 -0.00221048 0.0298803 0.0451595 0.0199703 0.0280814 0.0410737 
-0.0182336 -0.0324307 0.0546894 -0.00568006 -0.0368473 0.0510594 0.00754299 -0.0375834 0.0468454 
0.0263051 -0.0319463 0.0513235 -0.0292308 -0.0300385 0.0493237 0.0105585 -0.0234251 0.0486009 
0.0016324 -0.0294253 0.0522303 -0.0381724 -0.0141853 0.0567596 -0.0150791 -0.0196374 0.0486955 
-0.00526898 -0.0210218 0.0455455 -0.00684684 -0.0122593 0.0545865 0.0116113 -0.0145949 0.0542641 
0.033286 -0.0141919 0.054532 -0.0314021 -0.00180067 0.0476933 -0.0123407 -0.00369457 0.0520661 
0.00362564 -0.00644316 0.0563337 0.0257937 -0.00784007 0.0509914 -0.0415521 0.000244337 0.0554395 
-0.0305905 0.00875048 0.053961 -0.02175 0.000416211 0.0513711 -0.00809608 0.00454648 0.0472094 
0.0151947 0.00315836 0.0535995 0.0312108 0.000965457 0.0516009 -0.0373963 0.015353 0.0498204 
-0.0180593 0.0105825 0.0565808 -0.00410279 0.0129508 0.0509985 0.00566637 0.00955598 0.048778 
0.0157471 0.0137741 0.0543549 0.0242462 0.0194745 0.050363 -0.031086 0.0277085 0.0489255 
-0.0226739 0.0222878 0.0553099 0.00222771 0.0228407 0.0514253 0.0126974 0.0235092 0.0497862 
-0.0192825 0.0369263 0.0481581 -0.0092649 0.0382266 0.0465866 0.00174014 0.039077 0.0458559 
0.0123125 0.033113 0.0455049 0.0282143 0.0301675 0.0464619 0.00609472 -0.0400753 0.059755 
0.0185062 -0.0329729 0.0576337 -0.0114939 -0.0255559 0.0582619 0.0143829 -0.0235792 0.0583031 
0.0287952 -0.0238542 0.0581577 -0.0096252 0.00356688 0.0589319 0.0269399 0.011545 0.0581022 
0.0378079 0.0143971 0.0582636 -0.00960191 0.0246167 0.0631193 0.0327843 0.0250981 0.0588643 
-0.0202827 0.036473 0.0597962 -0.00650957 0.033572 0.0564236 0.0118528 0.0386626 0.0550317 
0.0314965 -0.0233125 0.0701092 
VERTICES 70 140
1 0 
1 1 
1 2 
1 3 
1 4 
1 5 
1 6 
1 7 
1 8 
1 9 
1 10 
1 11 
1 12 
1 13 
1 14 
1 15 
1 16 
1 17 
1 18 
1 19 
1 20 
1 21 
1 22 
1 23 
1 24 
1 25 
1 26 
1 27 
1 28 
1 29 
1 30 
1 31 
1 32 
1 33 
1 34 
1 35 
1 36 
1 37 
1 38 
1 39 
1 40 
1 41 
1 42 
1 43 
1 44 
1 45 
1 46 
1 47 
1 48 
1 49 
1 50 
1 51 
1 52 
1 53 
1 54 
1 55 
1 56 
1 57 
1 58 
1 59 
1 60 
1 61 
1 62 
1 63 
1 64 
1 65 
1 66 
1 67 
1 68 
1 69 

POINT_DATA 70
FIELD FieldData 7
id 1 70 int
1075 2111 716 466 1924 907 2266 340 1692 
28 1535 249 1894 1331 474 2714 2432 2527 
1364 1563 2109 1616 1267 1964 1933 733 586 
2012 2156 2779 2721 1144 973 1627 1100 1296 
681 1508 2701 2039 1642 1150 373 805 1752 
2331 1449 1400 886 197 1092 2735 2586 2199 
1244 421 1872 1405 112 1767 2556 205 1004 
307 455 369 1956 2389 2724 1614 
type 1 70 int
2 2 2 2 2 2 2 2 2 
2 2 2 2 2 2 2 2 2 
2 2 2 2 2 2 2 2 2 
2 2 2 2 2 2 2 2 2 
2 2 2 2 2 2 2 2 2 
2 2 2 2 2 2 2 2 2 
2 2 2 2 2 2 2 2 2 
2 2 2 2 2 2 2 
i 3 70 int
0 0 0 0 0 0 0 0 0 
0 0 0 0 0 0 0 0 0 
0 0 0 0 0 0 0 0 0 
0 0 0 0 0 0 0 0 0 
0 0 0 0 0 0 0 0 0 
0 0 0 0 0 0 0 0 0 
0 0 0 0 0 0 0 0 0 
0 0 0 0 0 0 0 0 0 
0 0 0 0 0 0 0 0 0 
0 0 0 0 0 0 0 0 0 
0 0 0 0 0 0 0 0 0 
0 0 0 0 0 0 0 0 0 
0 0 0 0 0 0 0 0 0 
0 0 0 0 0 0 0 0 0 
0 0 0 0 0 0 0 0 0 
0 0 0 0 0 0 0 0 0 
0 0 0 0 0 0 0 0 0 
0 0 0 0 0 0 0 0 0 
0 0 0 0 0 0 0 0 0 
0 0 0 0 0 0 0 0 0 
0 0 0 0 0 0 0 0 0 
0 0 0 0 0 0 0 0 0 
0 0 0 0 0 0 0 0 0 
0 0 0 
v 3 70 double
-0.065180085345 0.079256345236 -0.027985337037 0.12471585152 -0.043795407001 0.0567954442 -0.0081494463465 0.042460554543 0.17527557883 
0.24435357536 0.060542305376 0.21538854839 0.074289047896 -0.033812887549 0.15066325293 0.14731893908 -0.13354125899 0.2086972549 
-0.066085938587 0.064205359208 0.21580706459 -0.021666283223 -0.039383692515 0.19307861754 0.0068421867804 0.11033733919 0.18212784501 
0.02472982918 -0.033699656339 0.14463885891 -0.10460971883 0.21833931369 0.25947608004 -0.082380287704 0.0027611382332 0.33036700664 
0.0015856646003 -0.13749936501 0.1855119207 -0.015510579236 0.036813888615 0.22425213381 0.03143545665 0.10820261203 0.25528177008 
0.015549233977 0.19395907811 0.072312858751 0.10478285624 0.0011133686491 0.18457362582 0.20210874632 -0.10894799445 -0.013944839335 
0.25732442939 -0.050876580105 0.19960607736 0.096853751971 0.049203457507 0.098183819793 -0.019543966275 0.31500777887 0.082374407902 
0.077942824769 -0.089560729228 0.44742074207 -0.20353480098 -0.073473197007 0.29334619527 0.0212205213 0.031577290661 0.22855701039 
0.12921963551 -0.13848523299 0.25807759799 0.16228869653 0.13906595888 0.28784624506 0.076765593341 -0.090439514304 0.33800183719 
-0.068604901721 -0.20971294655 0.046629864984 -0.058530049576 0.044665354651 0.28643118115 -0.12735822761 -0.0087551725664 0.24024298666 
-0.1933262927 -0.038929007986 0.47062570871 -0.17749598754 0.19028659159 0.21555130058 -0.048115733988 0.010608847493 0.039428530616 
-0.035443487911 -0.051697862359 0.32276636984 -0.0024535685684 -0.032130008125 0.23927645673 0.026388371353 -0.19794762087 0.50855879708 
-0.038180965274 -0.14666088684 0.44613094337 -0.057043273757 -0.0030427957811 0.070024052566 0.15379935238 -0.068887308345 0.19463896632 
-0.02623972201 0.16101059569 0.25387105944 0.16488919762 0.011413596761 0.14273466332 -0.15486672905 -0.12316144974 0.30521043553 
-0.067135502199 0.082925071885 0.34217049717 0.055885875581 -0.11681823766 0.15664248386 -0.10317607852 -0.13403450048 0.27747136939 
0.05743162475 0.059982401979 0.29290464742 -0.11889001246 0.11163585437 0.18204237696 -0.006521715965 0.030744795189 0.28425212122 
-0.013155779034 -0.1124115399 0.48457363484 0.013610247012 0.010324961463 0.15492276967 0.13886331973 -0.064792967489 0.038281434079 
0.085131603723 0.07983940107 0.15980422125 0.23154113769 0.13570408307 0.18445707426 -0.024489967485 0.033409271244 0.041519961539 
-0.0043634060199 0.086111216969 0.11904750811 0.065583524167 -0.27402192743 -0.31053655082 -0.17956357336 -0.11989006783 0.24092579882 
-0.18773886791 0.19456406404 0.2932460953 -0.11982932408 -0.31891193888 0.29116480979 -0.1760371526 -0.16154904241 0.075013891597 
0.13028350084 0.014622576541 0.42083931612 -0.04662213839 -0.083019776994 0.28266537111 0.095244595556 0.12293768401 0.22353687066 
-0.35972867546 0.029339951502 0.4750051614 -0.1216027647 -0.087144485186 0.32744691062 -0.28307114673 -0.33950185769 -0.023618110709 
0.058449198578 0.0084547384923 0.282098942 0.0086463268094 0.058122169693 0.25293058733 0.10397362027 0.2305669372 -0.14904168041 
-0.11716384651 0.3319716155 0.39478405334 
f 3 70 double
0 0 -0.0012841259972 0 0 -0.0012841259972 0 0 -0.0012841259972 
0 0 -0.0012841259972 0 0 -0.0012841259972 0 0 -0.0012841259972 
0 0 -0.0012841259972 -0.68461708125 0.56014403917 -0.08743614843 0 0 -0.0012841259972 
0 0 -0.0012841259972 0 0 -0.0012841259972 0 0 -0.0012841259972 
0 0 -0.0012841259972 0 0 -0.0012841259972 0 0 -0.0012841259972 
0 0 -0.0012841259972 0 0 -0.0012841259972 0 0 -0.0012841259972 
0 0 -0.0012841259972 0 0 -0.0012841259972 0 0 -0.0012841259972 
0 0 -0.0012841259972 0 0 -0.0012841259972 0 0 -0.0012841259972 
0 0 -0.0012841259972 0 0 -0.0012841259972 0 0 -0.0012841259972 
0 0 -0.0012841259972 0 0 -0.0012841259972 0 0 -0.0012841259972 
0 0 -0.0012841259972 0 0 -0.0012841259972 0 0 -0.0012841259972 
0 0 -0.0012841259972 0 0 -0.0012841259972 0 0 -0.0012841259972 
0 0 -0.0012841259972 0 0 -0.0012841259972 0 0 -0.0012841259972 
0 0 -0.0012841259972 0 0 -0.0012841259972 0 0 -0.0012841259972 
0 0 -0.0012841259972 0 0 -0.0012841259972 0 0 -0.0012841259972 
0 0 -0.0012841259972 0 0 -0.0012841259972 0 0 -0.0012841259972 
0 0 -0.0012841259972 0 0 -0.0012841259972 0 0 -0.0012841259972 
0 0 -0.0012841259972 0 0 -0.0012841259972 0 0 -0.0012841259972 
0 0 -0.0012841259972 0 0 -0.0012841259972 0 0 -0.0012841259972 
0 0 -0.0012841259972 0 0 -0.0012841259972 0 0 -0.0012841259972 
0 0 -0.0012841259972 0 0 -0.0012841259972 0 0 -0.0012841259972 
0 0 -0.0012841259972 0 0 -0.0012841259972 0 0 -0.0012841259972 
0 0 -0.0012841259972 0 0 -0.0012841259972 0 0 -0.0012841259972 
0 0 -0.0012841259972 
radius 1 70 double
0.005 0.005 0.005 0.005 0.005 0.005 0.005 0.005 0.005 
0.005 0.005 0.005 0.005 0.005 0.005 0.005 0.005 0.005 
0.005 0.005 0.005 0.005 0.005 0.005 0.005 0.005 0.005 
0.005 0.005 0.005 0.005 0.005 0.005 0.005 0.005 0.005 
0.005 0.005 0.005 0.005 0.005 0.005 0.005 0.005 0.005 
0.005 0.005 0.005 0.005 0.005 0.005 0.005 0.005 0.005 
0.005 0.005 0.005 0.005 0.005 0.005 0.005 0.005 0.005 
0.005 0.005 0.005 0.005 0.005 0.005 0.005 
omega 3 70 double
-12.775201232 -6.673647979 8.8714976079 -1.9257810234 5.2640598492 -1.8497007998 -7.3397862984 3.5183583048 0.50691532204 
-17.842416921 12.046401311 -13.037138645 -18.330401979 -15.982199651 14.522980182 -12.788490137 -33.238871277 3.6761595492 
8.1870295263 17.85092212 -3.8521402584 17.080496772 15.36229532 -5.5971039433 3.2749887247 -22.318717958 -0.46799543951 
-10.554264705 24.125161587 -26.744326792 -47.800729606 -13.042174216 8.0833222059 -16.743079536 -10.236939622 -21.515862828 
-23.393405891 -9.7528052084 19.858936102 37.354530984 33.829607127 9.1757967749 45.165413277 -1.9677479681 2.5812422132 
-18.76073303 -18.366319835 -17.415426662 10.317071124 -0.026931782391 4.9940991947 -6.7029406121 5.3787496175 -25.986169468 
-10.001002538 63.90999 -23.992718973 -4.1940673579 57.117845294 4.2614826439 6.4787446225 -26.736912175 -7.7527091196 
14.724544739 0.73820298314 25.216052667 -3.2446861859 26.515691051 -6.5498834921 3.2083192436 -10.19115676 -2.6625753136 
-1.0728380324 -8.483322802 -15.468147215 29.990174485 -0.68482453805 -26.21498822 19.678179555 2.9254046951 -6.3836458778 
30.884487964 -11.705720809 16.620329636 -22.565596828 -11.941828328 14.769927366 -59.161049526 -1.3169041018 2.3224193461 
2.9082862528 -14.004989047 1.9419426793 -32.249247842 -16.971856125 -18.452249115 8.950049331 -17.248596331 -30.035750472 
-10.728893203 -10.980684361 3.7649466478 -7.6573161368 9.3499583816 -14.086916842 -36.756527946 16.08412785 -20.433317244 
8.5882183322 -15.614982158 -6.4381521121 7.8986903096 -30.917410223 -47.99208294 8.5977110722 -19.384555828 -19.880244255 
-17.062910972 26.359386085 18.939651339 -9.0868307907 -41.718288812 -22.907611242 2.8795383604 -11.037436341 -2.780036673 
44.375738839 39.254608861 -18.148651351 -17.866123474 -5.1383008163 -21.922635839 -15.759046874 -2.6453831796 10.536612695 
2.6788776556 8.1269811846 -24.76483337 7.9130014453 16.835744608 -30.979670724 -10.014066741 -25.996480214 -25.055152546 
20.677641468 -13.729578451 -1.4304966472 -7.258149713 10.993754095 -10.876329442 -20.657499004 -12.971231036 -34.836610726 
-50.678291326 -8.0984767668 11.482587715 -50.9467671 2.0935579482 31.512210344 -1.6643346807 -6.3239498077 7.3051534723 
-52.805643055 -42.692373503 2.9088573846 10.891964235 -39.042084411 -16.538655924 -7.4375644628 -37.12051991 -7.066969242 
-0.75507402278 -27.687474635 -2.3060501975 -7.0443079813 -4.1380467816 -9.1918949061 73.866876287 -14.256253921 21.008277816 
15.243741323 -5.5995592833 20.183880741 33.901578708 -26.36385641 3.3927850069 6.241102744 67.267885942 5.5017903545 
27.112893182 -5.9348463536 -7.3107652211 66.271554614 -17.865971327 -5.3605877054 -1.4418577932 -0.99490743189 0.020957813193 
25.808843749 31.631595711 16.996956203 0.45651983648 2.4223002369 28.882212344 -8.247798203 -5.1116852843 -22.823694397 
-3.4999552722 3.481753689 0.089109358494 
