# vtk DataFile Version 4.2
Generated by LIGGGHTS
ASCII
DATASET POLYDATA
POINTS 70 float
0.0160916 -0.0387969 0.0255991 -0.0118457 -0.0230844 0.0331425 -0.00942031 -0.0107132 0.0314934 
0.000464823 -0.011908 0.0325017 0.0273728 -0.0113336 0.0293321 0.0348777 -0.0160223 0.0340051 
0.0229429 -0.00311619 0.0334642 -0.0344389 0.00524239 0.0299953 0.0419514 0.00137815 0.0324827 
-0.0349356 0.0149616 0.0276892 -0.0047968 0.0143233 0.0342047 0.000313078 0.0346943 0.0314167 
0.00865404 0.0411044 0.0291356 -0.0243583 -0.020273 0.043654 -0.0300995 -0.00167024 0.0381389 
-0.00630946 -0.00190723 0.0445469 -0.0314243 0.00819925 0.0390645 -0.0183304 0.00476991 0.0380047 
-0.00895551 0.00218561 0.0356726 0.0151287 0.0178399 0.0448846 -0.00311959 0.0279554 0.0435105 
0.0190243 0.0263448 0.0402274 -0.00725515 -0.0413498 0.0502917 0.00586774 -0.0415048 0.0487337 
-0.0315793 -0.0143783 0.0481696 -0.0122906 -0.0194664 0.0498248 0.0291559 -0.00343928 0.0478192 
0.00918729 0.0343512 0.0524868 0.0287839 0.0304481 0.0508828 0.000440405 -0.0341071 0.0556467 
-0.0096687 -0.0343558 0.0727179 -0.0103728 -0.0238915 0.0740779 0.00933041 -0.0203234 0.0700184 
-0.0311911 -0.0190172 0.0700372 -0.0203321 -0.0191207 0.072927 -0.00266326 -0.0141727 0.0719582 
0.0215179 -0.0185964 0.0697824 -0.018612 -0.00914635 0.0677222 -0.0394164 0.0016243 0.0760326 
-0.0230345 0.00154407 0.0709518 0.0184732 0.00115817 0.0763994 0.0282026 0.00347207 0.0740887 
0.0392041 0.00527396 0.0734076 -0.0376392 0.0144155 0.0736975 -0.0275092 0.0117873 0.0722058 
-0.0176263 0.0112077 0.0766575 -0.0128528 0.0201768 0.0723837 0.000903466 0.0130347 0.0746014 
0.0139256 0.0130503 0.0746792 0.0386691 0.0160953 0.0668842 -0.0148407 0.0295791 0.076241 
-0.000835439 0.0267791 0.0738608 0.00959757 0.0258673 0.0766863 -0.0240949 0.0342993 0.0756315 
0.00388289 0.0399243 0.0693173 0.0126004 0.0342764 0.0706779 0.00780523 -0.0325304 0.079021 
0.0317353 -0.0239939 0.0813637 -0.0348964 -0.0164503 0.0799025 0.0087747 -0.0200229 0.0810039 
-0.0256683 -0.00193369 0.081277 0.00502179 -0.00825969 0.0802899 0.0181241 -0.00995946 0.078067 
0.0197755 0.0105578 0.0835148 0.0394984 0.00352399 0.0842716 0.0378463 0.0150566 0.0792306 
-0.0306669 0.0202995 0.0804769 0.000477894 0.0380058 0.0803167 -0.0332057 -0.0221734 0.0901623 
-0.0113876 0.0306371 0.0881397 
VERTICES 70 140
1 0 
1 1 
1 2 
1 3 
1 4 
1 5 
1 6 
1 7 
1 8 
1 9 
1 10 
1 11 
1 12 
1 13 
1 14 
1 15 
1 16 
1 17 
1 18 
1 19 
1 20 
1 21 
1 22 
1 23 
1 24 
1 25 
1 26 
1 27 
1 28 
1 29 
1 30 
1 31 
1 32 
1 33 
1 34 
1 35 
1 36 
1 37 
1 38 
1 39 
1 40 
1 41 
1 42 
1 43 
1 44 
1 45 
1 46 
1 47 
1 48 
1 49 
1 50 
1 51 
1 52 
1 53 
1 54 
1 55 
1 56 
1 57 
1 58 
1 59 
1 60 
1 61 
1 62 
1 63 
1 64 
1 65 
1 66 
1 67 
1 68 
1 69 

POINT_DATA 70
FIELD FieldData 7
id 1 70 int
44 732 385 912 837 398 663 467 720 
208 936 1157 595 1606 1986 2166 895 1438 
1371 1929 1751 1782 2710 2509 2873 2267 2790 
3209 2149 1464 3770 3206 5509 5103 4989 5420 
4708 4179 2996 3102 3228 4362 4006 3265 2454 
2782 2566 4052 5397 3724 5050 4796 4280 5377 
5402 2117 3475 4610 4482 3932 3841 3510 5353 
3909 4181 2252 3857 3364 2640 3057 
type 1 70 int
2 2 2 2 2 2 2 2 2 
2 2 2 2 2 2 2 2 2 
2 2 2 2 2 2 2 2 2 
2 2 2 2 2 2 2 2 2 
2 2 2 2 2 2 2 2 2 
2 2 2 2 2 2 2 2 2 
2 2 2 2 2 2 2 2 2 
2 2 2 2 2 2 2 
i 3 70 int
0 0 0 0 0 0 0 0 0 
0 0 0 0 0 0 0 0 0 
0 0 0 0 0 0 0 0 0 
0 0 0 0 0 0 0 0 0 
0 0 0 0 0 0 0 0 0 
0 0 0 0 0 0 0 0 0 
0 0 0 0 0 0 0 0 0 
0 0 0 0 0 0 0 0 0 
0 0 0 0 0 0 0 0 0 
0 0 0 0 0 0 0 0 0 
0 0 0 0 0 0 0 0 0 
0 0 0 0 0 0 0 0 0 
0 0 0 0 0 0 0 0 0 
0 0 0 0 0 0 0 0 0 
0 0 0 0 0 0 0 0 0 
0 0 0 0 0 0 0 0 0 
0 0 0 0 0 0 0 0 0 
0 0 0 0 0 0 0 0 0 
0 0 0 0 0 0 0 0 0 
0 0 0 0 0 0 0 0 0 
0 0 0 0 0 0 0 0 0 
0 0 0 0 0 0 0 0 0 
0 0 0 0 0 0 0 0 0 
0 0 0 
v 3 70 double
-0.00072663374409 0.0023078826681 -0.0044420521526 0.0020603879581 -0.0010322733662 -0.00011981212241 -0.0037639180663 0.0029392324859 -0.0010616561353 
0.0022936161271 -0.0044797734967 -0.0067545414625 0.00084560924204 0.001837650291 -0.0020374179649 0.0013415724981 0.0059150321006 0.002030848075 
0.0051825649672 -0.0014980799719 -0.0066168898013 0.0017533079706 0.0003953291025 -0.00057477729394 0.002421285931 -0.007579885487 0.0017717361097 
-0.0028576929217 -0.003542387278 0.0013895129194 -0.0039821057382 -0.0088368719452 -0.0070644552968 -0.00099780923822 0.0010608167634 -0.00034974375705 
-0.002127707462 0.00058094018954 -0.0035964543234 0.0016010700268 0.0032565575721 0.002128065525 -0.0018878114572 0.002275447088 -0.0013882506084 
0.0088362930219 0.021305330657 -0.0061066904304 -0.00054604830038 -0.0042969645293 0.0036795726346 -0.0021989480091 -0.0070863946004 0.0003818007213 
-0.00034144721737 -0.0038517092357 -0.0044119196876 0.0067112161425 -0.017693640451 0.0097428838641 -0.010209048499 -0.00070277793288 0.0041836136775 
0.0042960119196 -0.0022523451575 -0.0044526472841 -0.0064851666435 0.0067565051969 0.047544977425 0.0013340377721 -0.023097683238 0.028266406709 
-0.0013327961236 0.023383966403 0.01113811244 -0.0056695441041 -0.00096474243702 0.0168040147 -0.0079635655052 -0.0029925833588 0.007811951466 
-0.0005399044019 -0.031510759443 0.0070973485588 0.005331332791 -0.021032045467 0.031089513957 -0.033438069449 0.10653657027 0.03695273819 
-0.19443424373 0.077655596404 0.39714845964 -0.006986876302 -0.053885231398 0.38767998187 0.10022802155 -0.0027612879566 0.21108898761 
-0.14578813836 0.28146042074 0.10318539465 -0.018590243012 -0.12392610037 0.34137279553 -0.061537678065 -0.099711173465 0.1676821995 
0.0086850698846 -0.065549171176 0.11807142559 0.15146330742 -0.032826868064 0.17239442857 0.059436751787 0.28247471756 0.18909496358 
-0.20949342326 -0.050093901401 0.098339231501 -0.17303387348 0.031975936519 0.29996409037 -0.06791881777 -0.066304993731 0.32559083846 
-0.097942661271 -0.069541688175 0.10390557616 0.040424626167 0.0261220771 0.2144152608 -0.018840088479 0.069434105413 0.1936604621 
-0.13214683177 -0.067277182349 0.26511501424 -0.028544931124 -0.10195216212 0.30901793274 -0.04405830697 0.26736453556 0.017374951324 
-0.20303842234 0.011522371665 0.23592088243 -0.0039474274206 0.064434975572 0.013226786892 0.068454192173 0.11783341014 0.37813682968 
-0.33051196066 0.047754499101 0.1319760512 -0.12707747413 0.13286770445 0.41749690769 -0.067607752407 0.049279281603 0.084733043177 
0.26900809817 0.12559383231 0.26540506232 0.18254870828 -0.11824614167 0.15004558407 0.3328957553 0.063775046585 0.25604223101 
0.3578432877 -0.19892360032 0.023048712328 -0.22138755985 0.21237150499 0.10573670018 -0.12012264761 -0.010164779929 0.33867882001 
0.17601177788 -0.17980731002 0.17591906654 -0.29655995452 -0.13147188911 -0.25269901608 0.29289124973 -0.14482950302 0.088599820917 
-0.18667567541 0.23995192535 0.26989260507 0.28346375714 -0.12745251145 0.23610025788 -0.13387577423 -0.035339918049 -0.049005670824 
-0.046256332138 0.015284199201 0.41422699602 0.18097959798 -0.10524370937 0.36343300412 -0.029719203525 -0.065097551106 -0.025042558332 
0.095450889004 0.0036307631774 -0.38110498128 
f 3 70 double
0 0 -0.0012841259972 -0.0031747629849 -0.0087604213352 0.0040207538542 0.00015957980826 -0.00050080361548 -0.0014965914776 
0 0 -0.0012841259972 0 0 -0.0012841259972 -0.0015933642647 -0.0040555627807 0.0025253138757 
0 0 -0.0012841259972 0 0 -0.0012841259972 -0.0012200521328 0.0042507892236 -0.0037264073637 
0 0 -0.0012841259972 -0.0080589508214 -0.0024152039604 -0.011404769733 -0.00023762150585 -0.0022625640493 -0.0027696219748 
0 0 -0.0012841259972 0 0 -0.0012841259972 -0.0004731367642 0.017518439975 -0.0076917379317 
0 0 -0.0012841259972 0 0 -0.0012841259972 0 0 -0.0012841259972 
0.00099731002321 0.0029598132113 0.00078710155691 0 0 -0.0012841259972 0 0 -0.0012841259972 
0 0 -0.0012841259972 0 0 -0.0012841259972 0 0 -0.0012841259972 
0.013694697288 0.024315494975 -0.0066047635249 0.043223162203 0.059946914237 -0.019671635783 0 0 -0.0012841259972 
-0.06987737992 0.077126694142 0.0094261562697 0 0 -0.0012841259972 0 0 -0.0012841259972 
0 0 -0.0012841259972 0 0 -0.0012841259972 0.21578133176 -0.21844161712 0.035245177385 
-0.0032195984931 -0.0027469458312 0.0011559500906 0 0 -0.0012841259972 0 0 -0.0012841259972 
0 0 -0.0012841259972 0 0 -0.0012841259972 0 0 -0.0012841259972 
0 0 -0.0012841259972 0 0 -0.0012841259972 0 0 -0.0012841259972 
0 0 -0.0012841259972 0 0 -0.0012841259972 0 0 -0.0012841259972 
0 0 -0.0012841259972 0 0 -0.0012841259972 0 0 -0.0012841259972 
0 0 -0.0012841259972 0 0 -0.0012841259972 0 0 -0.0012841259972 
0 0 -0.0012841259972 0 0 -0.0012841259972 0 0 -0.0012841259972 
0 0 -0.0012841259972 0 0 -0.0012841259972 0 0 -0.0012841259972 
0 0 -0.0012841259972 0 0 -0.0012841259972 0 0 -0.0012841259972 
0 0 -0.0012841259972 0 0 -0.0012841259972 0 0 -0.0012841259972 
0 0 -0.0012841259972 0 0 -0.0012841259972 0 0 -0.0012841259972 
0 0 -0.0012841259972 0 0 -0.0012841259972 0 0 -0.0012841259972 
0 0 -0.0012841259972 
radius 1 70 double
0.005 0.005 0.005 0.005 0.005 0.005 0.005 0.005 0.005 
0.005 0.005 0.005 0.005 0.005 0.005 0.005 0.005 0.005 
0.005 0.005 0.005 0.005 0.005 0.005 0.005 0.005 0.005 
0.005 0.005 0.005 0.005 0.005 0.005 0.005 0.005 0.005 
0.005 0.005 0.005 0.005 0.005 0.005 0.005 0.005 0.005 
0.005 0.005 0.005 0.005 0.005 0.005 0.005 0.005 0.005 
0.005 0.005 0.005 0.005 0.005 0.005 0.005 0.005 0.005 
0.005 0.005 0.005 0.005 0.005 0.005 0.005 
omega 3 70 double
-0.8123149436 -0.093005374197 0.27040222125 1.0056073039 0.68259751932 -0.44187278589 -0.29389536978 0.86180374438 -0.56630833653 
0.65206882174 -0.049966045849 -0.70646350369 -0.30873097628 -1.0489331146 0.3083233017 0.11491386955 0.74865943428 -0.80673988508 
1.5294383158 -0.033835384189 0.48880329135 0.13621803924 -0.12818203344 0.4474134965 -1.4115994014 -1.2208348295 1.2164753032 
-0.07167883842 0.074803463283 0.26498019579 1.5621284071 -0.084864432928 0.2480020551 -0.29763439009 0.40525888586 -0.52218376798 
0.18217957989 -0.16398819762 0.43506753965 -1.9833624701 0.32296207851 -2.4864451683 -0.94617036928 -0.37820244839 0.40239494726 
-1.691737534 3.3990783927 -1.0004822669 -0.022716812753 0.025321960474 0.15972417315 0.34012614445 0.55415227296 -0.8179705639 
0.40960656098 0.71330006184 0.62878787521 -2.5942004231 -2.4629133322 4.0174998183 -1.1244095907 0.18971979732 -0.56666891311 
-0.23473379018 1.1458292662 -0.56018526883 -7.3520074033 -0.6133960253 -2.8135399801 -4.7250049754 -7.4345101935 -4.6645790374 
3.4774618599 1.8356850598 0.92564691863 -0.65454805841 -1.7961359453 0.73400187438 3.1335531653 -3.0339142825 0.61536573977 
7.1454644515 5.0141849327 0.17062921251 0.2837624859 2.8446345896 1.703782755 -13.536613312 0.50658569211 -11.946473193 
18.7362238 24.03307907 9.5214826509 0.97740834438 26.148227474 -5.3064169076 2.7262760081 14.450253819 19.247208496 
-5.8046051525 -15.537468566 -22.190963871 -5.734500244 -25.355694151 10.581871275 7.4279680488 -17.406110235 -8.327136568 
-29.600835619 20.056748142 33.88178213 -5.5506376655 18.780275018 13.932344127 -8.630336198 7.29682703 -2.0828446367 
-0.94119323832 19.0777379 -16.108281275 -17.884781559 4.5140082096 15.174400389 -14.370369172 -10.360317342 -15.186180043 
-5.7125358422 -33.510669124 39.033518009 16.63997979 -5.0779716412 -3.9379840891 -17.655736392 -37.714178205 -53.979611549 
-3.2428564116 -27.590977353 -6.4658351675 6.2739209015 8.1383242898 -24.141528143 72.280364831 57.511798513 -20.373325032 
26.339854658 43.382249653 4.6711278658 13.620939944 10.684999072 -4.432819816 12.342048001 -16.888713892 -39.563279907 
-39.890014442 -22.865575361 0.12725977169 -4.6151007976 -27.906194788 23.381634712 -1.5335200898 -8.1034929436 -20.834160879 
-8.6505465916 -14.638283845 3.8326372084 21.706546066 1.0287005247 -20.875992801 -39.355930323 112.70013977 21.023245932 
9.1541851149 83.633023734 -15.528767664 -43.277612223 -30.285918101 -1.7074919897 40.371948368 -30.935160547 -23.508057507 
73.336704344 -66.895945853 -28.499470457 47.497784312 -26.162260167 -0.51833340826 -17.642294556 -110.87820487 -11.355616446 
24.533975631 8.1761177349 61.273058838 17.541961676 28.603586474 11.742863664 6.9000298013 -19.486252429 -2.3996912814 
-24.39705551 -12.774309515 -8.6206870442 -7.8558289351 28.632995346 12.065678863 4.9947041118 -11.122212847 2.555005045 
29.066467202 -5.7598807218 -0.42693306017 
