# vtk DataFile Version 4.2
Generated by LIGGGHTS
ASCII
DATASET POLYDATA
POINTS 70 float
0.003399 -0.0117946 0.0111974 0.0150542 -0.0101987 0.0118499 0.00882939 -0.0152776 0.0113176 
-0.0166285 -0.000602906 0.0122531 -0.012413 0.00526546 0.00980065 0.00193845 0.00760626 0.00887392 
-0.0118007 0.0141132 0.00910879 -0.00473752 0.0110575 0.00896124 0.00497772 0.0151245 0.0115368 
0.0120668 0.0123148 0.0107071 0.000559983 0.0185136 0.00917451 -0.00874467 -0.0147996 0.0196737 
-0.0180227 -0.00760314 0.0153817 -0.0115517 -0.00309559 0.0175713 0.0117267 -0.00427684 0.0166182 
0.0188341 -0.00682645 0.0174366 -0.0103502 0.0026764 0.0186936 0.000308786 0.004323 0.0160657 
0.0165261 0.00157525 0.014242 0.00853329 0.00711276 0.019609 -0.00341534 0.021697 0.0130339 
0.00574746 0.020883 0.0166614 0.0125209 -0.018067 0.0214514 -0.017372 -0.00208261 0.0253341 
-0.0144395 -0.00822676 0.0224299 -0.00310469 -0.00585854 0.0232234 -0.013474 0.00588588 0.0268359 
8.30018e-05 0.00152847 0.0215484 0.00669607 0.0127115 0.0207681 -0.00406399 -0.0197446 0.0366017 
0.00361365 -0.0203537 0.0339103 -0.017299 -0.0106284 0.0327855 -0.00477145 -0.0131505 0.0360216 
0.00383313 -0.0140082 0.0346897 0.0127464 -0.0106181 0.0358916 -0.0212907 -0.00237909 0.0327206 
-0.0182185 -0.00595242 0.0365626 -0.0147264 -0.00100901 0.0364423 -0.00784119 -0.000112017 0.0315757 
0.00299062 -0.0035178 0.0325319 0.00908761 -0.00565825 0.0346797 0.0147298 -0.0046407 0.0365215 
0.0206247 -0.00390818 0.034953 -0.0092757 0.00593416 0.0327174 0.00043232 0.00228201 0.0319555 
0.0122314 0.00499917 0.0319642 0.020354 0.00788146 0.0342268 -0.00251678 0.0198523 0.0365904 
0.00377933 0.0188552 0.0357162 -0.010303 -0.0192754 0.0374708 -0.0155237 -0.0153351 0.0381503 
-0.012009 -0.00875976 0.0389705 0.00165892 -0.00878752 0.0382759 -0.008333 -0.00277734 0.0373054 
-0.00076275 -0.000616314 0.0376328 -0.0201362 0.00201825 0.0382028 -0.0145631 0.0051244 0.0371097 
-0.00108148 0.00648931 0.0372382 -0.00666618 0.00328385 0.0376099 0.0129855 0.00141966 0.0371531 
0.0139912 0.00746192 0.0379578 0.0207713 0.0020471 0.0378709 -0.0195233 0.00851545 0.038429 
-0.0132593 0.0153634 0.0370329 -0.0104027 0.00987678 0.0372285 -0.00710285 0.0159131 0.0376318 
-0.00183378 0.0127484 0.0371631 0.00568878 0.0123295 0.0372271 0.0116738 0.013893 0.0380847 
0.0179664 0.0122088 0.0381713 
VERTICES 70 140
1 0 
1 1 
1 2 
1 3 
1 4 
1 5 
1 6 
1 7 
1 8 
1 9 
1 10 
1 11 
1 12 
1 13 
1 14 
1 15 
1 16 
1 17 
1 18 
1 19 
1 20 
1 21 
1 22 
1 23 
1 24 
1 25 
1 26 
1 27 
1 28 
1 29 
1 30 
1 31 
1 32 
1 33 
1 34 
1 35 
1 36 
1 37 
1 38 
1 39 
1 40 
1 41 
1 42 
1 43 
1 44 
1 45 
1 46 
1 47 
1 48 
1 49 
1 50 
1 51 
1 52 
1 53 
1 54 
1 55 
1 56 
1 57 
1 58 
1 59 
1 60 
1 61 
1 62 
1 63 
1 64 
1 65 
1 66 
1 67 
1 68 
1 69 

POINT_DATA 70
FIELD FieldData 7
id 1 70 int
44 401 436 3257 801 209 2836 1958 903 
292 602 212 732 709 388 573 2287 535 
290 1777 2857 2180 1391 2676 911 472 2199 
672 2611 1971 1490 2133 851 2301 1459 1177 
2841 3277 2454 1401 952 3323 2015 2208 2489 
2602 924 2712 3312 1396 3144 1507 657 2914 
2945 2749 3036 2824 2664 1168 2149 1511 3103 
3042 2256 3260 2546 744 1632 1811 
type 1 70 int
2 2 2 2 2 2 2 2 2 
2 2 2 2 2 2 2 2 2 
2 2 2 2 2 2 2 2 2 
2 2 2 2 2 2 2 2 2 
2 2 2 2 2 2 2 2 2 
2 2 2 2 2 2 2 2 2 
2 2 2 2 2 2 2 2 2 
2 2 2 2 2 2 2 
i 3 70 int
0 0 0 0 0 0 0 0 0 
0 0 0 0 0 0 0 0 0 
0 0 0 0 0 0 0 0 0 
0 0 0 0 0 0 0 0 0 
0 0 0 0 0 0 0 0 0 
0 0 0 0 0 0 0 0 0 
0 0 0 0 0 0 0 0 0 
0 0 0 0 0 0 0 0 0 
0 0 0 0 0 0 0 0 0 
0 0 0 0 0 0 0 0 0 
0 0 0 0 0 0 0 0 0 
0 0 0 0 0 0 0 0 0 
0 0 0 0 0 0 0 0 0 
0 0 0 0 0 0 0 0 0 
0 0 0 0 0 0 0 0 0 
0 0 0 0 0 0 0 0 0 
0 0 0 0 0 0 0 0 0 
0 0 0 0 0 0 0 0 0 
0 0 0 0 0 0 0 0 0 
0 0 0 0 0 0 0 0 0 
0 0 0 0 0 0 0 0 0 
0 0 0 0 0 0 0 0 0 
0 0 0 0 0 0 0 0 0 
0 0 0 
v 3 70 double
-0.0087287662243 -0.01245219731 -0.42746618682 0.0063603444795 0.021639213973 -0.41580504429 -0.0015792171781 0.006021635803 -0.43229248807 
-0.00238823574 0.017943646552 -0.41547391674 0.00068465843695 0.011840144738 -0.41363118552 -0.0039276127234 0.008505275465 -0.42219544302 
-0.0036890254443 0.010309665983 -0.41969864501 -0.0070713043955 0.0093497277301 -0.42309019266 -0.010659646006 0.0071132922859 -0.41669855785 
-0.015644450155 0.010665582457 -0.42309735642 -0.0071405726953 0.0028787022741 -0.42503815674 -0.013308034923 0.028931699401 -0.43402857206 
-0.003677219715 0.021273410915 -0.41278381454 0.0025118368424 0.0045257193168 -0.41604109461 -0.00015243512111 0.0023217329346 -0.41380942654 
0.0060805401549 -0.0025590060631 -0.42776916817 0.0075828738853 0.0049372474316 -0.40916318071 0.0043041739186 -0.0023936314664 -0.41595667812 
-0.005639930178 0.012063167992 -0.40891470516 -0.0026134069631 0.0023282060711 -0.40863799079 -0.012763458592 -0.0018413881328 -0.42087189074 
-0.013590206248 0.0028668110098 -0.41091134624 -0.012491476036 -0.0068525037226 -0.41639262686 -0.0033411282055 0.0051571065846 -0.40922017171 
-0.014063741131 0.023162525424 -0.42199706292 0.00092904754456 -0.018308898718 -0.40661077263 -0.00082794025336 -0.00054021032799 -0.41403940029 
0.010396594305 -0.016029575691 -0.40875788968 -0.01106512874 -0.006445337321 -0.41471567253 0.0074199579912 -0.22688580384 -0.32031368122 
-0.011129974447 -0.001884514516 -0.38325264782 0.079131324032 0.0032014034569 -0.35560183418 0.076192140169 0.016019123013 -0.36435235968 
-0.049266437251 -0.062027484382 -0.38698780684 -0.20748332019 -0.12553959943 -0.41872451072 -0.018326992638 -0.053711921266 -0.39893742808 
0.059646959694 -0.019133108537 -0.36711043349 0.0072418470982 -0.051086483379 -0.32007982013 -0.032965593504 -0.049550753438 -0.38691220079 
0.088666052648 -0.045012119764 -0.36563610939 0.018136007252 -0.11314713208 -0.30818181118 -0.11916120832 -0.12265429194 -0.37837306359 
-0.057497169475 0.030981989592 -0.29267473647 0.024719241917 -0.029981784708 -0.33714154799 0.031427701159 -0.096885939949 -0.39733325414 
-0.014005116617 0.0096269883551 -0.34791739442 -0.0026041545943 -0.005171623117 -0.31227057592 -0.017234362528 -0.021332847211 -0.35150598739 
0.036735665289 -0.031896720049 -0.36060371738 -0.032527451921 0.007304974069 -0.35065433074 0.034038320333 -0.04987538259 -0.31346930327 
0.036063578457 0.034535068571 -0.25642402354 0.0089600923912 -0.11536511199 -0.26264228742 0.069377746215 -0.060818280334 -0.31139154191 
0.042306126702 -0.065656175915 -0.3318178861 0.039273539678 -0.0718183536 -0.28903082452 -0.034342537874 -0.023052768338 -0.35822998407 
-0.057700089953 -0.11293338184 -0.33818397762 0.025592388389 -0.010046231252 -0.3381647166 -0.058128077293 -0.064838767722 -0.36547795302 
-0.10575024095 -0.11457541924 -0.31378121496 0.042955782894 -0.039770480493 -0.30541618751 0.006893437498 -0.063163605351 -0.25930978002 
0.0038076411153 -0.0042096795788 -0.33898982447 0.059603623202 -0.031319766741 -0.32158352872 -0.0069849515221 -0.078197636509 -0.33778397431 
0.026577787077 -0.071198291251 -0.36918745965 -0.013256681971 -0.10128355424 -0.34368815845 0.030252215097 -0.069645093674 -0.26793354788 
0.10164937639 -0.031570119293 -0.27986789901 
f 3 70 double
0 0 -0.00027737121539 0 0 -0.00027737121539 0 0 -0.00027737121539 
-2.9807010235e-05 0.00030156472115 1.1841942824e-05 -0.00045496977862 -0.00010418206679 -0.00011703311718 -0.00030190116807 -3.7814557469e-05 -0.00016818797135 
2.1693957523e-05 2.453796162e-05 -0.0002653894859 -5.894190284e-05 -0.00013619845836 -0.00028929849217 -0.00058232971078 -0.00095662184666 -0.00010303332588 
0.00043128723909 9.0432916865e-06 -0.00053545836317 -6.0917196572e-05 -0.0002320613809 -0.00043853920414 0.0026622961111 -0.00061202195142 0.0033765302281 
-0.00029509359768 -0.00082420841893 -0.00046044797939 -0.00011279786043 0.00012504108082 -2.281954642e-05 0 0 -0.00027737121539 
0.0031547248537 0.00071408800401 0.0031869864521 -1.5653207029e-05 7.824111692e-06 -0.00026844486533 0 0 -0.00027737121539 
2.3935034441e-05 -3.7927363988e-05 -0.00022714055621 0.00038845039065 -0.00044507377734 -0.00011845835819 0.0010960780863 0.00027250699114 -0.00043014729152 
0.00028014187599 -0.00042508426353 9.5905829892e-05 1.3902056385e-05 -0.00091384906892 -0.00010617150708 0 0 -0.00027737121539 
4.8454205812e-05 -0.001850724913 0.0002054601346 0 0 -0.00027737121539 0 0 -0.00027737121539 
0 0 -0.00027737121539 0.00062821585514 0.0013582953906 -0.00039274436927 0 0 -0.00027737121539 
0 0 -0.00027737121539 0 0 -0.00027737121539 0 0 -0.00027737121539 
0 0 -0.00027737121539 0 0 -0.00027737121539 0 0 -0.00027737121539 
0 0 -0.00027737121539 0 0 -0.00027737121539 0 0 -0.00027737121539 
0 0 -0.00027737121539 0 0 -0.00027737121539 0 0 -0.00027737121539 
0 0 -0.00027737121539 0 0 -0.00027737121539 0 0 -0.00027737121539 
0.023246696984 -0.0027119869044 -0.0083659584043 0 0 -0.00027737121539 0 0 -0.00027737121539 
0 0 -0.00027737121539 0 0 -0.00027737121539 0 0 -0.00027737121539 
0 0 -0.00027737121539 0 0 -0.00027737121539 0 0 -0.00027737121539 
0 0 -0.00027737121539 0 0 -0.00027737121539 0 0 -0.00027737121539 
0 0 -0.00027737121539 0 0 -0.00027737121539 0 0 -0.00027737121539 
0 0 -0.00027737121539 0 0 -0.00027737121539 0 0 -0.00027737121539 
0 0 -0.00027737121539 0 0 -0.00027737121539 0 0 -0.00027737121539 
0 0 -0.00027737121539 0 0 -0.00027737121539 0 0 -0.00027737121539 
0 0 -0.00027737121539 
radius 1 70 double
0.003 0.003 0.003 0.003 0.003 0.003 0.003 0.003 0.003 
0.003 0.003 0.003 0.003 0.003 0.003 0.003 0.003 0.003 
0.003 0.003 0.003 0.003 0.003 0.003 0.003 0.003 0.003 
0.003 0.003 0.003 0.003 0.003 0.003 0.003 0.003 0.003 
0.003 0.003 0.003 0.003 0.003 0.003 0.003 0.003 0.003 
0.003 0.003 0.003 0.003 0.003 0.003 0.003 0.003 0.003 
0.003 0.003 0.003 0.003 0.003 0.003 0.003 0.003 0.003 
0.003 0.003 0.003 0.003 0.003 0.003 0.003 
omega 3 70 double
4.6098969479 0.94921886815 -3.7242448228 -0.9414411425 -1.6341627027 2.1092988497 2.425510128 -2.9238498505 1.7734527491 
1.7273127503 -0.86932769906 -2.3711438104 1.636917548 -0.99988472357 -1.5177916669 -0.5924409577 -0.76499849744 1.2673080779 
1.3799108314 -0.092230478367 -0.9259232243 0.60002972395 0.06707830541 -1.5618704417 -1.3074298822 0.38922016019 0.94128084299 
-0.96479233835 1.4601000879 0.77420149356 -0.14960105372 -2.5697782159 1.5021281828 -2.7466525848 4.9634325261 0.93918897401 
-0.62328621438 1.6077344034 -0.33575230012 -0.00035745936025 2.1964146054 -0.90673724607 0.82651049522 -2.4056984483 0.49140458084 
0.90526327795 2.8451332656 -0.24142044457 -0.49425662377 -0.032770684051 0.15743838114 1.4691262977 -0.74605061343 -0.57178923868 
-1.2574008884 -1.4406289854 1.3331376627 -0.83079635444 0.14684128359 0.28427267311 0.55166711756 0.5215950458 1.1372167702 
-0.66174494859 0.3451978071 1.2136085031 -0.12627224047 -8.2663115494 -7.1962398596 -0.13304485868 -4.6470162184 2.1776123304 
2.5456890416 -1.2197510792 -0.28653041199 -0.27496457657 -1.7332209959 -0.62208066948 8.8992350381 1.778817645 2.5732602577 
5.3979425686 3.2307528549 0.8154178928 -0.31250795281 2.8439733841 -0.32407025346 -10.968288348 18.28089189 -30.002953702 
-16.77223328 -11.74300868 10.897566272 -0.52554886294 -2.4190191768 16.079762679 22.955741143 -40.738640625 -13.532316574 
-23.281325499 1.2493087074 -10.363094219 13.394287873 -13.180988988 -42.927448766 2.4765780215 -2.8297570145 3.2023490891 
-14.949116854 3.7559560388 2.3535418866 13.871146882 -5.9318184912 -24.130342104 16.895964724 -8.7145255003 -4.0230587573 
-16.990504135 16.097600204 -3.8094536152 -21.785180401 -20.752216956 5.1334630233 6.1202937456 -9.1810303287 43.685312162 
-23.049842791 5.0529059091 3.6362610692 11.418237022 -11.693773657 2.0796960523 1.8602877738 7.4980937295 -2.6100022204 
17.370960035 0.94640386192 7.5701856805 35.786920197 -0.70654275841 -4.7833338315 -6.9296700545 -6.357622271 17.274940408 
-17.309286566 -32.059171588 -4.1266126023 -8.9128925497 31.315734772 -29.350953226 32.012653305 33.392780001 -11.71533762 
-8.6826107922 -9.1420776951 32.162388135 -11.927042997 -5.3674081107 37.683020285 14.798147828 -11.66333598 -8.0840173825 
-21.641214343 -20.200182434 -10.414779576 -8.0149161734 23.967612193 2.2844072025 -0.61278186019 -9.3116809375 -4.6376552517 
18.266558613 4.0773292312 -13.283893736 -0.71370949096 -6.690408388 6.8934357363 -2.818816451 -3.8763695803 -9.2449926475 
16.833197815 16.632260052 -16.569207264 13.124673002 43.304308508 -17.950393633 13.877586422 7.5609842119 -22.647667523 
-11.657501647 0.19727519462 14.800802176 -3.6728242798 -12.635026462 4.2474048289 6.0092839645 15.480282375 1.2980506736 
-6.2904564719 -14.059165327 -18.986234333 12.886526738 -6.5043214027 -5.9293370085 -10.94666151 -11.914812767 -13.998788324 
-2.8099968579 -3.1794118147 -5.1054061078 
