# vtk DataFile Version 4.2
Generated by LIGGGHTS
ASCII
DATASET POLYDATA
POINTS 70 float
0.0143014 -0.0231156 0.0189269 -0.0382314 -0.00754901 0.022581 -0.00723426 -0.00536932 0.0190527 
0.00127382 0.0204218 0.0244199 -0.0132737 0.0212 0.0214121 -0.014844 -0.0339552 0.032086 
-0.00146922 -0.0336811 0.0351134 0.016649 -0.037015 0.032751 -0.000989933 -0.0212689 0.0327149 
0.0288769 -0.0197251 0.0332789 -0.00467504 -0.006895 0.0343337 0.0230963 -0.000813828 0.0341844 
0.0268442 0.00991745 0.032034 0.00654133 -0.0403095 0.0387604 0.0123404 -0.0317446 0.0406477 
0.0255999 -0.0332395 0.0365073 0.0276201 -0.0251562 0.0429147 -0.0161741 -0.0160563 0.0395695 
0.0121004 -0.0171861 0.0415019 0.0351209 -0.0118201 0.0365951 -0.0399709 -0.0055367 0.04156 
-0.0141398 -0.0041972 0.0360535 0.0134225 -0.00405648 0.0383303 -0.0192182 0.00460001 0.0380281 
-0.00396547 0.0037136 0.0364487 0.00561382 0.0037203 0.0411681 0.0220369 0.00846232 0.0408821 
0.0326409 0.00129664 0.0382478 -0.0114289 0.0117644 0.0418572 0.00238557 0.0162376 0.0415768 
-0.0109702 0.0212589 0.0386197 -0.000163267 0.0264328 0.0386106 0.0340489 0.023763 0.0353565 
0.0191318 0.0306995 0.0377534 -0.00238874 -0.0393334 0.0479741 0.0209651 -0.0308183 0.0480554 
-0.00803412 -0.0272306 0.0461958 0.00143 -0.0274137 0.0499974 -0.0315713 -0.0132489 0.0467609 
-0.0146037 -0.00333555 0.0493961 -0.00597799 -0.0094433 0.048481 0.00682843 -0.00547003 0.0506426 
-0.0318458 0.00416607 0.0528024 0.0222054 0.00293615 0.0501566 0.0341878 0.00405857 0.049789 
-0.0248763 0.0156028 0.0468184 -0.00292802 0.0104908 0.0482672 0.0144698 0.00994784 0.0522795 
0.0112829 0.0299774 0.0483614 -0.0158362 0.0381974 0.0531206 -0.00993514 0.038991 0.044529 
0.000759275 0.0381543 0.0478065 -0.0141741 -0.0279131 0.0561324 0.0320248 -0.0253871 0.0646329 
-0.0304935 -0.0198649 0.0563218 0.0221865 -0.0153328 0.0615834 -0.0403547 -0.0064048 0.0632147 
0.0319966 -0.000534223 0.0642888 -0.0411667 0.00576519 0.0592827 -0.02592 0.0076371 0.063607 
-0.0136753 0.0101734 0.0568879 0.00381276 0.012219 0.0599543 -0.0345112 0.0225415 0.0552476 
0.0156791 0.0239934 0.0615576 0.000870866 0.0314024 0.0561763 -0.00577198 -0.0111883 0.0690652 
-0.0207332 -0.008568 0.0651802 0.00324142 0.0240923 0.0669617 -0.0145661 0.0315654 0.0656593 
-0.0387768 0.0102193 0.0841831 
VERTICES 70 140
1 0 
1 1 
1 2 
1 3 
1 4 
1 5 
1 6 
1 7 
1 8 
1 9 
1 10 
1 11 
1 12 
1 13 
1 14 
1 15 
1 16 
1 17 
1 18 
1 19 
1 20 
1 21 
1 22 
1 23 
1 24 
1 25 
1 26 
1 27 
1 28 
1 29 
1 30 
1 31 
1 32 
1 33 
1 34 
1 35 
1 36 
1 37 
1 38 
1 39 
1 40 
1 41 
1 42 
1 43 
1 44 
1 45 
1 46 
1 47 
1 48 
1 49 
1 50 
1 51 
1 52 
1 53 
1 54 
1 55 
1 56 
1 57 
1 58 
1 59 
1 60 
1 61 
1 62 
1 63 
1 64 
1 65 
1 66 
1 67 
1 68 
1 69 

POINT_DATA 70
FIELD FieldData 7
id 1 70 int
28 112 1004 307 249 466 1400 340 455 
2779 1075 1767 973 1449 2266 681 1614 373 
1563 205 2389 805 2199 2714 1508 1535 1956 
1244 586 1752 2586 197 1144 1616 733 1150 
2111 1924 1964 2432 421 2735 2721 886 1364 
1296 907 2331 2156 2109 1872 2012 474 2556 
2724 1267 2527 1627 1894 2039 369 1092 1100 
2701 1405 1331 716 1692 1642 1933 
type 1 70 int
2 2 2 2 2 2 2 2 2 
2 2 2 2 2 2 2 2 2 
2 2 2 2 2 2 2 2 2 
2 2 2 2 2 2 2 2 2 
2 2 2 2 2 2 2 2 2 
2 2 2 2 2 2 2 2 2 
2 2 2 2 2 2 2 2 2 
2 2 2 2 2 2 2 
i 3 70 int
0 0 0 0 0 0 0 0 0 
0 0 0 0 0 0 0 0 0 
0 0 0 0 0 0 0 0 0 
0 0 0 0 0 0 0 0 0 
0 0 0 0 0 0 0 0 0 
0 0 0 0 0 0 0 0 0 
0 0 0 0 0 0 0 0 0 
0 0 0 0 0 0 0 0 0 
0 0 0 0 0 0 0 0 0 
0 0 0 0 0 0 0 0 0 
0 0 0 0 0 0 0 0 0 
0 0 0 0 0 0 0 0 0 
0 0 0 0 0 0 0 0 0 
0 0 0 0 0 0 0 0 0 
0 0 0 0 0 0 0 0 0 
0 0 0 0 0 0 0 0 0 
0 0 0 0 0 0 0 0 0 
0 0 0 0 0 0 0 0 0 
0 0 0 0 0 0 0 0 0 
0 0 0 0 0 0 0 0 0 
0 0 0 0 0 0 0 0 0 
0 0 0 0 0 0 0 0 0 
0 0 0 0 0 0 0 0 0 
0 0 0 
v 3 70 double
-0.0034266674848 -0.25534126152 0.24070018177 0.015533395166 0.085051397138 0.37245171361 0.00040969161905 -0.068306457999 0.48770228609 
-0.11293259829 -0.06432951528 0.39325625895 -0.12292974762 0.066749859734 0.30118796655 -0.28859502442 -0.24800026401 0.024028282142 
0.39292260825 -0.14778985829 0.24345639023 -0.24352753071 0.067862296749 0.45736919442 -0.19544464437 -0.37420718509 0.35009494547 
-0.11410081697 -0.22745139944 0.41552793551 -0.18898325998 0.035169705815 0.053134530449 -0.27259239435 -0.18718097441 0.25417133224 
-0.077193926867 0.079339411923 -0.44511536694 0.031057721749 0.015504051935 -0.46372372737 0.068969356072 0.13618629977 -0.46464297982 
0.24605270383 0.1416690321 -0.1220983899 0.012290469102 0.093147780826 -0.35149455853 0.057381147455 0.13445494342 -0.38171013886 
-0.12611895432 -0.031791520289 -0.4048770381 0.062262957941 0.20619406009 -0.14135096962 -0.10009464921 0.035741373536 -0.35483482114 
-0.21605941538 0.034286144631 -0.35459013163 0.027971208345 -0.075816015751 -0.43543118854 -0.028269638659 -0.02911310066 -0.47882739851 
0.02050560627 -0.0056944221786 -0.4462541837 -0.032837640539 -0.024641143322 -0.36420315945 -0.055269023516 0.20813286268 -0.11993429775 
-0.015356342145 0.020493248829 -0.40750259822 -0.031009693466 -0.014288261762 -0.34929546292 -0.010273854998 -0.0036274286753 -0.34865089914 
0.029260198716 -0.068237322356 -0.40910720123 0.098181806845 0.00057798054974 -0.39926040529 -0.040694441987 -0.020941413283 -0.38452087063 
-0.046111348007 0.081651555857 -0.39333814597 0.17590480511 -0.091258051877 -0.36283848732 -0.010676381105 -0.038917013785 -0.32401776991 
-0.053320709048 -0.02985831071 -0.36620968621 -0.013849374765 -0.16036317436 -0.28178746304 0.011476387258 0.034116607715 -0.311870136 
0.1461694061 0.059503762394 -0.31815927004 0.02510222488 0.19997425931 -0.31754802768 0.10146228618 0.035925010574 -0.36771999487 
0.037804955528 -0.14870602721 -0.24898166371 -0.082653629557 -0.099968499705 -0.41291476786 -0.015016268336 -0.22091157615 -0.24355132898 
-0.11055901516 0.022786899007 -0.32600337492 0.03832216686 0.081531157799 -0.25300089322 -0.012002487929 -0.048276140547 -0.31124153226 
-0.06520906879 0.20446647501 -0.32099730176 -0.016464374908 0.074730580254 -0.26714488007 -0.21825306575 -0.059450384642 -0.33916240404 
-0.14317708636 -0.10790178258 -0.36536026191 0.06138240545 0.20065425689 -0.37311940754 -0.031918961539 -0.19172502443 -0.24331420741 
0.083985522166 0.049831587336 -0.21343324816 0.090993890941 -0.0047701241919 -0.14103116446 -0.036798283939 -0.04070701603 -0.012509411536 
-0.026087408389 -0.0018179219748 -0.14773471058 0.064409844247 0.11993108972 -0.18754075385 0.044578601881 0.15800061768 -0.29462958312 
0.17873597492 -0.028703401276 -0.2609340171 -0.00049292159102 -0.14070864088 -0.24307791325 -0.11943512348 -0.03208621458 -0.26339173327 
-0.21217332012 0.1276746935 -0.23936616337 -0.13213140425 0.035054425521 -0.21240848384 0.11211172717 0.0045637121167 -0.11323956451 
0.041038237257 0.15267339209 -0.22191950454 0.15235941037 0.046139257071 -0.068757478786 0.16363512039 0.078831692012 -0.1304350525 
-0.028355023917 0.068819285557 0.067302550517 
f 3 70 double
-0.00095451908501 -0.0070184840093 -0.013953780835 -0.11131122116 -0.017740913271 0.16267274429 0 0 -0.0012841259972 
0 0 -0.0012841259972 0 0 -0.0012841259972 0 0 -0.0012841259972 
0 0 -0.0012841259972 0 0 -0.0012841259972 0 0 -0.0012841259972 
0 0 -0.0012841259972 0.96506030332 -0.31498156978 -0.74984155058 0 0 -0.0012841259972 
0 0 -0.0012841259972 0 0 -0.0012841259972 0 0 -0.0012841259972 
0 0 -0.0012841259972 0 0 -0.0012841259972 0 0 -0.0012841259972 
0 0 -0.0012841259972 0 0 -0.0012841259972 0 0 -0.0012841259972 
-0.96506030332 0.31498156978 0.74727329858 0 0 -0.0012841259972 0 0 -0.0012841259972 
0 0 -0.0012841259972 0 0 -0.0012841259972 0 0 -0.0012841259972 
0 0 -0.0012841259972 0 0 -0.0012841259972 0 0 -0.0012841259972 
0 0 -0.0012841259972 0 0 -0.0012841259972 0 0 -0.0012841259972 
0 0 -0.0012841259972 0 0 -0.0012841259972 0 0 -0.0012841259972 
0 0 -0.0012841259972 0 0 -0.0012841259972 0 0 -0.0012841259972 
0 0 -0.0012841259972 0 0 -0.0012841259972 0 0 -0.0012841259972 
0 0 -0.0012841259972 0 0 -0.0012841259972 0 0 -0.0012841259972 
-0.014191775782 -0.039169562131 -0.02460717107 0 0 -0.0012841259972 0 0 -0.0012841259972 
0 0 -0.0012841259972 0 0 -0.0012841259972 0 0 -0.0012841259972 
0 0 -0.0012841259972 0 0 -0.0012841259972 0 0 -0.0012841259972 
0 0 -0.0012841259972 0 0 -0.0012841259972 0 0 -0.0012841259972 
0 0 -0.0012841259972 0 0 -0.0012841259972 0 0 -0.0012841259972 
0 0 -0.0012841259972 0 0 -0.0012841259972 0 0 -0.0012841259972 
0 0 -0.0012841259972 0 0 -0.0012841259972 0 0 -0.0012841259972 
0 0 -0.0012841259972 0 0 -0.0012841259972 0 0 -0.0012841259972 
0 0 -0.0012841259972 
radius 1 70 double
0.005 0.005 0.005 0.005 0.005 0.005 0.005 0.005 0.005 
0.005 0.005 0.005 0.005 0.005 0.005 0.005 0.005 0.005 
0.005 0.005 0.005 0.005 0.005 0.005 0.005 0.005 0.005 
0.005 0.005 0.005 0.005 0.005 0.005 0.005 0.005 0.005 
0.005 0.005 0.005 0.005 0.005 0.005 0.005 0.005 0.005 
0.005 0.005 0.005 0.005 0.005 0.005 0.005 0.005 0.005 
0.005 0.005 0.005 0.005 0.005 0.005 0.005 0.005 0.005 
0.005 0.005 0.005 0.005 0.005 0.005 0.005 
omega 3 70 double
-12.128374257 3.0904084801 -10.039245931 -6.3564419059 -10.169382399 -1.0021530644 0.11101078652 -3.6024891364 -1.5104583331 
38.482528936 -15.023122965 15.64833156 -10.462827929 -10.073777608 -3.6060438439 8.4570915462 -0.53714366018 24.458220302 
-23.806910423 1.5413889494 5.0763412369 -26.334568451 11.730326315 20.811773869 11.917142634 2.5325019322 -11.078861229 
-51.491819807 -30.937529959 -52.887586829 -8.1630394592 -52.504795645 -22.328162042 -0.39124477289 -7.6275516865 -5.6261229047 
-11.271896548 -2.7634277784 -8.3431954886 -7.7550058806 -1.3821523536 -1.2203112035 -1.1900358172 5.4921397868 10.813991703 
-31.633783816 64.14150548 -4.9479717313 -0.36427951214 1.9672421164 4.9907297536 14.031997885 10.226750852 -6.6193461678 
-12.090175435 -15.575868549 27.963684411 -54.170691129 40.953718485 -31.384631377 -6.1304436766 -4.1525388888 -2.5384104244 
-8.41473445 -32.320685104 23.06376818 -10.743134481 10.85309429 4.562973941 13.791401588 -1.5426508119 -28.035749799 
10.712785374 -1.3689220642 -11.695733424 9.0398980538 -8.8072084203 6.7795553209 53.560288285 -14.377503838 27.445315666 
-13.594218841 -5.4135286864 -13.427642893 -11.526416157 -6.0599668626 4.905858599 3.5486207909 -15.36172094 -1.2028378036 
-13.188477583 -34.504730964 -11.987567379 9.8257199124 22.364485065 4.9697700655 -15.453929019 -13.101089539 -0.45399903488 
-0.70250804971 2.2445337752 -11.344160199 5.624292372 6.5415867958 25.253709688 3.6922906504 11.316212034 10.491174571 
0.01330261193 16.869444009 8.0404127489 4.7172397713 -40.19711191 -34.062506634 -11.049068562 3.4608244844 4.7509576115 
-29.107569246 -20.302207185 31.247288863 3.4984878495 -56.905344075 -3.9062902556 15.662944318 -25.487379191 31.874780369 
1.8710514505 12.477955546 4.9322261444 18.505327991 -16.111935275 41.345356298 -6.1020958748 -35.284339521 14.122409687 
-0.27094598274 16.384455538 -23.926910852 -27.797896878 1.4617549126 -6.8455880925 -5.7596433814 -1.1647781597 28.319115086 
-18.647788757 -7.4886824399 -13.668121073 -39.777409678 -15.19961616 -12.025583969 12.656799049 -35.412954667 -1.7525292494 
37.221227117 45.91194876 9.5635272603 4.4596839142 -31.163591366 0.28266702355 -9.4375219925 -5.4827179422 5.7709324289 
-13.448013147 24.933341996 24.173795825 19.594418147 22.379842175 -20.569834418 -8.2102733176 -24.209491011 -10.83123779 
-25.127849594 7.9198406782 -8.378249744 -1.0745242386 0.20250691566 -0.003136191354 35.828099925 -57.907138089 -5.3630988632 
-24.963861566 29.77681264 7.7103530653 25.245080771 21.794805053 -44.561098087 2.9155679302 8.5484495269 -15.850889975 
24.659852354 -31.420080569 43.942471232 -24.763040702 18.361349644 27.755272673 -3.2979507975 21.14705028 -46.911909897 
-13.394375272 44.974583988 61.126269545 -0.33538956918 25.825690887 3.1960699792 16.636666866 9.353183795 16.791789301 
-29.767752456 -12.19005221 12.041988258 
