# vtk DataFile Version 4.2
Generated by LIGGGHTS
ASCII
DATASET POLYDATA
POINTS 70 float
0.00617067 -0.0115244 0.0158397 0.0116295 -0.0143734 0.0167456 0.0171483 -0.00793359 0.0193771 
-0.018623 0.000263129 0.019156 -0.0127526 0.0043245 0.0159858 0.00470442 0.00787418 0.0155303 
-0.0146277 0.0126068 0.0149051 -0.00377323 0.0109062 0.0149639 0.00862214 0.0146195 0.0179549 
0.0148653 0.0104662 0.0193641 -0.00260099 0.0217361 0.0173077 0.00338056 0.0180009 0.0150056 
0.0084305 0.0201683 0.0205434 -0.0125935 -0.0178588 0.027831 -0.00566874 -0.0212186 0.0274877 
0.00362217 -0.0213625 0.0274308 0.00821818 -0.020079 0.0232806 -0.00865785 -0.0151174 0.0239231 
-0.0023316 -0.0165546 0.0251606 0.00673426 -0.01362 0.0274691 0.0149673 -0.0158776 0.0215144 
-0.0191608 -0.00588216 0.0280631 -0.0111788 -0.00359754 0.0225055 -0.00304211 -0.00553281 0.0270779 
0.0128565 -0.00278414 0.0241093 0.0194341 -0.00422028 0.02802 -0.0107215 0.0021363 0.0242126 
-0.000167946 0.0015421 0.026992 0.000524139 0.00391722 0.021235 0.00763412 0.00740556 0.0263203 
0.0164199 0.00342858 0.0280865 0.00501692 0.0128586 0.0261927 0.00348104 0.0215728 0.0263027 
-0.0115028 -0.012637 0.0309047 0.0082802 -0.00871943 0.0332026 0.014499 -0.0131244 0.0290479 
-0.0173867 -0.00800608 0.0334106 -0.0119891 -0.0066638 0.0301898 -0.0133278 -0.00127123 0.032462 
-0.0116765 0.00653917 0.0309268 -0.00580395 0.00789879 0.0325333 -0.00634753 0.0129245 0.0367151 
0.0158428 0.0118562 0.0306472 -0.00923458 -0.018616 0.0433275 -0.00168456 -0.0203896 0.0433037 
0.0104378 -0.0168647 0.0423495 -0.0168905 -0.00915608 0.0431922 -0.0145529 -0.015458 0.0430581 
0.00933173 -0.00891035 0.0425687 -0.0184239 -0.00219687 0.0432647 -0.0108032 -0.00463065 0.0433215 
-0.00263085 -0.00817424 0.0406024 -0.00368666 -0.00271879 0.0432956 0.00288261 -0.00141665 0.0432573 
-0.0210072 0.00528152 0.0433337 -0.0118897 0.00751777 0.0432986 -0.0137414 0.00173614 0.0432624 
-0.00140278 0.00469386 0.0432057 -0.00703736 0.00247157 0.0432635 0.0122201 0.00596178 0.0412352 
0.0186616 0.00529163 0.0430364 -0.0119653 0.0159928 0.0433379 -0.011962 0.0120196 0.0388386 
-0.000882977 0.0132308 0.0422762 0.0068511 0.0120588 0.0401937 0.0167299 0.0137248 0.0430693 
-0.00578039 0.0168096 0.0433367 -0.000948443 0.0197874 0.0411801 0.00439611 0.016748 0.0433412 
0.0103457 0.0190704 0.0428382 
VERTICES 70 140
1 0 
1 1 
1 2 
1 3 
1 4 
1 5 
1 6 
1 7 
1 8 
1 9 
1 10 
1 11 
1 12 
1 13 
1 14 
1 15 
1 16 
1 17 
1 18 
1 19 
1 20 
1 21 
1 22 
1 23 
1 24 
1 25 
1 26 
1 27 
1 28 
1 29 
1 30 
1 31 
1 32 
1 33 
1 34 
1 35 
1 36 
1 37 
1 38 
1 39 
1 40 
1 41 
1 42 
1 43 
1 44 
1 45 
1 46 
1 47 
1 48 
1 49 
1 50 
1 51 
1 52 
1 53 
1 54 
1 55 
1 56 
1 57 
1 58 
1 59 
1 60 
1 61 
1 62 
1 63 
1 64 
1 65 
1 66 
1 67 
1 68 
1 69 

POINT_DATA 70
FIELD FieldData 7
id 1 70 int
44 436 401 3257 801 209 2836 1958 903 
292 2857 602 2180 952 1396 924 1401 212 
1507 657 1391 732 709 472 388 573 2287 
672 535 1777 290 2611 2712 1459 1177 1490 
851 911 2676 2199 3144 1971 1632 3323 2945 
2914 2749 2602 1511 2301 3103 2133 3042 2824 
2256 2454 3036 2489 2546 744 1168 3312 2208 
3277 2149 1811 3260 2841 2015 2664 
type 1 70 int
2 2 2 2 2 2 2 2 2 
2 2 2 2 2 2 2 2 2 
2 2 2 2 2 2 2 2 2 
2 2 2 2 2 2 2 2 2 
2 2 2 2 2 2 2 2 2 
2 2 2 2 2 2 2 2 2 
2 2 2 2 2 2 2 2 2 
2 2 2 2 2 2 2 
i 3 70 int
0 0 0 0 0 0 0 0 0 
0 0 0 0 0 0 0 0 0 
0 0 0 0 0 0 0 0 0 
0 0 0 0 0 0 0 0 0 
0 0 0 0 0 0 0 0 0 
0 0 0 0 0 0 0 0 0 
0 0 0 0 0 0 0 0 0 
0 0 0 0 0 0 0 0 0 
0 0 0 0 0 0 0 0 0 
0 0 0 0 0 0 0 0 0 
0 0 0 0 0 0 0 0 0 
0 0 0 0 0 0 0 0 0 
0 0 0 0 0 0 0 0 0 
0 0 0 0 0 0 0 0 0 
0 0 0 0 0 0 0 0 0 
0 0 0 0 0 0 0 0 0 
0 0 0 0 0 0 0 0 0 
0 0 0 0 0 0 0 0 0 
0 0 0 0 0 0 0 0 0 
0 0 0 0 0 0 0 0 0 
0 0 0 0 0 0 0 0 0 
0 0 0 0 0 0 0 0 0 
0 0 0 0 0 0 0 0 0 
0 0 0 
v 3 70 double
-0.014469170185 -0.0032258075401 -0.21041133215 -0.013415303438 -0.0029439097524 -0.20590495257 -0.004020684216 0.0049600385424 -0.22660322286 
-0.0016500377139 0.012392725914 -0.19677409242 -0.0054635444675 0.010896945968 -0.20826573651 -0.011657337056 0.009107468949 -0.19755125453 
-0.014655813327 0.0031643594368 -0.20733163227 -0.012783425157 0.0032768902502 -0.20013350361 -0.023248953771 0.014521432962 -0.19177081096 
-0.017819115663 0.022040392112 -0.18687676513 -0.026724866648 -0.0075196819984 -0.19525624018 -0.024520080952 0.0081652179169 -0.19155931725 
-0.021387916423 0.014119856703 -0.18860212693 0.0011858577664 -0.0014530781896 -0.22019643211 0.00020675921335 -0.008455252824 -0.18616509831 
-0.0068792875031 -0.0017113417461 -0.19671858352 -0.015154623252 -0.0064944335199 -0.20279566697 -0.0012856434866 0.0045562668287 -0.19356987489 
-0.015714511555 0.0018554453571 -0.19118964277 0.014274318823 0.01919563333 -0.20744006638 -0.0054510640541 -0.0075876822107 -0.22640789742 
-0.012110002971 0.0037342936811 -0.20543155878 0.0004962647205 -0.0033786484639 -0.1947147866 0.0024480187114 -0.0044702072584 -0.18793911877 
-0.0023958823056 0.0091406417489 -0.20320736602 0.0046922948999 0.0018477004795 -0.20520592072 0.0087677761202 0.0023344714064 -0.20753747579 
0.036551682677 -0.001145635086 -0.2034493237 -0.00054202138046 0.0036278137058 -0.20411933395 0.0013469172872 0.0019762237123 -0.1943443604 
-0.0032166145215 -0.011812429284 -0.20159785363 -0.01180458979 0.026487408108 -0.19915439793 -0.022337465282 -0.0058873453514 -0.19837287564 
-0.0085311438847 0.093726739065 -0.18783011909 0.03848900748 -0.01083051937 -0.19721343278 0.016310271768 -0.011488131365 -0.20683166531 
-0.038358936512 0.011148178314 -0.23697325792 -0.0077147337669 0.0056199922457 -0.20152952132 0.023063311324 -0.031837766207 -0.24625405364 
0.0067011511396 0.0047645642064 -0.19724119789 -0.015233298477 -0.028713267 -0.22456558216 0.047387776264 -0.044100153212 -0.23725597587 
0.033115702448 0.024953798158 -0.20313829195 0.023963205589 0.024983853879 -0.4981322989 0.10971176658 0.024301386065 -0.30283937179 
-0.019512154943 -0.057433497963 -0.20804285072 0.082396844661 0.00049928909801 -0.25976826099 -0.041012696781 -0.048201707703 -0.25198867744 
0.16530983763 -0.065231264729 -0.38380008118 0.071148839704 -0.073725782198 -0.31907607845 0.13883458866 0.14314846884 -0.34486379386 
-0.099417832838 -0.026493226933 -0.325693273 0.090624215811 0.043619538379 -0.38851858704 0.034963971845 0.034708586682 -0.26507539629 
-0.0088943862912 -0.16262226985 -0.21768251755 -0.032709818851 0.066859348962 -0.24122627429 0.17306830278 -0.057608088931 -0.28369013163 
-0.055998288805 -0.055357404756 -0.33706875726 -0.00094393163175 0.039128661346 -0.25550888811 0.10568275144 -0.06022929831 -0.22273024128 
-0.046713985206 0.011449285 -0.26206614603 0.097492625221 0.063172541778 -0.29946397156 0.046105336764 -0.095194094016 -0.2669595063 
0.068429674979 0.046939524933 -0.18332635686 -0.066070827618 -0.064864108583 -0.21771414154 0.1886945104 -0.08232916287 -0.33854441671 
0.035630280314 -0.037240442541 -0.40503814494 0.072585377363 0.11282084852 -0.20880622373 -0.057749213142 0.0033258773727 -0.41329246816 
0.012950993851 -0.22747118973 -0.28774261594 
f 3 70 double
0.00042449854994 0.00068938527276 -0.0045925788733 0 0 -0.00027737121539 0 0 -0.00027737121539 
0.00090443688417 0.0010818140204 0.00066172221297 -0.0001225474016 -0.00013047459175 -0.00033973946761 0.00014505019855 0.00028769719153 -0.00037621719615 
0.00024123014204 -0.00044713811949 -0.0011754715114 -0.00036629669896 -0.00036653200295 -0.00069264772768 -1.4009585163e-06 0.00015218941657 -0.0011470461584 
0 0 -0.00027737121539 -0.0011139130187 -0.00054655839287 -0.00070970722967 -0.00011454197023 6.5323429172e-05 -0.00036965534767 
-0.0045285571474 0.00037391687446 0.00078174357821 -0.0016250696197 -0.0016433355431 0.0018131242215 0 0 -0.00027737121539 
0 0 -0.00027737121539 -2.8313429685e-05 0.00046242850592 0.00029373356751 0.00091711167202 -4.9700745959e-05 -0.0016430815244 
0 0 -0.00027737121539 0 0 -0.00027737121539 0 0 -0.00027737121539 
-0.00030578475252 -0.00071601470498 -0.00060917793684 -0.0016035696509 0.0042069166868 0.0011891798921 -0.00012670626112 -0.00067102573905 -5.1079317788e-05 
0 0 -0.00027737121539 0 0 -0.00027737121539 -0.0053351633842 -0.0046049625003 0.0036295111509 
0.0068503462461 -0.0021465039966 -0.0082294948776 -0.00091535693008 -0.0048329257172 0.0012602863981 0 0 -0.00027737121539 
0 0 -0.00027737121539 0.0026992752806 0.0022589892643 0.00091423324555 0.001712355526 0.0014684967031 5.2557109775e-05 
0.0016978727715 -0.0016421356091 0.0018570092181 0 0 -0.00027737121539 0 0 -0.00027737121539 
-0.020187378928 -0.0063288776233 -0.027583622345 0.0029274488 0.0026594626571 0.005634478688 0.0039064731838 0.0020503945541 -0.0052253679052 
-0.0033257690999 -0.0038479014851 0.0031463428561 0 0 -0.00027737121539 0 0 -0.00027737121539 
-0.00070097248354 -0.00025393915373 0.00029475417952 0 0 -0.00027737121539 0 0 -0.00027737121539 
0 0 -0.00027737121539 0 0 -0.00027737121539 0 0 -0.00027737121539 
0 0 -0.00027737121539 0.021872935587 -0.0077847113138 0.0074350336945 0 0 -0.00027737121539 
0 0 -0.00027737121539 0 0 -0.00027737121539 0 0 -0.00027737121539 
0 0 -0.00027737121539 0 0 -0.00027737121539 0 0 -0.00027737121539 
0 0 -0.00027737121539 0 0 -0.00027737121539 0 0 -0.00027737121539 
0 0 -0.00027737121539 0 0 -0.00027737121539 0 0 -0.00027737121539 
0 0 -0.00027737121539 0 0 -0.00027737121539 0 0 -0.00027737121539 
0 0 -0.00027737121539 0 0 -0.00027737121539 0 0 -0.00027737121539 
0 0 -0.00027737121539 
radius 1 70 double
0.003 0.003 0.003 0.003 0.003 0.003 0.003 0.003 0.003 
0.003 0.003 0.003 0.003 0.003 0.003 0.003 0.003 0.003 
0.003 0.003 0.003 0.003 0.003 0.003 0.003 0.003 0.003 
0.003 0.003 0.003 0.003 0.003 0.003 0.003 0.003 0.003 
0.003 0.003 0.003 0.003 0.003 0.003 0.003 0.003 0.003 
0.003 0.003 0.003 0.003 0.003 0.003 0.003 0.003 0.003 
0.003 0.003 0.003 0.003 0.003 0.003 0.003 0.003 0.003 
0.003 0.003 0.003 0.003 0.003 0.003 0.003 
omega 3 70 double
1.0930131595 2.1269459709 -0.18106569328 -0.92736502862 2.5465608179 -1.2702652347 1.826610377 5.0033122993 0.32949086721 
-0.71353875659 0.78444633782 -1.9551718223 1.1859573154 -2.6148431558 -3.1373955048 1.0621710617 -0.61394032005 3.3542678323 
-1.5965559001 0.08289155542 1.6090764294 1.8945119031 -2.743241345 2.5863779918 -0.94430474148 0.17559526826 0.78247501241 
2.2945571468 2.0202909594 0.28796118724 0.3300092517 -0.66265523275 0.37322487386 -0.66455773911 -0.90212396183 1.2020823899 
0.033997609099 -3.7691561524 2.8513563297 4.5806213933 1.4274489252 -8.070247134 2.3791288267 -0.64418319464 2.191893266 
4.0586419921 3.7743004156 1.4264797349 -0.48688336104 -1.5517721295 -1.957466321 3.0964055357 1.080392437 0.793892744 
6.1098760304 3.2053573903 -1.0128720005 -2.1923637525 3.5912097567 -3.7897823809 -1.0107098957 2.9689301444 0.91624253095 
0.86889860171 -1.0156791292 5.7286533732 -2.7150180272 0.28062007359 -1.4877155942 0.12879952036 0.88714903859 -1.2909444357 
0.014480275779 3.1511442105 -0.2853864357 -0.31862434335 0.38003354543 -1.1715358166 0.054392651311 -2.2814573833 -1.7776650879 
-2.9289267695 10.794948206 -0.72026174321 0.91711392421 -0.86644239301 0.86932346879 -0.20416517104 -0.42659000159 -0.76931506498 
5.8129687366 -0.91999922266 5.8088921631 8.0126531885 -1.0892793763 0.77503009156 1.8140255782 1.2932570291 0.67676146811 
6.3113276989 0.1887385506 -10.525515366 22.079545851 -0.61993765736 -0.2205809144 -2.9828022845 5.7543801224 -1.2063336739 
5.5977590791 -11.215350836 -0.34643237628 -1.1026605801 -1.6137305618 -15.081624628 15.69482857 7.2913347272 7.0027529573 
-4.5570211752 3.2386612158 -0.65358473023 -5.3804516933 2.9567627626 -4.4585859375 -1.8353541004 14.304474342 3.8790732137 
3.3702757908 4.0338573022 -6.4256739238 21.955137521 4.2226740387 42.805281969 40.128540565 21.711447989 -7.7822004684 
2.9687591163 18.79636945 3.689218963 13.46868225 24.587105111 15.135902844 33.704383145 -47.384533153 -16.965085956 
44.572032907 -18.708182788 33.34010373 40.517627663 -2.9584204308 -25.875519992 19.561894437 16.867535008 -6.2226088047 
9.9640413322 -15.286079291 3.4959351757 -4.9936147946 -0.46099628687 20.971436577 -1.455066399 -7.1458038238 27.472438188 
16.11594212 -40.153965799 43.236767928 4.1114880064 25.393602061 28.850525933 17.218453161 -7.4920341144 0.35640303985 
1.3485695603 -20.277058459 6.0057763774 11.838672496 -14.293030094 20.711652792 39.689009513 15.807213415 2.2226757057 
-35.748276912 -7.7509787659 -17.619829925 -26.801507648 26.575569396 -14.716875494 -29.754493185 9.8404234504 19.379901755 
-26.912708705 39.417596297 -4.3825726415 10.183111311 13.821429988 20.220558035 -46.06137861 17.477341737 -15.412083736 
3.4938914733 -11.586546656 19.346232256 0.38516851333 26.649927576 -5.4390596818 -10.852251924 13.528168071 -26.366596094 
-17.293043194 25.425944879 -18.80573914 
