# vtk DataFile Version 4.2
Generated by LIGGGHTS
ASCII
DATASET POLYDATA
POINTS 70 float
0.0160793 -0.0387942 0.0174957 -0.00939425 -0.0104275 0.0233883 0.000493371 -0.011693 0.0242786 
0.0271877 -0.0111395 0.0209927 -0.0342907 0.00545676 0.0218117 0.0419551 0.00114564 0.024434 
-0.0346748 0.0152051 0.0195893 0.000432581 0.0346984 0.0234882 0.00868444 0.0410984 0.021178 
-0.0119025 -0.0228462 0.025036 0.0347679 -0.0159848 0.0257673 -0.0300934 -0.00165821 0.0300318 
0.0227686 -0.00298469 0.0252024 -0.0313242 0.00821772 0.0310258 -0.0183632 0.00498267 0.0296754 
-0.00893635 0.0022489 0.0277369 -0.0047269 0.0143756 0.0265147 0.0187767 0.0265743 0.0328024 
-0.00737026 -0.0412226 0.041535 0.00581107 -0.041526 0.0407452 -0.0243287 -0.02027 0.0357878 
-0.0314954 -0.0140642 0.0406822 -0.0117574 -0.0196833 0.0431957 -0.0065407 -0.00169328 0.0370258 
0.0283569 -0.00223656 0.0408388 0.0152447 0.0179989 0.0371724 -0.00324655 0.0278365 0.0358848 
0.0286221 0.0306108 0.0427035 0.00917492 0.0340054 0.0452764 0.0189665 -0.0149912 0.0645498 
0.0320287 -0.00504958 0.0646759 -0.0179621 0.0240567 0.0627845 -0.00542378 0.0238753 0.0638338 
-0.00571398 -0.0355092 0.0697056 0.0160949 -0.0260072 0.0713234 0.0293083 -0.0237953 0.0719367 
-0.00409591 -0.0109937 0.0730816 0.0410453 -0.00124065 0.0672903 -0.0185856 0.00313008 0.0674338 
0.00358323 0.00546891 0.0686216 0.0291448 0.00625963 0.0741166 -0.0124106 0.0139912 0.0702705 
0.0229424 0.020316 0.0736036 -0.0224112 -0.0272024 0.0767557 -0.00282493 -0.0297012 0.078673 
0.0105925 -0.0182848 0.0787026 0.0293722 -0.014628 0.0773311 -0.0353818 -0.00380653 0.0851427 
-0.0236506 -0.00488012 0.0800472 -0.00788395 -0.00415009 0.084656 0.00919645 -0.00620417 0.0778802 
-0.00970278 0.00597125 0.0781585 0.000778155 0.00070825 0.0770195 0.015093 0.00205596 0.0803133 
0.0384058 0.00961753 0.0852197 -0.0286917 0.0282688 0.0808712 -0.000483761 0.0239116 0.0809361 
-0.012276 0.03843 0.080628 0.00205062 -0.0325925 0.0961465 0.0142642 -0.0360082 0.0912166 
-0.0346826 -0.0150589 0.0915833 0.024981 -0.0189713 0.0938444 -0.0195777 -0.0081508 0.0886899 
-0.0269116 0.0145181 0.0869336 -0.0188957 0.0244296 0.0941764 -0.00615149 0.0354083 0.0889692 
0.00844471 0.0411298 0.0893119 -0.0168007 -0.0346812 0.0971155 0.00331351 -0.000672848 0.0973172 
-0.0282019 0.00475272 0.0978178 
VERTICES 70 140
1 0 
1 1 
1 2 
1 3 
1 4 
1 5 
1 6 
1 7 
1 8 
1 9 
1 10 
1 11 
1 12 
1 13 
1 14 
1 15 
1 16 
1 17 
1 18 
1 19 
1 20 
1 21 
1 22 
1 23 
1 24 
1 25 
1 26 
1 27 
1 28 
1 29 
1 30 
1 31 
1 32 
1 33 
1 34 
1 35 
1 36 
1 37 
1 38 
1 39 
1 40 
1 41 
1 42 
1 43 
1 44 
1 45 
1 46 
1 47 
1 48 
1 49 
1 50 
1 51 
1 52 
1 53 
1 54 
1 55 
1 56 
1 57 
1 58 
1 59 
1 60 
1 61 
1 62 
1 63 
1 64 
1 65 
1 66 
1 67 
1 68 
1 69 

POINT_DATA 70
FIELD FieldData 7
id 1 70 int
44 385 912 837 467 720 208 1157 595 
732 398 1986 663 895 1438 1371 936 1782 
2710 2509 1606 2873 2267 2166 2790 1929 1751 
2149 3209 4052 4708 3265 2996 2566 5420 3857 
4610 3364 4482 4280 5509 3057 3724 2454 2252 
3102 3770 1464 4179 4362 4796 3932 4181 3510 
3228 2117 3206 2640 5397 4989 4006 5402 3909 
5377 3841 2782 5103 5050 5353 3475 
type 1 70 int
2 2 2 2 2 2 2 2 2 
2 2 2 2 2 2 2 2 2 
2 2 2 2 2 2 2 2 2 
2 2 2 2 2 2 2 2 2 
2 2 2 2 2 2 2 2 2 
2 2 2 2 2 2 2 2 2 
2 2 2 2 2 2 2 2 2 
2 2 2 2 2 2 2 
i 3 70 int
0 0 0 0 0 0 0 0 0 
0 0 0 0 0 0 0 0 0 
0 0 0 0 0 0 0 0 0 
0 0 0 0 0 0 0 0 0 
0 0 0 0 0 0 0 0 0 
0 0 0 0 0 0 0 0 0 
0 0 0 0 0 0 0 0 0 
0 0 0 0 0 0 0 0 0 
0 0 0 0 0 0 0 0 0 
0 0 0 0 0 0 0 0 0 
0 0 0 0 0 0 0 0 0 
0 0 0 0 0 0 0 0 0 
0 0 0 0 0 0 0 0 0 
0 0 0 0 0 0 0 0 0 
0 0 0 0 0 0 0 0 0 
0 0 0 0 0 0 0 0 0 
0 0 0 0 0 0 0 0 0 
0 0 0 0 0 0 0 0 0 
0 0 0 0 0 0 0 0 0 
0 0 0 0 0 0 0 0 0 
0 0 0 0 0 0 0 0 0 
0 0 0 0 0 0 0 0 0 
0 0 0 0 0 0 0 0 0 
0 0 0 
v 3 70 double
0.00088368668982 -0.0003787201065 -0.40074576345 -0.00044666407957 0.00096562032355 -0.3972789391 -0.0012425208334 0.0014940175452 -0.39761733313 
3.6931735324e-05 0.0044591253612 -0.39952201542 0.002290602332 0.0010370598213 -0.4012577268 0.00020360465089 0.0029096018928 -0.39954539192 
-0.0016262748749 -0.0010545110452 -0.39857170346 -0.0018338154823 -0.00072694604542 -0.39761898997 -0.00062844573723 -0.0020089038245 -0.39741375945 
0.0037703356851 0.0016231727745 -0.39866377687 0.00069730180131 0.0060789414392 -0.39655714624 0.00010201894015 0.0025151953255 -0.39707207093 
0.0028480619315 0.0055789302907 -0.39546748665 0.00076614630118 0.00018890847767 -0.39371418812 0.00038164003451 0.00097105468955 -0.40072180883 
0.00092852840948 -0.001491407517 -0.39389057899 0.001760500056 -0.002185509422 -0.39526479221 -0.0057937209288 0.001001036963 -0.39111533015 
0.0095280254321 0.00054599156039 -0.37908187868 -0.005954632434 0.015065652076 -0.38619775526 0.0061393819461 0.0028366535427 -0.39161133838 
0.014084853418 -0.0029453102158 -0.38219763605 0.016227307857 0.0010475272239 -0.35628073682 -0.0034380214302 -0.00092910952137 -0.38687378365 
0.0055840883587 0.035374890806 -0.38486135292 0.0001868169413 -0.00034212501775 -0.38869520462 -0.00042250408222 0.0049750713142 -0.38580177242 
-0.01798475044 0.0070521887129 -0.40115603901 0.020608432194 0.002850854339 -0.36660035638 0.002550826975 -0.020702871387 -0.30889937272 
-0.080261185598 0.068647199419 -0.29652968618 -0.0058564478584 0.023415103282 -0.2276308179 -0.019396001127 0.013015156667 -0.3709685443 
0.01230184193 -0.15480503272 -0.28294850747 0.021784976035 0.08484804389 -0.13783727382 0.039595683097 0.096800338631 -0.10340767275 
0.034395690042 -0.022179420993 -0.12784822447 0.040750422648 0.049001304265 -0.2141356868 -0.067135326982 -0.10601036572 -0.17075610564 
-0.039861297955 -0.108948585 -0.13759888534 -0.12809355227 -0.1157228868 -0.076041682902 -0.13630127429 0.02857246039 -0.26595690677 
0.14306691153 0.0849764195 -0.16248055278 -0.075044645441 0.13114529267 -0.16854679974 -0.13855800751 -0.062800888071 -0.097006977871 
0.089541006174 -0.064166316386 -0.14238117653 -0.17339875169 0.083602453321 -0.16407544046 -0.0759808748 0.079122166408 0.023846266797 
0.017129816517 0.047379671151 -0.08056851749 -0.015101540027 -0.059243705513 0.04308305575 -0.063645256123 -0.048728242712 -0.090812154864 
-0.025351530363 -0.020964006288 -0.086875245459 -0.1008811317 -0.024880120487 -0.079990311931 0.03871721689 0.11804985536 -0.0063635808165 
-0.072694334155 -0.08244037474 -0.082899361722 -2.0921791006e-05 0.05036065861 -0.021186695241 0.013288579467 0.0089227437078 -0.015204705743 
-0.073408422142 -0.010184611762 -0.030500358505 -0.029925219066 0.070730955053 0.10039757148 0.12491166854 0.17377932893 0.032507901612 
-0.047238527202 -0.076091324084 0.1557052645 0.031965905502 0.095378409545 -0.03089998176 -0.20373691573 0.11362730719 0.090195311945 
0.1700370442 -0.089082516951 0.030368554027 0.19762475163 -0.01736521459 0.1768501123 -0.010776457233 -0.19014320225 -0.05249045711 
0.095368840321 -0.22664479448 -0.14020290721 -0.12718857638 0.019331656156 0.097983521547 -0.25300601512 0.061972198182 0.052301292874 
0.36310971079 0.014428771532 -0.042826975588 
f 3 70 double
0 0 -0.0012841259972 0.00035336042507 -0.00059372534256 -0.00099391889869 0.0016116338754 0.0027681981143 0.0012851451808 
0 0 -0.0012841259972 0 0 -0.0012841259972 0 0 -0.0012841259972 
0 0 -0.0012841259972 -0.00013171503471 -0.00035607242509 -0.0017568585379 -8.4872654877e-06 -4.2691191465e-05 -0.0012841299475 
0 0 -0.0012841259972 0 0 -0.0012841259972 0 0 -0.0012841259972 
0 0 -0.0012841259972 0 0 -0.0012841259972 0 0 -0.0012841259972 
0 0 -0.0012841259972 0 0 -0.0012841259972 0 0 -0.0012841259972 
0 0 -0.0012841259972 0 0 -0.0012841259972 0 0 -0.0012841259972 
0 0 -0.0012841259972 0 0 -0.0012841259972 0 0 -0.0012841259972 
0 0 -0.0012841259972 0 0 -0.0012841259972 0 0 -0.0012841259972 
0 0 -0.0012841259972 0 0 -0.0012841259972 0 0 -0.0012841259972 
0 0 -0.0012841259972 0 0 -0.0012841259972 0 0 -0.0012841259972 
0 0 -0.0012841259972 0 0 -0.0012841259972 0 0 -0.0012841259972 
0 0 -0.0012841259972 0 0 -0.0012841259972 0 0 -0.0012841259972 
0 0 -0.0012841259972 0 0 -0.0012841259972 0 0 -0.0012841259972 
0 0 -0.0012841259972 0 0 -0.0012841259972 0 0 -0.0012841259972 
0 0 -0.0012841259972 0 0 -0.0012841259972 0 0 -0.0012841259972 
0 0 -0.0012841259972 0 0 -0.0012841259972 0 0 -0.0012841259972 
0 0 -0.0012841259972 0 0 -0.0012841259972 0 0 -0.0012841259972 
0 0 -0.0012841259972 0 0 -0.0012841259972 0 0 -0.0012841259972 
0 0 -0.0012841259972 0 0 -0.0012841259972 0 0 -0.0012841259972 
0 0 -0.0012841259972 0 0 -0.0012841259972 0 0 -0.0012841259972 
0 0 -0.0012841259972 0 0 -0.0012841259972 0 0 -0.0012841259972 
0 0 -0.0012841259972 0 0 -0.0012841259972 0 0 -0.0012841259972 
0 0 -0.0012841259972 
radius 1 70 double
0.005 0.005 0.005 0.005 0.005 0.005 0.005 0.005 0.005 
0.005 0.005 0.005 0.005 0.005 0.005 0.005 0.005 0.005 
0.005 0.005 0.005 0.005 0.005 0.005 0.005 0.005 0.005 
0.005 0.005 0.005 0.005 0.005 0.005 0.005 0.005 0.005 
0.005 0.005 0.005 0.005 0.005 0.005 0.005 0.005 0.005 
0.005 0.005 0.005 0.005 0.005 0.005 0.005 0.005 0.005 
0.005 0.005 0.005 0.005 0.005 0.005 0.005 0.005 0.005 
0.005 0.005 0.005 0.005 0.005 0.005 0.005 
omega 3 70 double
0.20834827007 -0.17630560844 -0.00068465492658 0.089347095986 0.033669128497 0.31495275471 -0.32719390218 -0.5080937627 0.11748677485 
-0.18230399076 -0.34252568339 -0.080123859963 0.010605679934 0.65290514992 -0.16914098039 0.11338412811 0.42397059156 0.28126256184 
0.087504839766 0.14195536094 -0.090558707669 0.14878029321 -0.049716454374 0.49661329862 -0.036438184794 0.372558108 -0.035059054512 
0.013386184528 0.44087866733 -0.57337739106 0.24358128463 0.42487921943 0.17595502818 0.27360928139 -0.77039125728 -0.085805112778 
0.68613892313 -0.28970598838 0.32385458238 -0.71142413189 -0.18009514713 0.17105043606 0.76631768432 -0.33028730784 -0.47694004471 
0.23063217077 0.37418079802 -0.11314169171 0.27161994796 0.30365831897 0.20729938027 0.40719630604 0.31884646026 -0.74561567246 
1.0221298753 2.9648974186 0.52114702733 -1.9632740783 3.7475163373 -1.4672222921 1.0503258533 0.4713456111 0.52069933881 
-0.86526968754 -0.92533039968 2.5598766746 0.15360795899 2.6045270968 0.43005025641 0.48014274869 -0.96121873854 1.0247816145 
0.16941925503 -4.4238684506 -2.7212139859 -0.4745420035 1.6450745298 0.38096336901 -0.04530467906 -0.82467670328 0.92650344927 
-3.3559845042 -1.5940458333 -5.4386509337 5.2806700664 1.7436143953 -1.1173643903 7.6467360848 30.015340649 9.2056438423 
18.054577747 -7.3870681239 -17.699547822 15.380354855 11.833922085 4.7868939901 -17.440038928 24.111720536 8.5547488086 
-29.712052389 -18.266866596 -3.1357304121 -7.4430702716 6.6660107198 3.9103811502 0.60739881431 24.392381758 25.802359127 
8.1364168418 20.898901134 8.7492134365 -8.2435986419 -6.6247313961 -4.0891193129 -1.5602120484 -15.894358438 -12.579788551 
6.5629204867 -31.124224533 -30.539575987 -9.7250568649 -5.1816180272 -9.8482337327 -0.55474175101 -14.76327291 4.2700355777 
-7.2562699606 -11.814349025 0.31080894521 4.4265886668 -36.845279249 -14.760058321 6.2043034125 -20.259215997 12.789636611 
13.794975696 -23.559102114 0.75903140234 -20.119019943 -17.759171049 28.268002211 -21.485659403 -1.6784969199 19.862415073 
-3.777773835 0.030529039734 2.5560032552 -7.3761781354 9.5445882533 -7.3923709119 12.787649349 -20.181613545 18.584485254 
-27.213429553 -15.120238368 0.80069158535 -24.922898871 17.5117122 4.9983233782 -5.7187781759 -13.805113801 -15.589936778 
-20.704698168 -9.1402931085 -6.8046427532 6.0391993684 -15.842933796 -2.8662555236 33.193693164 15.675943268 -26.022895913 
13.515672856 19.93648068 21.131712834 -7.9989646973 23.498219423 6.7936020999 53.368675661 -61.555851133 -18.453616938 
-10.074034624 -24.822604963 20.733399247 6.7754202064 1.0099704088 3.2991610396 -14.689376374 25.989886577 -2.8186739961 
14.377840661 20.214990601 -5.9079411063 -26.040568043 5.7707156487 -36.143366597 26.865801164 0.96347940609 7.9386176007 
-6.6506190247 3.4666912302 17.140560424 -33.263625216 -38.38709795 13.866828504 2.6728558974 -64.248439789 31.346948502 
10.512299675 -1.6199156435 -0.2550122118 
