# vtk DataFile Version 4.2
Generated by LIGGGHTS
ASCII
DATASET POLYDATA
POINTS 70 float
0.0160532 -0.0388168 0.0237432 -0.034711 0.0152468 0.0255985 -0.0119524 -0.0228661 0.0310484 
-0.00944415 -0.010445 0.0294447 0.000448646 -0.0117024 0.0301878 0.0272101 -0.0113778 0.0271803 
0.0346028 -0.0163917 0.0317955 -0.030215 -0.00156398 0.0360566 0.0229 -0.00321734 0.0313704 
-0.0343351 0.00549155 0.0278285 -0.0184671 0.00502117 0.0356896 -0.00904384 0.0023599 0.0336569 
0.0419601 0.00100852 0.0305519 -0.00472188 0.0144214 0.0322651 0.000616514 0.0347085 0.029506 
0.00890911 0.0410542 0.0273006 0.00528276 -0.0416064 0.0462788 -0.0249297 -0.0199744 0.0417044 
-0.0322047 -0.0141637 0.0458443 -0.00674831 -0.00163438 0.0425641 0.0291693 -0.00361987 0.0459852 
-0.0314007 0.00835773 0.0369776 0.0155872 0.0179095 0.0428829 -0.0031508 0.0279764 0.0416439 
0.0190193 0.0265075 0.0384934 -0.00789729 -0.0412478 0.0472449 -0.0127077 -0.0193769 0.0476001 
0.00871063 0.0345787 0.0504209 0.0285991 0.0304788 0.0482819 0.0222148 -0.0324628 0.0653336 
0.0148068 -0.0156256 0.066465 -0.0300136 -0.00316457 0.0632103 0.0297487 -0.00133238 0.0650604 
-0.0344172 0.00648174 0.0656716 0.00171331 0.00356985 0.0675342 0.0119899 0.00782804 0.0682439 
-0.0206836 0.0135495 0.0664402 0.0334081 0.0118374 0.066323 -0.0109945 -0.0402971 0.0718931 
0.000522875 -0.0346513 0.0685234 -0.0117992 -0.0229291 0.0685143 0.00718859 -0.0216546 0.0689955 
-0.00422585 -0.0129 0.0705648 0.0194158 -0.0187811 0.0783453 -0.0378576 -0.00419072 0.071385 
0.00975086 -0.00293869 0.0687645 0.0211105 -0.00661439 0.0690445 -0.0103984 0.004444 0.0721385 
-0.0101777 0.0173563 0.0743995 0.0181041 0.016649 0.0768929 -0.0155799 0.0232397 0.0657252 
0.00777417 0.0241198 0.0677878 0.0256553 0.0244198 0.0678504 -0.00306777 0.0319165 0.0690826 
0.0101938 0.0383028 0.0677862 -0.00151375 -0.0407705 0.0831497 -0.0166447 -0.0305083 0.074302 
-0.00463224 -0.0301153 0.0807381 0.0193669 -0.0343518 0.0765977 -0.0101018 -0.0213781 0.0786903 
0.030237 -0.0113566 0.0775108 -0.0183385 -0.00910784 0.0771449 0.0251381 -0.00174851 0.0788381 
0.0397357 -0.00776787 0.0826598 -0.0320912 -0.000783731 0.0794418 0.0408212 0.00080557 0.0741434 
0.0320388 0.0265037 0.0755361 -0.00995499 -0.00275611 0.0896816 0.0150789 0.0163014 0.0905338 
-0.0203359 0.0212863 0.0924901 
VERTICES 70 140
1 0 
1 1 
1 2 
1 3 
1 4 
1 5 
1 6 
1 7 
1 8 
1 9 
1 10 
1 11 
1 12 
1 13 
1 14 
1 15 
1 16 
1 17 
1 18 
1 19 
1 20 
1 21 
1 22 
1 23 
1 24 
1 25 
1 26 
1 27 
1 28 
1 29 
1 30 
1 31 
1 32 
1 33 
1 34 
1 35 
1 36 
1 37 
1 38 
1 39 
1 40 
1 41 
1 42 
1 43 
1 44 
1 45 
1 46 
1 47 
1 48 
1 49 
1 50 
1 51 
1 52 
1 53 
1 54 
1 55 
1 56 
1 57 
1 58 
1 59 
1 60 
1 61 
1 62 
1 63 
1 64 
1 65 
1 66 
1 67 
1 68 
1 69 

POINT_DATA 70
FIELD FieldData 7
id 1 70 int
44 208 732 385 912 837 398 1986 663 
467 1438 1371 720 936 1157 595 2509 1606 
2873 2166 2790 895 1929 1751 1782 2710 2267 
3209 2149 4362 4796 2454 5353 2117 3102 3724 
3265 4280 3932 5397 4052 1464 4610 5402 4179 
4181 3510 4482 2996 3057 3475 3364 5103 2782 
3206 4989 2566 5420 2252 4006 3857 5050 5509 
3228 2640 4708 3770 3841 5377 3909 
type 1 70 int
2 2 2 2 2 2 2 2 2 
2 2 2 2 2 2 2 2 2 
2 2 2 2 2 2 2 2 2 
2 2 2 2 2 2 2 2 2 
2 2 2 2 2 2 2 2 2 
2 2 2 2 2 2 2 2 2 
2 2 2 2 2 2 2 2 2 
2 2 2 2 2 2 2 
i 3 70 int
0 0 0 0 0 0 0 0 0 
0 0 0 0 0 0 0 0 0 
0 0 0 0 0 0 0 0 0 
0 0 0 0 0 0 0 0 0 
0 0 0 0 0 0 0 0 0 
0 0 0 0 0 0 0 0 0 
0 0 0 0 0 0 0 0 0 
0 0 0 0 0 0 0 0 0 
0 0 0 0 0 0 0 0 0 
0 0 0 0 0 0 0 0 0 
0 0 0 0 0 0 0 0 0 
0 0 0 0 0 0 0 0 0 
0 0 0 0 0 0 0 0 0 
0 0 0 0 0 0 0 0 0 
0 0 0 0 0 0 0 0 0 
0 0 0 0 0 0 0 0 0 
0 0 0 0 0 0 0 0 0 
0 0 0 0 0 0 0 0 0 
0 0 0 0 0 0 0 0 0 
0 0 0 0 0 0 0 0 0 
0 0 0 0 0 0 0 0 0 
0 0 0 0 0 0 0 0 0 
0 0 0 0 0 0 0 0 0 
0 0 0 
v 3 70 double
-8.3269846997e-05 -0.0017015942611 0.20174467826 -0.00020374987403 -0.00058501644786 0.20443917695 0.0023355220665 -0.0011223073131 0.21064221146 
-0.0041484375401 -0.0011976533278 0.19902938532 -0.0014063335829 -0.00070338378098 0.20062886618 -0.0053883752572 -0.00053718005976 0.19711046907 
-0.0043965246057 -0.00082410142089 0.20644539087 -0.0067724345388 0.0095863196575 0.19722208982 0.0059830053322 0.0078526231141 0.19612610863 
-0.0016441406731 -0.0047282523454 0.2044638168 0.0029105091412 -0.0053405337556 0.20654029102 -0.0061916847634 -0.007030622245 0.2049790413 
0.003680874801 -0.009870922465 0.19201490387 -0.00030091169998 0.00079664252969 0.19743890244 -0.0033356796816 -0.00040775550523 0.20433912475 
0.00038560484618 -0.0030926945791 0.20598663225 0.01869671249 0.031454761142 0.2436178691 0.0086378255005 0.015962915355 0.20177338713 
0.029783852562 0.037869023738 0.25150206109 0.0038302631436 0.0017696408956 0.20462854001 0.030571477862 0.0018907284723 0.23831463928 
-0.0059110062242 -0.0013877761443 0.18890104689 0.0093641717669 0.0049267942455 0.1993494866 0.0038146659439 -0.0095451065641 0.19525560831 
-0.00061907059906 0.017942618697 0.2093165563 -0.027182006258 0.015855407825 0.24911960981 0.01735163476 -0.03992505719 0.21980137882 
0.017128671695 -0.011323305868 0.25709477325 0.01513014544 -0.0078926715974 0.21421157613 0.13142980489 -0.1771089621 0.3012907396 
-0.026850017174 0.025763168507 0.46735909689 -0.095421248 0.14842307667 0.35534454911 0.041197874488 -0.16037118932 0.30668218835 
-0.42864946809 -0.21619395692 0.18475975346 -0.089741548501 -0.2373280648 0.51973256712 0.027758036284 0.052034204591 0.44831166674 
-0.051890870271 0.29372307193 0.32175231637 0.098984856322 -0.064595997635 0.37378796086 -0.1370012176 0.14592010118 0.51328231716 
-0.13860744837 -0.18143292036 0.56280154749 0.20599587882 -0.029778598785 0.58097344108 0.41610012161 0.1909607066 0.3051273296 
0.046127794874 0.052957238238 0.26375539552 0.12883435643 -0.13145593352 0.41477505339 -0.19303552287 -0.34640661504 -0.12685854489 
-0.12585228048 -0.088705477521 0.43866563094 0.15175807647 0.12104830646 0.2196415497 -0.11451134283 -0.098800042806 0.089939102821 
0.10789654353 -0.071796967004 -0.09073725921 0.12250095729 0.27141395733 0.18604327363 0.123540065 0.011295282542 0.31300687298 
0.15017495686 0.17180266485 0.1689614049 -0.1753654424 -0.11838287203 0.38151259628 -0.084018757566 0.26965166051 0.039617465125 
0.3941066409 -0.089265481281 0.22891780527 -0.091247149103 0.2073451303 -0.31613726392 0.13981664683 -0.06223814185 -0.3765679554 
-0.03065780577 0.040034565731 -0.41526551089 0.00426186884 -0.076226548439 -0.34332115995 -0.29236178561 0.10784101521 -0.46110861794 
-0.088250768419 -0.17006867224 -0.2709466523 -0.088781892783 -0.05914806975 -0.32564214546 -0.14145856638 -0.060583262925 -0.43751977549 
0.31861813646 0.038546952861 -0.18127692481 0.31057720332 0.068976528504 0.3443738181 0.015574457108 -0.10046118434 -0.35146983313 
0.16272675159 -0.0081768165416 -0.0562529459 -0.12872635682 -0.072982963083 -0.30331556005 -0.29649313067 -0.0068954426199 -0.33195552389 
0.15611665475 0.061271291976 -0.26419637202 
f 3 70 double
0.0085475739733 0.0081986319744 -0.0033720866202 -0.0016534871129 0.00067667470866 -0.0024077788366 -0.0076924082281 0.0019312832734 -0.0013970673832 
0.020977878547 -0.0043489724579 -0.0076263036579 0.0037235509473 0.013579176313 -0.0031036068108 -6.4789641303e-05 -1.4005401889e-05 -0.0012519912757 
0.0016020179889 -0.0028165757814 -0.0011274430205 0.010984295778 -0.00076157842616 0.010343000655 0.0070317966617 0.006587808673 -0.0044984586031 
-0.0038606909909 -0.0045484137089 0.00068054927824 0 0 -0.0012841259972 -0.0035068772065 -0.0013515943592 -0.0012772011453 
0.0073023319679 -0.015898373789 -0.027314589026 -0.0026909782539 0.0084884800182 0.005332961189 0.00010157732647 -0.00074833244439 -0.00095399285618 
-0.0004003995507 -0.00068986686269 -0.001907737212 0 0 -0.0012841259972 0 0 -0.0012841259972 
0 0 -0.0012841259972 -0.028026964992 -0.061315216869 -0.00046248152477 0 0 -0.0012841259972 
-0.02282178361 0.0061613170193 -0.0012290364356 -0.0012335693809 0.00056016408677 -0.0013532288426 -0.011131433446 0.00035898664022 0.026784417478 
-0.0056422007241 -0.009548152187 0.0028260631556 0 0 -0.0012841259972 -0.0020232332567 0.0032437094006 -0.00020345202885 
0 0 -0.0012841259972 -0.29321609722 0.11899946592 0.15896104428 0.13085386893 -0.15469564503 0.38058905357 
0 0 -0.0012841259972 0 0 -0.0012841259972 0 0 -0.0012841259972 
0 0 -0.0012841259972 0 0 -0.0012841259972 0 0 -0.0012841259972 
0 0 -0.0012841259972 0 0 -0.0012841259972 0 0 -0.0012841259972 
0.19994124584 0.0057094394198 0.17918483117 0 0 -0.0012841259972 0 0 -0.0012841259972 
0 0 -0.0012841259972 0 0 -0.0012841259972 0 0 -0.0012841259972 
0 0 -0.0012841259972 0 0 -0.0012841259972 0 0 -0.0012841259972 
0 0 -0.0012841259972 0 0 -0.0012841259972 0 0 -0.0012841259972 
0 0 -0.0012841259972 0 0 -0.0012841259972 0 0 -0.0012841259972 
0 0 -0.0012841259972 0 0 -0.0012841259972 0 0 -0.0012841259972 
0 0 -0.0012841259972 0 0 -0.0012841259972 0 0 -0.0012841259972 
0 0 -0.0012841259972 0 0 -0.0012841259972 0 0 -0.0012841259972 
0 0 -0.0012841259972 0 0 -0.0012841259972 0 0 -0.0012841259972 
0 0 -0.0012841259972 0 0 -0.0012841259972 0 0 -0.0012841259972 
0 0 -0.0012841259972 
radius 1 70 double
0.005 0.005 0.005 0.005 0.005 0.005 0.005 0.005 0.005 
0.005 0.005 0.005 0.005 0.005 0.005 0.005 0.005 0.005 
0.005 0.005 0.005 0.005 0.005 0.005 0.005 0.005 0.005 
0.005 0.005 0.005 0.005 0.005 0.005 0.005 0.005 0.005 
0.005 0.005 0.005 0.005 0.005 0.005 0.005 0.005 0.005 
0.005 0.005 0.005 0.005 0.005 0.005 0.005 0.005 0.005 
0.005 0.005 0.005 0.005 0.005 0.005 0.005 0.005 0.005 
0.005 0.005 0.005 0.005 0.005 0.005 0.005 
omega 3 70 double
0.027439933052 0.32057503073 -0.44427918772 0.17530115823 -0.71938549127 -0.10422180526 0.49805271698 0.35399911027 0.19383814588 
-0.22848283153 0.70077168948 0.64660438763 0.53779650559 -0.060165737575 -0.79744852291 -1.3570314286 0.50414269372 -0.36681041953 
0.4386906905 0.073442642548 0.42313946848 -3.9833930186 1.0433000329 -1.4860171151 1.5738479899 -0.70280644401 -0.14857996118 
-1.52067209 -0.52043308235 0.27115347689 0.17126797906 -0.65403620109 0.59782124056 -1.3729878721 1.4895803837 -0.24427593071 
-0.2158372652 2.6502595266 -0.0043045156006 -1.2208172929 0.59570342412 -1.6750208644 -0.65161058514 -0.059503148955 -0.56536131898 
0.034849597248 -0.371627207 0.35830348426 -1.3652311783 3.7319535127 2.5907225833 1.5297481506 0.006391169344 -0.6963703028 
-3.4200874635 4.9080434938 3.4102819689 3.1243901331 0.025503868656 -0.18717776981 -1.644870434 0.11962216465 -1.9802804475 
-1.2896326789 0.68180511713 3.3219368748 0.3340309805 -6.7102472339 1.247183399 3.041055687 4.3583406598 0.84422688118 
-0.35858852298 0.42220698539 0.90038277913 3.9433962354 2.1419631645 -1.8231767859 -0.61390875063 -5.2323511593 -5.1283900485 
-0.29597726427 1.7404232915 0.30245199219 15.125846179 8.8569834656 2.2953267484 30.687100686 25.593177339 6.1858532067 
-16.754928117 -19.271944784 -34.898261015 -21.093481465 17.347869109 9.8773458057 -4.9852002235 -33.610564995 29.393900397 
0.048372209821 21.900689182 -5.7432506289 -46.253698023 -3.0814732764 -21.672634301 -24.750035382 -15.387445306 -9.3202566453 
-25.624813573 26.168629135 48.763271834 19.579450861 1.6419058654 12.773256432 20.733342362 1.8244362377 -33.091251457 
4.5225260827 -17.952839172 -19.759042826 40.751429536 31.542166516 -13.517356204 -2.0487032626 56.859435714 10.206789764 
-13.321621756 -7.8268046418 -13.318622018 15.63847332 3.3130522433 1.4134915467 -15.195374441 0.5718135724 3.000026898 
-9.3073486002 -4.2520282993 15.393113605 8.5408872785 -2.9414705969 -14.630980251 -67.070513221 1.0328770414 -49.186174786 
41.775777345 4.5187357155 -9.8973462354 15.015141536 26.45024449 -17.24863593 43.705816036 24.921582646 -5.467952633 
-0.10024809037 -44.262168188 -16.554267761 20.384176828 -11.019361427 -31.62780851 -51.415521811 -2.5874251631 -6.0963960791 
15.183265275 67.273097103 -23.6445779 -8.1073807594 25.096777916 -9.5248234987 13.65139099 12.578613419 -0.3009848483 
8.8493248562 -44.076724509 -18.888422689 23.030765 20.477369792 44.311054243 5.1140587735 27.866113863 62.901399731 
-23.78824274 16.850550552 4.755443149 -0.95656118219 59.902148118 21.476885446 3.42955347 7.5709220083 9.7072775495 
-24.887311758 11.833121167 -6.34896045 -19.014284478 -3.7411879107 -3.7792300926 6.6454338213 13.466404959 -0.88956657211 
-27.50695013 63.293393009 -1.6337956796 10.74883518 11.708297177 -11.361491592 15.239283921 2.8348555283 2.0026724295 
-40.910299285 -45.579119324 -3.9171932653 
