# vtk DataFile Version 4.2
Generated by LIGGGHTS
ASCII
DATASET POLYDATA
POINTS 70 float
-0.017871 -0.0371553 0.0425817 -0.0011207 -0.0371418 0.0443091 0.0120839 -0.0286644 0.0439922 
0.00455361 -0.0129844 0.0424847 -0.0325772 0.00817894 0.0435106 0.00835531 0.0144026 0.0426214 
0.024053 0.0203319 0.0445366 0.0153168 0.0388582 0.0431022 -0.0144664 -0.0356395 0.0546737 
0.0120535 -0.0395546 0.052999 0.0266916 -0.0301652 0.0474253 -0.027168 -0.0275476 0.0489903 
-0.0166623 -0.0254017 0.0514262 -0.00596534 -0.028201 0.0454436 0.00103662 -0.0201268 0.0494237 
0.0260318 -0.0211009 0.0536833 -0.0366904 -0.0197506 0.0515546 -0.0261531 -0.0158476 0.0502494 
-0.00888915 -0.0189107 0.0500544 0.00850653 -0.0130639 0.0541301 0.0193299 -0.0105877 0.0526115 
0.0307487 -0.0122068 0.0473455 -0.030793 -0.000595901 0.0499028 -0.0190476 -0.0050947 0.0488978 
-0.00913292 -0.000715292 0.0542246 -0.0219866 0.00670307 0.0484164 0.00185128 0.00804182 0.0522535 
0.0113417 0.00399376 0.0543143 0.0285595 0.000531894 0.053206 -0.00776805 0.0159239 0.0491424 
0.0318782 0.0104328 0.0465725 -0.0213338 0.0263664 0.0495184 0.00527609 0.0244498 0.0545522 
0.0125045 0.0247193 0.0461706 0.0338767 0.0237121 0.0464258 -0.0110116 0.0397455 0.0469176 
0.0168234 0.0352728 0.0535312 0.0266215 0.0307218 0.0475192 0.00270759 -0.040379 0.0582385 
0.0183589 -0.0306549 0.0581424 -0.0276894 -0.0200198 0.0615192 -0.00244979 -0.0301225 0.0557637 
-0.0311588 -0.0105242 0.0608887 0.00300439 -0.0158197 0.0655361 0.0391932 -0.011831 0.0643574 
-0.0403623 -0.00364467 0.0566545 0.00333573 -0.00562131 0.0598115 0.0289036 -0.00767484 0.060735 
0.0385729 -0.00264266 0.0557127 -0.0243669 0.0028045 0.0602655 -0.0137103 0.00549322 0.061222 
0.0393397 0.00784119 0.0569155 -0.0316753 0.0139535 0.0573917 -0.0184596 0.0155956 0.0567988 
0.00843273 0.0146742 0.0610625 0.0287135 0.0108035 0.0584763 0.0374503 0.0170519 0.0610198 
-0.0294146 0.025739 0.0556636 -0.0131603 0.0265878 0.0560377 0.0147592 0.0222665 0.0644694 
0.0281989 0.0292453 0.0610678 -0.0225312 0.0348073 0.0576184 -0.00949423 0.040265 0.0637178 
-0.00769486 -0.028144 0.0688915 -0.032586 0.00414659 0.0684229 0.0185325 0.00366223 0.0667765 
-0.0194551 0.0165659 0.070505 -0.00326188 0.0169826 0.0674872 0.010644 0.0347787 0.0660781 
0.0118122 0.0306102 0.0824539 
VERTICES 70 140
1 0 
1 1 
1 2 
1 3 
1 4 
1 5 
1 6 
1 7 
1 8 
1 9 
1 10 
1 11 
1 12 
1 13 
1 14 
1 15 
1 16 
1 17 
1 18 
1 19 
1 20 
1 21 
1 22 
1 23 
1 24 
1 25 
1 26 
1 27 
1 28 
1 29 
1 30 
1 31 
1 32 
1 33 
1 34 
1 35 
1 36 
1 37 
1 38 
1 39 
1 40 
1 41 
1 42 
1 43 
1 44 
1 45 
1 46 
1 47 
1 48 
1 49 
1 50 
1 51 
1 52 
1 53 
1 54 
1 55 
1 56 
1 57 
1 58 
1 59 
1 60 
1 61 
1 62 
1 63 
1 64 
1 65 
1 66 
1 67 
1 68 
1 69 

POINT_DATA 70
FIELD FieldData 7
id 1 70 int
2126 739 810 1010 1068 546 2075 1435 348 
364 153 1515 2092 522 722 355 1335 1936 
1857 148 2095 1064 801 2101 668 82 224 
1780 1148 1286 1450 1230 1100 1176 1685 447 
1478 657 1546 1605 1606 1510 936 281 851 
1038 22 535 257 1192 286 1721 982 1350 
1983 1962 2083 318 599 1562 183 858 1231 
821 962 1258 1646 1822 1240 1489 
type 1 70 int
2 2 2 2 2 2 2 2 2 
2 2 2 2 2 2 2 2 2 
2 2 2 2 2 2 2 2 2 
2 2 2 2 2 2 2 2 2 
2 2 2 2 2 2 2 2 2 
2 2 2 2 2 2 2 2 2 
2 2 2 2 2 2 2 2 2 
2 2 2 2 2 2 2 
i 3 70 int
0 0 0 0 0 0 0 0 0 
0 0 0 0 0 0 0 0 0 
0 0 0 0 0 0 0 0 0 
0 0 0 0 0 0 0 0 0 
0 0 0 0 0 0 0 0 0 
0 0 0 0 0 0 0 0 0 
0 0 0 0 0 0 0 0 0 
0 0 0 0 0 0 0 0 0 
0 0 0 0 0 0 0 0 0 
0 0 0 0 0 0 0 0 0 
0 0 0 0 0 0 0 0 0 
0 0 0 0 0 0 0 0 0 
0 0 0 0 0 0 0 0 0 
0 0 0 0 0 0 0 0 0 
0 0 0 0 0 0 0 0 0 
0 0 0 0 0 0 0 0 0 
0 0 0 0 0 0 0 0 0 
0 0 0 0 0 0 0 0 0 
0 0 0 0 0 0 0 0 0 
0 0 0 0 0 0 0 0 0 
0 0 0 0 0 0 0 0 0 
0 0 0 0 0 0 0 0 0 
0 0 0 0 0 0 0 0 0 
0 0 0 
v 3 70 double
0.028705227111 0.0060834364662 0.0061896540805 -0.063290333731 0.077876461779 0.051496235362 0.12782163497 -0.11773263015 0.042720914056 
0.12217419551 -0.05532648829 0.014658204084 -0.05181069224 -0.016693028634 -0.029505588193 -0.12602687966 -0.054639421356 -0.068260018101 
-0.074613023003 -0.045825516968 -0.012912997663 0.062619757846 0.064283920516 0.034171707551 0.077537384067 0.037885211647 -0.032420793762 
-0.11297925035 -0.028790323118 0.037013038915 0.097511757464 0.089944574021 0.082528546909 -0.08639170022 -0.11707498796 -0.061739064102 
0.090526554065 -0.22977708772 0.098043362942 -0.03358041122 0.03152612365 -0.10299251275 -0.024569765138 0.21286890364 -0.23375415579 
-0.24222873285 -0.20584158532 0.032425503664 0.019874422124 0.073890107121 0.12428993764 0.15890678288 0.1557089661 0.11741347946 
0.00015448967359 -0.11822830479 0.09506785403 -0.16362725465 -0.01322318832 0.16863423041 -0.013405793853 -0.0017238061377 0.058420361871 
0.018363662128 0.030694183026 0.075148384821 -0.06553471573 0.061002815769 0.063103130743 0.14700630359 -0.022806444064 0.10817631749 
-0.15135231867 -0.20230970357 0.13517133491 0.098349431671 -0.11492139554 -0.026076777948 0.072129520602 0.072945660924 0.035733648559 
0.039814538243 0.08909297547 0.051696712979 -0.11344610766 0.068509320253 0.059025797998 -0.11208850102 -0.062424457969 0.051123376951 
-0.10552215788 0.0095125003442 0.079099771903 -0.020702403264 -0.029116559794 0.10061247813 0.027356968384 -0.072465080043 0.089553044759 
0.048644346339 0.074912283134 -0.093561570741 -0.10968989972 0.0014872265285 0.073368983005 -0.0028458899948 -0.016458209088 -0.06635808795 
-0.1823291613 -0.064331750659 0.060021634243 0.0062483720179 -0.048552565475 0.054672423392 0.1031740882 -0.038896837728 0.13498043082 
0.015739632316 0.064166313077 0.16107525602 0.059948192658 -0.11636484908 0.025099179788 0.07726146036 -0.259240866 0.018198544685 
-0.066303585245 0.11468781632 0.22343700767 0.02620051863 -0.24302028037 0.28364793685 -0.024853822574 -0.087014217328 0.057210247101 
-0.25422252913 0.23694614766 0.033484063531 -0.053282508636 -0.034372564109 0.20270814665 -0.074219886486 -0.19484591495 0.0039331904015 
-0.20609602975 0.1277879236 0.17177620711 -0.075074152702 0.20326943774 0.10271063011 0.16688090558 0.018200788266 0.14962155311 
0.12332458483 0.03649809654 0.13461735196 0.17184445189 -0.056205442127 0.17612191159 0.001746662677 0.053754817737 0.14991060066 
-0.10421587189 -0.16088839005 0.076601812957 0.043838450942 0.059074563382 0.023977327604 -0.0053260260391 -0.081497127744 0.24335756818 
0.20872914359 0.13835660708 0.14614376828 0.037971330438 -0.086078193096 -0.047706369053 -0.059631825995 0.093837187549 0.10201174112 
0.080696298441 -0.013913734053 0.21424217494 0.078871359284 -0.0074190042128 0.11878252891 0.073041325391 0.1876143813 0.19324343745 
-0.27570207531 0.031507900061 0.16308555642 -0.15421089729 -0.024018111371 0.15803875266 0.057582326472 0.043038870064 0.12901855382 
0.12682456657 -0.029284271874 0.24651407994 -0.11619063022 -0.030221974097 0.28131409958 0.27514066828 -0.13944887036 0.31048240581 
-0.045824714692 -0.12898266596 -0.4497958335 
f 3 70 double
0 0 -0.0012841259972 0 0 -0.0012841259972 0 0 -0.0012841259972 
0 0 -0.0012841259972 0 0 -0.0012841259972 0 0 -0.0012841259972 
0 0 -0.0012841259972 0 0 -0.0012841259972 0 0 -0.0012841259972 
0 0 -0.0012841259972 0 0 -0.0012841259972 0 0 -0.0012841259972 
0 0 -0.0012841259972 0 0 -0.0012841259972 0 0 -0.0012841259972 
0 0 -0.0012841259972 0 0 -0.0012841259972 0 0 -0.0012841259972 
0 0 -0.0012841259972 0 0 -0.0012841259972 0 0 -0.0012841259972 
0 0 -0.0012841259972 0 0 -0.0012841259972 0 0 -0.0012841259972 
0 0 -0.0012841259972 0 0 -0.0012841259972 0 0 -0.0012841259972 
0 0 -0.0012841259972 0 0 -0.0012841259972 0 0 -0.0012841259972 
0 0 -0.0012841259972 0 0 -0.0012841259972 0 0 -0.0012841259972 
0 0 -0.0012841259972 0 0 -0.0012841259972 0 0 -0.0012841259972 
0 0 -0.0012841259972 0 0 -0.0012841259972 0 0 -0.0012841259972 
0 0 -0.0012841259972 0 0 -0.0012841259972 0 0 -0.0012841259972 
0 0 -0.0012841259972 0 0 -0.0012841259972 0 0 -0.0012841259972 
0 0 -0.0012841259972 0 0 -0.0012841259972 0 0 -0.0012841259972 
0 0 -0.0012841259972 0 0 -0.0012841259972 0 0 -0.0012841259972 
0 0 -0.0012841259972 0 0 -0.0012841259972 0 0 -0.0012841259972 
0 0 -0.0012841259972 0 0 -0.0012841259972 0 0 -0.0012841259972 
0 0 -0.0012841259972 0 0 -0.0012841259972 0 0 -0.0012841259972 
0 0 -0.0012841259972 0 0 -0.0012841259972 0 0 -0.0012841259972 
0 0 -0.0012841259972 0 0 -0.0012841259972 0 0 -0.0012841259972 
0 0 -0.0012841259972 0 0 -0.0012841259972 0 0 -0.0012841259972 
0 0 -0.0012841259972 
radius 1 70 double
0.005 0.005 0.005 0.005 0.005 0.005 0.005 0.005 0.005 
0.005 0.005 0.005 0.005 0.005 0.005 0.005 0.005 0.005 
0.005 0.005 0.005 0.005 0.005 0.005 0.005 0.005 0.005 
0.005 0.005 0.005 0.005 0.005 0.005 0.005 0.005 0.005 
0.005 0.005 0.005 0.005 0.005 0.005 0.005 0.005 0.005 
0.005 0.005 0.005 0.005 0.005 0.005 0.005 0.005 0.005 
0.005 0.005 0.005 0.005 0.005 0.005 0.005 0.005 0.005 
0.005 0.005 0.005 0.005 0.005 0.005 0.005 
omega 3 70 double
-8.5363846632 11.698800111 -11.983604763 -13.24860397 7.0498333802 -13.397796953 0.12909655022 -6.4352081036 6.1217173363 
9.3513186067 -12.380070476 -5.4347698496 35.819519326 4.1319442599 18.539095292 6.5484190873 16.886288531 6.079465515 
-23.739436143 -32.03376171 -6.357119188 15.189869524 -15.898133351 -21.055280147 -7.8148114829 -6.7598059817 28.739428786 
15.690374677 27.855043415 5.0176257512 18.573295523 10.377520261 14.970510758 20.303886082 36.582585528 3.1141661152 
9.4975497689 -19.510951528 34.594071957 16.915357795 -6.9319145685 0.8811062515 37.311308372 -21.129626241 49.941894528 
33.402342692 -8.3852249338 -35.00032522 -6.742420267 8.1562239574 -17.398834094 20.363905281 -20.427213611 -15.900456027 
-2.7360465496 -2.6840550306 -4.1514747971 -23.794509404 -29.578392894 -9.410559157 -10.873709434 14.578843185 -22.154650265 
12.307923153 11.928441991 9.6394441702 -23.870873467 33.439110206 -8.1119733235 0.6657822071 -21.618016433 -24.179687286 
-1.5755029805 33.398621245 21.452520049 -0.79662069931 28.668726574 -17.306008139 -23.314537509 -44.671093523 2.8901400055 
29.069274307 29.703519685 20.931860226 18.100256656 11.344966279 -12.948581681 -16.176641326 -5.5527657899 20.083362151 
-1.8313100594 -5.0336818103 -4.2006657072 -15.889605968 -5.6535593172 -5.7261473051 33.957171327 19.59150892 2.135922418 
3.0362576858 15.116998082 3.7096419972 13.440844539 4.5839926873 5.3134832288 -15.544531267 0.095411451186 4.1232906272 
-18.218502723 -17.74477659 12.372878212 14.726914994 2.3952787318 1.5220932029 -34.646065603 -39.02236057 18.463012922 
20.795275929 17.883980131 9.7778130349 8.5017814068 22.812434599 19.621239817 51.220060988 -18.381874029 -0.63652338425 
8.1366057915 -21.129480096 13.142001644 5.8143211751 17.391577573 -7.0262641114 18.27320755 13.858468192 -43.445207315 
4.8251576374 25.786989823 -9.2102050156 -0.95510260174 5.6326377385 19.656823335 35.346041855 17.779608463 -4.9343525243 
21.409756558 -19.659942283 5.6158016284 45.404292826 -35.26638111 -70.653795485 13.866407658 31.3383107 6.331325499 
-13.637545993 9.0668168786 1.4790625768 -16.871190191 3.6670338143 31.152202269 19.017985331 -8.6671528594 44.728344267 
-75.650917459 3.9305422985 32.55631131 -19.366036215 -27.497828956 -2.2035379742 14.312964887 3.8418283884 -13.819729072 
-4.8514440155 8.941564458 3.5154572163 8.7855632861 -19.447554173 -8.7053550735 25.391205027 -19.382187774 -0.7344886977 
20.378652108 -38.168509452 -17.462908185 9.9100178796 35.785833251 0.26300548279 0.95020932157 -35.533098745 6.7682929514 
-21.099624151 -1.3399272423 19.982101953 -38.291213005 28.881088684 -1.7898089805 23.129148873 -4.8565138552 0.19615768783 
44.61912608 29.587833265 -2.2490134955 29.011557635 10.89707781 5.3369542704 6.9577111156 37.821301673 12.63774974 
-48.245409252 -21.399252478 20.24129207 
