# vtk DataFile Version 4.2
Generated by LIGGGHTS
ASCII
DATASET POLYDATA
POINTS 70 float
0.0049914 -0.0148521 0.00986482 0.011849 -0.0044093 0.0123172 0.0192866 -0.00512199 0.0130747 
-0.0132095 0.00719737 0.0127347 0.0164588 0.00337915 0.0128099 -0.00268924 0.0107191 0.0111494 
0.00115311 0.0154909 0.0102475 0.0100661 0.0158233 0.0109347 -0.00441551 -0.0198886 0.0177141 
0.00200997 -0.0217786 0.0166395 0.00810935 -0.0204304 0.0189877 0.00829284 -0.0184845 0.013315 
-0.0191348 -0.0103555 0.016001 -0.0126959 -0.0151367 0.0166599 -0.0135886 -0.00867727 0.0141186 
-0.00831505 -0.011433 0.0149021 0.0030181 -0.0133272 0.0153218 0.00627455 -0.00880504 0.0175452 
0.0138305 -0.0151231 0.0184972 -0.0168022 -0.00509565 0.0177024 0.0151912 -0.00286722 0.0172897 
0.0210415 -0.00618411 0.0204496 0.0217475 -0.000213179 0.0197235 -0.0208138 0.00264437 0.0151312 
-0.0151432 0.000947382 0.0161511 -0.00536733 0.000105333 0.0141085 -0.00136486 0.00589193 0.0147811 
0.00988854 0.00238556 0.0192951 0.021487 0.00467697 0.0162375 -0.0188037 0.00869237 0.014831 
-0.0109538 0.00907128 0.0196802 0.0073936 0.0104799 0.0149265 0.00502898 0.0129876 0.0198375 
0.0167549 0.0107246 0.0175544 -0.0124908 0.0180652 0.0132585 -0.00660203 0.0172941 0.0182631 
-0.00312842 0.0217179 0.0135981 0.00208487 0.0192894 0.0153131 -0.00960667 -0.0196917 0.0233365 
-0.00183188 -0.017004 0.0222969 -0.00377593 -0.0178793 0.0280268 0.00139088 -0.0218132 0.023978 
0.00911784 -0.0199003 0.0255491 -0.0114382 -0.0097784 0.0220197 -0.00952204 -0.0153992 0.0275351 
-0.000562669 -0.0111166 0.0218514 0.00478735 -0.0114829 0.0245713 0.00863163 -0.0151373 0.021767 
0.0128552 -0.0115365 0.0283586 -0.0218512 -0.00237967 0.0239474 -0.0190872 -0.00757343 0.0251228 
-0.0128161 -0.00399643 0.0236009 -0.00461374 -0.00174389 0.0255066 0.00795861 -0.00409014 0.0228222 
0.00244053 -0.00419934 0.0274834 0.0157019 -0.00368606 0.028116 -0.021609 0.00349717 0.0227587 
-0.0152511 0.00288268 0.0218294 -0.0092759 0.0042929 0.0255746 -0.00366496 0.0036849 0.0230351 
0.0043861 0.00361388 0.0213483 0.0175129 0.00164329 0.0259899 0.0206377 0.00719868 0.0216467 
0.021323 0.00507635 0.029405 -0.0168523 0.0110805 0.0257354 0.0122723 0.0118156 0.0252772 
-0.012751 0.0178462 0.0248528 -0.000331869 0.0218378 0.0289299 0.00332973 0.0216021 0.0225792 
0.00747293 0.0205505 0.0269809 
VERTICES 70 140
1 0 
1 1 
1 2 
1 3 
1 4 
1 5 
1 6 
1 7 
1 8 
1 9 
1 10 
1 11 
1 12 
1 13 
1 14 
1 15 
1 16 
1 17 
1 18 
1 19 
1 20 
1 21 
1 22 
1 23 
1 24 
1 25 
1 26 
1 27 
1 28 
1 29 
1 30 
1 31 
1 32 
1 33 
1 34 
1 35 
1 36 
1 37 
1 38 
1 39 
1 40 
1 41 
1 42 
1 43 
1 44 
1 45 
1 46 
1 47 
1 48 
1 49 
1 50 
1 51 
1 52 
1 53 
1 54 
1 55 
1 56 
1 57 
1 58 
1 59 
1 60 
1 61 
1 62 
1 63 
1 64 
1 65 
1 66 
1 67 
1 68 
1 69 

POINT_DATA 70
FIELD FieldData 7
id 1 70 int
44 388 573 709 290 535 209 292 924 
1401 1391 436 952 1396 212 1507 657 1177 
401 1459 1168 1511 2133 851 911 472 672 
2015 744 732 2287 1777 2611 1632 801 1958 
602 903 1811 2256 3312 3103 2945 2546 2749 
2914 2602 1490 2664 2454 3036 3323 2489 2208 
3042 2824 2301 2676 2199 3144 1971 3260 2149 
3277 3257 2841 2836 2857 2180 2712 
type 1 70 int
2 2 2 2 2 2 2 2 2 
2 2 2 2 2 2 2 2 2 
2 2 2 2 2 2 2 2 2 
2 2 2 2 2 2 2 2 2 
2 2 2 2 2 2 2 2 2 
2 2 2 2 2 2 2 2 2 
2 2 2 2 2 2 2 2 2 
2 2 2 2 2 2 2 
i 3 70 int
0 0 0 0 0 0 0 0 0 
0 0 0 0 0 0 0 0 0 
0 0 0 0 0 0 0 0 0 
0 0 0 0 0 0 0 0 0 
0 0 0 0 0 0 0 0 0 
0 0 0 0 0 0 0 0 0 
0 0 0 0 0 0 0 0 0 
0 0 0 0 0 0 0 0 0 
0 0 0 0 0 0 0 0 0 
0 0 0 0 0 0 0 0 0 
0 0 0 0 0 0 0 0 0 
0 0 0 0 0 0 0 0 0 
0 0 0 0 0 0 0 0 0 
0 0 0 0 0 0 0 0 0 
0 0 0 0 0 0 0 0 0 
0 0 0 0 0 0 0 0 0 
0 0 0 0 0 0 0 0 0 
0 0 0 0 0 0 0 0 0 
0 0 0 0 0 0 0 0 0 
0 0 0 0 0 0 0 0 0 
0 0 0 0 0 0 0 0 0 
0 0 0 0 0 0 0 0 0 
0 0 0 0 0 0 0 0 0 
0 0 0 
v 3 70 double
0.0012523358413 9.5872646751e-05 0.0017567908152 0.00051869648774 0.0010654087742 -0.00016683017773 0.00035572985508 0.0016641121402 -0.00055417649545 
0.0017103526707 0.001740132621 -3.2252727614e-05 0.00046725466875 0.0010363178858 -0.00083169297206 0.0019641868517 0.00061884591079 -0.00047686723994 
0.0017999841014 0.00086221078305 -2.7898326202e-05 0.0014400083102 0.0005928364979 -0.00014824573355 -0.0026162016149 -0.0015976931736 0.0039978341085 
0.0035179803429 0.00048743883288 0.0029463600601 0.0035661161388 0.0016431846206 0.0031690393721 0.002135632305 0.0016405534101 0.0019326348288 
-0.0013431588506 0.00048841767279 0.00038553181215 5.3529125205e-06 0.00036121488407 0.0045473140931 0.0013109754408 0.00011672429086 0.0027992749278 
0.0014490731488 -0.00074241111498 0.0051986840689 0.0010068194076 0.00062271334179 0.0013327223224 7.6593207859e-05 0.0015576724369 0.0018889118488 
0.0030046119315 0.0028102716074 0.0033062544695 0.00010832417706 0.001121593104 -0.00011953901687 -0.00012852164711 -0.00028085004511 -0.00089444686237 
-0.00054262029482 0.0012166514863 -0.0033604847749 0.0022314532717 0.0019373200911 0.00010011893353 0.00065327972534 0.0010923629205 -0.00068031797251 
-0.0010973093381 0.0037407443823 0.0011343961055 0.0021036511916 0.00010642191182 0.0019119733608 0.0014080030081 0.0013012281984 -0.00040094133781 
0.001000504675 -0.0027647194507 -0.0040102167007 8.8302596923e-06 0.00050575316023 -0.0010178361438 0.0019179977702 0.0025203538947 8.4545241189e-05 
0.0029246424558 0.00029534120373 -0.0014965877986 0.0017551520634 0.0001551432557 7.1383175667e-05 0.0014307958994 -0.00073014473935 -0.0012929293085 
0.001361503791 -6.3386734264e-05 -1.6751969078e-05 0.0027333092419 0.002054695992 0.00020662152435 0.0007979350471 0.00015944707024 -0.00025658491675 
0.0021988553749 0.00030976965019 0.00043677809043 0.001806065694 -0.0010410134865 0.00064562847089 0.0065486257238 0.0028137513785 0.0083425629573 
0.0006065512408 0.0026277831783 0.0064300647377 0.0056202668368 -0.0040019927282 0.0009669576901 0.0033031841105 0.0012763126362 0.0089620668826 
0.013541840868 0.025626180881 -0.092359111147 0.0052789443567 0.017562367991 -0.010625631043 -0.0017394066542 0.0011832511178 0.039944972545 
0.0043616215185 0.00092669654968 -0.0072278571075 -0.0034964880579 0.0054730519637 -0.0038894121779 0.0031268939449 -0.00033752659117 0.00045344142601 
0.011199905134 0.018172568084 -0.0061857791124 0.0024493492424 -0.0049296502018 -0.0012016093006 0.0012248944164 0.010138301178 0.0023150679446 
-0.005709199889 0.011216968198 -0.0019919086125 -0.0013801800608 -0.010016890306 -0.00044619360019 0.0011064971524 0.001248414243 -0.00043867468642 
0.022504305573 0.014477342509 0.015203585431 -0.00043180079578 -0.010818056147 0.012373859581 -0.00022707671725 -9.1421098111e-05 0.0080497768066 
0.0017930033241 0.00038360163389 0.0042517028299 -0.0030655762397 -0.0032835719903 0.0073664020186 0.0034814348516 0.0016816030646 -0.00068685589127 
0.00060230056857 -0.000818501896 -0.0024140729821 0.0048511584112 0.0044797844266 0.01903201584 0.002654635021 -0.0036253797761 0.00080237001414 
-0.022441466118 0.021024009529 0.0082259276181 -0.0016259677318 0.0036898173497 0.0040538008617 0.0050834533195 -0.00019435516389 -0.001427423182 
0.0024623211904 0.0033783458089 0.0023124566987 -0.021762273031 0.0079527645177 0.0013759061371 -0.00081530771369 9.4247548694e-05 -0.0052747348207 
-0.0012436515843 7.4085405703e-05 0.0029402292842 
f 3 70 double
0.00013132717621 -0.00021337904762 0.0010400563845 -0.00025162119362 -5.1355831738e-05 0.00019200252284 0.0003015581889 -0.00018086196505 4.4556035065e-05 
-0.00039180038938 -0.00019048622359 -0.00016194931368 0.0001077854314 6.80432655e-05 0.00016848780306 0.00031591781698 -0.00026594243706 -0.0003141963656 
-8.5667730433e-05 -0.0001806617017 0.00025858496554 0.00014874905662 0.00033660938619 -5.7265500066e-05 -0.0015002723582 0.001407790132 0.0016425457772 
-7.8927680344e-05 0.00060156633954 -0.00023948110021 0.00017173642425 0.00023539133442 3.3637550997e-05 -0.00011880476421 -0.00016029244553 -0.00020113834832 
4.0439449848e-05 0.00054194738565 -0.00080461662977 0.00028348713157 -0.00018952006276 0.0022876591919 -0.00071696057421 -0.0013343520039 0.0001069183286 
-0.00021917145177 -0.00017048656095 -0.00056271555657 0.00046216274701 0.00039472674785 -0.00054330667067 -0.00047440392274 0.00013546433492 6.5074880984e-05 
-0.00079373338671 -0.00028588423717 -0.00032922652487 0.00019209505762 -0.0015909455928 -0.0020351451782 0.00092403447969 0.00076851204442 -0.00062096623162 
0.0015185113917 0.00083382560356 -0.0017191408282 -0.00031888513401 0.0007920520072 -0.0008046148668 -5.5381669508e-05 0.00020017515627 0.00097309731637 
-0.00087970000654 0.0011387785106 -0.0012336310744 -8.8324394569e-05 -0.00024260650523 -0.00087842752192 -0.0002552009069 0.00023438770628 -5.1122098412e-05 
-0.0011540099126 -0.001305557641 -0.0018978391296 -0.00029850516889 0.00019551298519 0.00089565028916 0.00081245139505 -1.1965989837e-05 0.00019025314609 
-0.00013853434264 -0.0014222449404 0.0011082231027 -0.00093586312667 8.3260053655e-06 0.00053768791971 0.00029371291335 -0.0014850840786 0.00033794631768 
-5.9132628282e-06 0.00026332059646 0.00025869563512 -2.1319411023e-05 -2.2886863308e-05 -7.5036773317e-05 0.00075533866083 0.00019037485526 -0.00020829554008 
-7.1096168543e-05 -0.00015582092748 0.00017265036885 0.00036823581961 0.00043815619466 -7.8899873183e-05 0.0031644129091 -0.0027658913766 -0.001884174785 
0.0014491925219 -0.00023664710772 0.0019528528888 0.00066759832843 0.0045012631839 -0.00058511449829 -0.0011742940668 0.0024734429147 0.0011596092807 
0.0012131142526 0.00061227740779 0.0077357352908 -0.0012594958529 0.003801101141 0.0080252433064 0 0 -0.00027737121539 
-0.0023195388452 0.0052741276185 0.011059368935 -0.0031448098718 -0.00033055450222 0.0019806807571 -0.00040638760341 0.000915261681 0.0011534103427 
0.0091078492156 -0.0015601030416 -0.0040670612956 0.0047662803393 0.00048292847501 -0.00068137679265 0.0096730281656 -0.0048638260951 0.0013448870429 
6.5461339927e-07 0.0024119506613 0.003394046467 -0.00067140704814 0.0026761622572 0.0003870721637 -0.0011947636953 0.00055265150648 -0.00025340885484 
0 0 -0.00027737121539 -0.0062093669 -0.00029048412268 0.0050560982033 0.00023638332731 -0.00051260423955 0.0021789739616 
0.00084651832589 -0.00069153581578 -0.00077722071282 0.00019491913483 -0.00036783396796 -0.00043111903302 0.00075194620347 -0.00040663474369 -0.00021165549528 
0.0020467799862 -0.0012659244701 0.00016965582332 0 0 -0.00027737121539 0.00093016950348 -0.00026194024859 -0.0002776115584 
0 0 -0.00027737121539 2.1514289299e-05 0.00070995832141 -0.00084093917172 0.0034998617423 0.00022533297571 -0.0074294275111 
0.00057168137345 -0.00089998659168 -0.00034097702818 5.3843973463e-05 -2.6612630487e-05 -0.00012151425649 -0.0011542477378 -2.8801932307e-06 0.00084049618452 
-0.00026568002707 -0.00036647071173 -3.1693141321e-05 
radius 1 70 double
0.003 0.003 0.003 0.003 0.003 0.003 0.003 0.003 0.003 
0.003 0.003 0.003 0.003 0.003 0.003 0.003 0.003 0.003 
0.003 0.003 0.003 0.003 0.003 0.003 0.003 0.003 0.003 
0.003 0.003 0.003 0.003 0.003 0.003 0.003 0.003 0.003 
0.003 0.003 0.003 0.003 0.003 0.003 0.003 0.003 0.003 
0.003 0.003 0.003 0.003 0.003 0.003 0.003 0.003 0.003 
0.003 0.003 0.003 0.003 0.003 0.003 0.003 0.003 0.003 
0.003 0.003 0.003 0.003 0.003 0.003 0.003 
omega 3 70 double
0.097764353394 -0.10354453806 0.09471426468 0.053450731718 -0.081417727146 0.063444350701 -0.019182984484 0.088852775197 0.18701509413 
0.13349258633 -0.035046682543 -0.20908128415 -0.027529118642 0.063561668615 -0.016193189757 0.0090384346226 0.058670240706 -0.0098827693399 
-0.011948815742 0.10398810257 0.052145966021 0.061890130901 0.025926923416 0.012121404842 0.3102071726 0.13774391858 1.1563656845 
0.019199647672 0.24864496771 0.50135887558 0.29684621804 0.71545856336 -0.59682703346 -0.31049529896 0.06967889446 0.032789719512 
0.084188443272 -0.015545278106 0.36629582435 0.22213956331 0.3074587386 0.0072549897595 -0.38130304773 0.24704029401 0.21131407972 
-0.2977183453 -0.23960169713 -0.37781718788 -0.32007727336 0.063685236168 0.14227582547 -0.23900181797 0.26330129826 -0.25808132913 
-0.10205570995 -0.32899320995 0.19928624871 -0.44886027646 -0.69501476775 0.29364810574 -0.21342346107 0.36993248042 -0.28461885966 
0.66220092001 0.69628475529 -0.081899517127 -0.57305351901 -0.050007955671 0.92717509136 0.39919830821 -0.47074416547 -0.21131156 
0.093577941216 -0.21099726316 -0.19042315128 0.21021365714 0.22680284261 -0.0081734491353 -0.26287543708 -0.030013945564 0.042120485533 
0.59868677366 0.14509734222 0.34395659884 -0.13032451871 -0.054985681496 -0.0051375371002 0.096583687323 -0.099116300245 -0.18415242097 
0.57256225332 0.22757302805 0.004579646367 0.097987318368 0.15756786874 0.13443729924 0.19869157451 -0.011836406896 0.30526121582 
-0.08756781447 0.16383299876 0.08648326461 0.14846473156 -0.12229531704 -0.16201997169 0.0098887984495 -0.20068195251 0.0700923954 
0.042157104956 0.11964043704 -0.040073409016 -0.31094840861 -0.01362059974 0.095466672425 -5.3957228117 2.8891221811 -4.149223854 
0.85065775631 -0.28187323829 0.74144511594 -2.1425303266 -5.3151295538 -8.9383169433 1.7182007383 -1.7082315562 0.48026761982 
-5.8456057945 -29.343736668 -11.278679555 2.3761393449 -2.9229886235 -2.1786797625 6.6206471781 -13.946403357 -3.7168514276 
2.2664752632 -0.58647983967 -1.3230127498 -2.4319061201 0.7889007101 1.4949542141 -0.74720150914 -0.41556058022 1.0100252527 
-6.1797300798 -0.89702721153 -2.9783731051 -2.5678624931 0.87715216843 0.98710452952 0.43341756424 -0.60756762494 -1.4320518179 
-2.2394279491 4.4613202527 -5.2250497309 7.4792700961 0.060265665606 -0.39383766569 -0.061851385488 -0.87016621183 0.10623881399 
6.4422198381 8.1091505781 -5.6694254726 -0.35548001905 2.4574638523 10.346099141 -0.1110127744 1.4623898263 -0.80412974455 
-0.32744045971 -0.79897296822 -0.15428669747 -0.39338470561 -3.3605760759 1.622010467 -1.1120372799 0.26460294594 -0.31157042014 
0.39235194784 2.2154775272 -0.32408639966 -10.779353365 1.6394900641 -1.9326958338 0.36668854073 -0.25678406146 -0.45998067492 
4.3586887181 -1.0995757905 4.8968308119 1.7652021049 1.2740049313 1.8211762277 1.0094648663 -1.9417150811 0.51872858154 
-0.5114235199 0.70488285195 0.95862911341 -0.70800916603 -3.2397980276 -6.3764210694 0.60682589462 -0.45310221118 -0.85163726818 
0.87315083208 0.21028987418 0.9007908956 
