# vtk DataFile Version 4.2
Generated by LIGGGHTS
ASCII
DATASET POLYDATA
POINTS 70 float
0.0082906 -0.0161696 0.0172149 0.00239739 -0.0109162 0.0177028 0.0153811 -0.0107403 0.0183613 
-0.0110787 0.00612024 0.0156051 0.00369957 0.00663461 0.0161578 0.0145506 0.00831219 0.0178431 
-0.0079129 0.0134151 0.0149246 -0.000733889 0.01052 0.0150396 0.00823266 0.0122674 0.0189242 
0.00763959 0.0167193 0.0147629 0.00445452 0.0214169 0.0168556 -0.0105526 -0.0126499 0.0215674 
0.0168203 -0.0105489 0.027642 -0.0184793 -0.00153214 0.0250801 -0.0112401 -0.000549033 0.0269601 
0.0107839 -0.00612294 0.0246765 0.0167724 -0.00148431 0.0219519 -0.0159065 0.00446442 0.0212203 
-0.0102047 0.00536881 0.026947 0.000796804 0.00401508 0.0244935 0.0125009 0.0179315 0.0252886 
-0.00500167 -0.00594675 0.0317242 -0.000201873 0.0014209 0.029841 0.0091267 0.00503931 0.0284802 
0.00856939 0.0109722 0.0292408 0.0110212 0.0189049 0.0433074 0.00242246 0.0211307 0.0432952 
0.000681511 -0.0194415 0.0406777 -0.0177258 -0.0129322 0.039881 -0.0077262 0.0199952 0.0431816 
0.0112725 -0.0129299 0.0377691 0.0113557 0.00854545 0.0432988 0.0176947 -0.0112432 0.0381187 
0.0154457 0.0147081 0.0433482 -0.0130664 -0.00455692 0.0399165 -0.00615762 -0.00890189 0.0389478 
0.00231975 -0.00848984 0.0385819 0.00147168 -0.00206427 0.0401862 0.00296904 0.0148274 0.0432637 
-0.0050908 0.0109558 0.0432627 0.0100378 -0.00697841 0.0391394 -0.0109601 0.0123429 0.0432479 
0.0179445 -0.00391336 0.0395986 0.0198729 0.00906842 0.0433323 0.0133303 0.00251673 0.0432766 
-0.019823 0.00804483 0.0432849 0.000671134 0.00635111 0.0433059 -0.00737562 0.00326994 0.043311 
-0.0137152 0.00672837 0.0433432 0.00518244 0.00172543 0.0431906 0.0090678 0.00193316 0.0382065 
0.0200763 -0.00824721 0.0432407 0.0214036 -0.000709963 0.043335 0.0130152 -0.00350579 0.0430702 
-0.00880805 0.00799826 0.0395796 -0.00147421 0.010049 0.0384981 0.00531374 -0.00591749 0.0431677 
-0.00142954 -0.00820709 0.0432667 -0.00420741 -0.00236406 0.04267 -0.0203267 -0.00676979 0.0416989 
0.00472479 0.0100947 0.0399676 0.0140132 0.0106386 0.038333 0.0147925 -0.0139002 0.0432123 
0.00907909 -0.012 0.0433283 -0.0127652 0.0177206 0.0408578 -0.00577047 -0.0133643 0.043168 
-0.0117028 -0.00977028 0.0427173 0.00858753 -0.0201003 0.0422192 0.00694658 0.0207597 0.0392852 
-0.00861768 -0.0187355 0.0433142 
VERTICES 70 140
1 0 
1 1 
1 2 
1 3 
1 4 
1 5 
1 6 
1 7 
1 8 
1 9 
1 10 
1 11 
1 12 
1 13 
1 14 
1 15 
1 16 
1 17 
1 18 
1 19 
1 20 
1 21 
1 22 
1 23 
1 24 
1 25 
1 26 
1 27 
1 28 
1 29 
1 30 
1 31 
1 32 
1 33 
1 34 
1 35 
1 36 
1 37 
1 38 
1 39 
1 40 
1 41 
1 42 
1 43 
1 44 
1 45 
1 46 
1 47 
1 48 
1 49 
1 50 
1 51 
1 52 
1 53 
1 54 
1 55 
1 56 
1 57 
1 58 
1 59 
1 60 
1 61 
1 62 
1 63 
1 64 
1 65 
1 66 
1 67 
1 68 
1 69 

POINT_DATA 70
FIELD FieldData 7
id 1 70 int
436 44 401 801 209 292 2836 1958 903 
602 2857 212 573 732 709 388 290 3257 
2287 535 2180 472 672 1777 2611 3312 3277 
2454 2749 1811 2664 3042 1490 2602 2712 1391 
3323 744 2256 2914 2824 2489 1632 851 3036 
2841 1168 1971 2133 2208 2199 2015 1396 2301 
3144 1177 2149 657 3103 911 2945 3260 924 
1511 2546 1459 1507 952 2676 1401 
type 1 70 int
2 2 2 2 2 2 2 2 2 
2 2 2 2 2 2 2 2 2 
2 2 2 2 2 2 2 2 2 
2 2 2 2 2 2 2 2 2 
2 2 2 2 2 2 2 2 2 
2 2 2 2 2 2 2 2 2 
2 2 2 2 2 2 2 2 2 
2 2 2 2 2 2 2 
i 3 70 int
0 0 0 0 0 0 0 0 0 
0 0 0 0 0 0 0 0 0 
0 0 0 0 0 0 0 0 0 
0 0 0 0 0 0 0 0 0 
0 0 0 0 0 0 0 0 0 
0 0 0 0 0 0 0 0 0 
0 0 0 0 0 0 0 0 0 
0 0 0 0 0 0 0 0 0 
0 0 0 0 0 0 0 0 0 
0 0 0 0 0 0 0 0 0 
0 0 0 0 0 0 0 0 0 
0 0 0 0 0 0 0 0 0 
0 0 0 0 0 0 0 0 0 
0 0 0 0 0 0 0 0 0 
0 0 0 0 0 0 0 0 0 
0 0 0 0 0 0 0 0 0 
0 0 0 0 0 0 0 0 0 
0 0 0 0 0 0 0 0 0 
0 0 0 0 0 0 0 0 0 
0 0 0 0 0 0 0 0 0 
0 0 0 0 0 0 0 0 0 
0 0 0 0 0 0 0 0 0 
0 0 0 0 0 0 0 0 0 
0 0 0 
v 3 70 double
0.038402597666 0.011786992888 -0.18961632266 0.016776079208 0.0040988496194 -0.20673704068 0.023039027532 0.03492484873 -0.19196418969 
0.004894960812 0.012645326727 -0.19397223092 -0.0030829894451 0.0079614375648 -0.18160134582 -0.0098832844592 0.017814600257 -0.19200757522 
0.0095591711786 0.017023331532 -0.19859435243 0.0052967204604 0.010608304489 -0.1928052784 -0.0096684398607 0.0093014760172 -0.19195955982 
-0.0076097940718 0.00096299435103 -0.19460602418 -0.0021288278898 0.0027993305252 -0.19206262591 -0.012467017764 0.0045621919021 -0.23404229848 
0.043504349204 0.028121612046 -0.1936533526 -0.033376466785 0.027035757903 -0.18906795013 0.0065535853252 0.003669580217 -0.20135018235 
0.029261613306 -0.0011628564473 -0.19343501888 0.0023001019834 0.012148671105 -0.18142909842 -0.0078516090017 0.029343491614 -0.17481650557 
-0.027299100958 -0.0086774069481 -0.19214189081 0.00090373697194 -0.0019665642022 -0.19203426849 0.010609121423 -0.0093251319659 -0.20244282338 
-0.11821652154 -0.033302663385 -0.26935329122 -0.012039161581 0.0087642396108 -0.21789181887 0.0055426447761 -0.0089363580341 -0.2434061205 
-0.0037543323775 -0.017294842916 -0.18839616771 -0.031583581642 -0.0057214016966 -0.35824041842 0.11679755385 0.082222220066 -0.087743218385 
-0.1246442481 0.23069095638 -0.52541289329 0.11613653555 0.16012000446 -0.5799302554 0.10402791828 -0.021057276051 -0.36229659217 
0.064171859401 -0.10979258842 -0.31741168079 -0.1902272093 -0.16040799125 -0.30780845943 -0.058542439066 0.049706525752 -0.22704997127 
-0.0044677750503 -0.07159753455 -0.36338331092 -0.33897659832 -0.14269452299 -0.41010115134 0.080800986513 -0.20540661787 -0.29278911959 
0.03767999674 -0.11154500677 -0.31625579057 -0.043912215288 -0.23793731077 -0.2923435779 0.10327275883 0.029104068811 -0.36198093504 
-0.030563760456 -0.081308303638 -0.43861419817 -0.066650859144 0.05497765505 -0.17989854765 0.01018746308 -0.14678633904 -0.36323695585 
-0.036090379735 -0.032383885802 -0.29361320328 -0.03698507746 0.072946260798 -0.282630516 0.034688195683 -0.13046085783 -0.37942096128 
0.10627409801 0.14837383436 -0.29978441606 -0.03662274318 -0.12309216732 -0.56606261023 -0.01863399836 -0.16921123933 -0.23786106369 
-0.094484601612 -0.1332940412 -0.29888995925 -0.12746775911 -0.26282227809 -0.19336124445 -0.0064405370779 -0.20825215701 -0.23196142589 
-0.11119443629 -0.10473565378 -0.40569088729 -0.011146431894 0.12536014426 -0.29367232421 -0.00054929504713 -0.1731443788 -0.34840999066 
0.061429597481 -0.14582699059 -0.28598082105 -0.030702573025 -0.090409394378 -0.28805428434 0.004891252 -0.11614148065 -0.36129843703 
-0.19064108597 -0.2160070807 -0.30353959234 0.0075958162496 -0.089463354761 -0.32795764653 -0.2249135943 -0.092942156685 -0.44755940446 
0.0077591141523 -0.022633961247 -0.20592961792 -0.097871545138 -0.01835144146 -0.30090047165 -0.0019699656951 -0.20776987307 -0.43362438 
-0.18414035342 -0.12694832549 -0.44070587518 0.21822725255 -0.0048504377224 -0.36216586389 -0.057523808305 -0.090240738775 -0.44719986079 
-0.2312912071 -0.14670649513 -0.3664070672 0.19252433764 0.012430238765 -0.35087711766 -0.11271208883 -0.041385139172 -0.35770782138 
0.13006972559 -0.058274302148 -0.37891473303 
f 3 70 double
0 0 -0.00027737121539 0 0 -0.00027737121539 0.00060340081621 -0.00047907001861 0.00064811592558 
-0.0001639809831 -0.00019431430459 -0.00025801637876 -0.00089196983291 0.0011930249953 -5.5827718879e-05 0.00045548760766 -0.0014718928602 0.00042508496798 
0.0019058896348 0.00076587935906 -0.00076971284483 -0.00088540668142 -0.00075562359915 -0.00066867424736 -0.0005156519982 0.00053498173034 0.00037266106081 
-0.0008463103089 0.00046460860725 -0.0011468406762 -0.001553694904 0.00076851071641 -0.00090562948805 -0.00011439607165 -8.3600483156e-06 -0.00010386069294 
0 0 -0.00027737121539 0.0022870962612 0.0010186917906 0.00034814090837 -0.0013857724604 0.00075885964854 -0.00040420625283 
-0.00048779148287 -0.0034412481617 0.0013047388835 -0.00038920986558 -0.0022943400279 6.4547140361e-05 -0.00011909290939 -0.00026892535063 -0.00037785519569 
0 0 -0.00027737121539 0.00049042819118 -0.00066413638414 -0.00034227730677 -0.0076078972225 -0.00080485650588 -0.0075890870342 
0 0 -0.00027737121539 0 0 -0.00027737121539 0.011348932136 0.0094086368541 0.032979667375 
-0.00086684767042 0.0021274665071 0.00030267657913 0 0 -0.00027737121539 0 0 -0.00027737121539 
0 0 -0.00027737121539 0 0 -0.00027737121539 0.16799460415 0.025299739565 0.016909692335 
0 0 -0.00027737121539 0 0 -0.00027737121539 -0.0092975882894 -0.0038352140233 0.0033926061619 
0 0 -0.1081654542 0 0 -0.00027737121539 0 0 -0.00027737121539 
0 0 -0.00027737121539 0 0 -0.00027737121539 0 0 -0.00027737121539 
0 0 -0.00027737121539 0 0 -0.00027737121539 0 0 -0.00027737121539 
0 0 -0.00027737121539 0 0 -0.00027737121539 0 0 -0.00027737121539 
0 0 -0.00027737121539 0 0 -0.00027737121539 0 0 -0.00027737121539 
0 0 -0.00027737121539 0 0 -0.00027737121539 0 0 -0.00027737121539 
0 0 -0.00027737121539 0 0 -0.00027737121539 0 0 -0.00027737121539 
0 0 -0.00027737121539 0 0 -0.00027737121539 0 0 -0.00027737121539 
0 0 -0.00027737121539 0 0 -0.00027737121539 0 0 -0.00027737121539 
0.0015725132856 0.082170826672 0.023746554844 0 0 -0.00027737121539 0 0 -0.00027737121539 
0 0 -0.00027737121539 -0.10356836283 -0.046057424378 -0.013764700701 0 0 -0.00027737121539 
0 0 -0.00027737121539 0 0 -0.00027737121539 -0.0064745144928 0.012652701464 0.1182877403 
0 0 -0.00027737121539 
radius 1 70 double
0.003 0.003 0.003 0.003 0.003 0.003 0.003 0.003 0.003 
0.003 0.003 0.003 0.003 0.003 0.003 0.003 0.003 0.003 
0.003 0.003 0.003 0.003 0.003 0.003 0.003 0.003 0.003 
0.003 0.003 0.003 0.003 0.003 0.003 0.003 0.003 0.003 
0.003 0.003 0.003 0.003 0.003 0.003 0.003 0.003 0.003 
0.003 0.003 0.003 0.003 0.003 0.003 0.003 0.003 0.003 
0.003 0.003 0.003 0.003 0.003 0.003 0.003 0.003 0.003 
0.003 0.003 0.003 0.003 0.003 0.003 0.003 
omega 3 70 double
-2.3908124205 -1.0747789615 1.3312134394 -0.028019799999 4.0287349615 2.8614944193 0.12228611464 -1.1471365374 2.6449928893 
-0.15551716139 0.37249423044 -2.3425790068 0.4336435898 -1.1033039409 0.71332863282 -0.95074660317 1.6313843062 0.38178590271 
-2.4237882637 2.0701134388 1.26668148 -0.75257461707 -3.4121922163 -2.987049692 3.1986900823 -0.65630485661 2.1448287464 
-0.012432906879 1.3552206429 1.5248839108 -3.0458853354 2.1711109904 1.0206301015 4.4834071426 -2.7362532761 -1.5749777261 
-0.81400646216 0.85704049062 0.89796677786 -4.458901684 2.7543764097 2.7981704952 8.2176596375 -3.2288235571 -2.2921711359 
-1.9390923998 0.87837029878 4.7785740943 -0.67679676439 -0.74806072493 0.25249243485 -0.17489585553 -3.1043964123 -0.044725320091 
0.32696471024 0.26381945948 -9.7574668966 3.1545157495 -2.3092633978 1.8070523448 2.8396231094 0.63912794997 -0.30276826277 
4.3731413539 -35.351074938 -10.937521482 -8.7318477486 -8.5081652178 4.0599238607 -7.0820036628 12.516137923 -9.4076751091 
-5.2094730246 -10.649081074 -3.3078241888 2.4062351204 28.663755157 -8.0828226865 13.929316358 -10.700739179 30.143062358 
-48.877973664 38.1440228 70.424271193 -0.4517690959 -38.932173433 -9.0049981982 -20.524782805 36.29936046 -6.6567633369 
21.226213442 -0.65739726147 8.4475499137 40.12198951 -31.515212532 -26.125367061 7.8566252987 -11.152973797 -30.37886277 
-16.196668032 -0.96921364705 -62.522248664 14.671942575 -69.013499161 4.81995557 -61.80574736 -18.660132916 46.007739375 
30.129444508 -50.943685735 31.492855589 -5.3638923118 -12.339453521 23.351652279 -20.591736271 10.456364271 16.069736546 
23.840936597 10.750213811 -24.833961327 7.1748169577 -22.936432253 -27.557633653 12.469562752 17.518989087 -34.503402292 
-0.32743976932 27.7603194 36.561646535 -20.496307857 -9.5606615355 2.3279167968 17.453151552 -1.7916878606 -12.720099711 
-22.448279552 17.617748882 -36.554863476 -6.0222325599 4.8231407762 59.67337915 6.4477711232 34.101066453 -25.103611916 
14.427498455 -40.153669874 -10.876314067 -18.912381623 -20.188908233 27.200447036 62.069590585 11.504788316 -20.19144737 
-17.415727947 10.693392697 1.5846808093 -26.492294571 20.283298487 17.03145709 -19.533649586 31.66461844 -0.50280398247 
23.353793428 6.5407017767 11.997548329 10.766724071 -27.980714946 25.47320275 36.636115934 54.201643176 -22.395931639 
21.419604434 -43.258293815 -14.603648681 -26.670349482 10.569462094 -0.67152044135 34.129891646 -28.571056922 9.4496068105 
49.158568116 -5.0005368436 21.381575825 14.161747153 -6.6046464974 7.1432989531 8.6244077408 -12.391749662 -5.5070459899 
3.6481757274 12.658627601 -12.4897409 17.127658517 -12.166823357 -4.0023775412 -1.5311516237 -22.756862037 21.392958467 
-27.686002543 -25.321497218 23.663142578 8.1781058108 -13.399768049 37.43883935 19.849571568 -35.033024228 24.00293076 
28.596156702 1.3642031048 25.429081747 
