# vtk DataFile Version 4.2
Generated by LIGGGHTS
ASCII
DATASET POLYDATA
POINTS 70 float
0.0160362 -0.0388135 0.0233085 -0.011755 -0.022969 0.0308775 -0.00917075 -0.0108032 0.0295427 
0.000732135 -0.0118949 0.0306525 0.0274402 -0.0113162 0.027636 0.0348611 -0.0161448 0.0322982 
0.0230034 -0.00322161 0.0315791 -0.0344378 0.00542085 0.0277499 -0.00894919 0.00203178 0.0336718 
0.0418794 0.00149221 0.0308305 -0.0348314 0.0151807 0.0255687 -0.00483987 0.0140192 0.0322765 
9.7423e-05 0.0346708 0.0293499 0.00855658 0.0411217 0.0270021 -0.0244461 -0.0204008 0.0417571 
-0.0301957 -0.00150321 0.0359311 -0.00618829 -0.00219175 0.0424749 -0.031332 0.00841303 0.0368679 
-0.0183312 0.00467989 0.0359277 0.015078 0.0173518 0.0424071 -0.00335369 0.0276248 0.0418274 
0.0188461 0.0260654 0.0377799 -0.00868758 -0.0410939 0.0465702 0.0048978 -0.0416379 0.0464957 
0.00158082 -0.0333804 0.0512645 -0.0315633 -0.0144203 0.0462535 -0.0124551 -0.0196532 0.0486413 
0.0292365 -0.00296195 0.0462874 0.00896258 0.0333935 0.0500043 0.0284905 0.0307178 0.0482633 
0.00528737 0.0245686 0.0556676 0.00998336 -0.039135 0.0745202 -0.0247341 -0.0222525 0.0751512 
-0.00650048 -0.0256648 0.0702019 0.0124605 -0.00678476 0.0708563 0.028307 -0.00799544 0.0711361 
0.000532155 0.00915262 0.0726608 0.0170565 0.00486217 0.0668512 0.0381466 0.00618437 0.0734268 
-0.00501369 0.0171284 0.0701294 0.00122976 0.0287597 0.0722922 -0.00605571 0.037169 0.0720612 
-0.00580249 -0.0345936 0.0800409 0.0196635 -0.0347022 0.0811975 -0.0149978 -0.0269717 0.0762413 
0.0126262 -0.0203885 0.077939 0.0304043 -0.0275572 0.0836041 -0.0372046 -0.0120902 0.0820768 
-0.0120923 -0.0142139 0.0788972 0.0223961 -0.0188892 0.0815248 0.0313194 -0.0148965 0.0788645 
-0.0204063 -0.00512785 0.0825648 0.0282959 -0.00305559 0.0824714 0.038936 -0.00403803 0.0822798 
-0.0401895 0.00631686 0.0811137 -0.0216705 0.00641655 0.0791109 0.00905799 0.00743335 0.0781554 
0.019499 0.00283683 0.0794985 -0.018627 0.0182922 0.0811849 -0.0102808 0.0112657 0.078483 
0.0171361 0.0132164 0.0811691 0.027435 0.0111079 0.0773522 0.0378423 0.0180032 0.0799692 
-0.0150993 0.0284716 0.0825049 0.00287591 -0.0413064 0.0907207 -0.0213469 -0.0263565 0.0865006 
0.00293764 -0.0204213 0.0873932 0.0302886 -0.0116422 0.0929928 -0.0255845 0.0124409 0.0909964 
0.00869733 0.0298198 0.0872697 
VERTICES 70 140
1 0 
1 1 
1 2 
1 3 
1 4 
1 5 
1 6 
1 7 
1 8 
1 9 
1 10 
1 11 
1 12 
1 13 
1 14 
1 15 
1 16 
1 17 
1 18 
1 19 
1 20 
1 21 
1 22 
1 23 
1 24 
1 25 
1 26 
1 27 
1 28 
1 29 
1 30 
1 31 
1 32 
1 33 
1 34 
1 35 
1 36 
1 37 
1 38 
1 39 
1 40 
1 41 
1 42 
1 43 
1 44 
1 45 
1 46 
1 47 
1 48 
1 49 
1 50 
1 51 
1 52 
1 53 
1 54 
1 55 
1 56 
1 57 
1 58 
1 59 
1 60 
1 61 
1 62 
1 63 
1 64 
1 65 
1 66 
1 67 
1 68 
1 69 

POINT_DATA 70
FIELD FieldData 7
id 1 70 int
44 732 385 912 837 398 663 467 1371 
720 208 936 1157 595 1606 1986 2166 895 
1438 1929 1751 1782 2710 2509 1464 2873 2267 
2790 3209 2149 2117 3841 2640 5420 4052 4610 
3364 4989 2252 3057 3909 4708 5509 4179 3265 
3857 5103 3102 3932 3206 3724 4181 3475 2566 
5402 3510 4280 5353 2454 2782 5050 5397 3228 
4796 4006 3770 2996 4482 5377 4362 
type 1 70 int
2 2 2 2 2 2 2 2 2 
2 2 2 2 2 2 2 2 2 
2 2 2 2 2 2 2 2 2 
2 2 2 2 2 2 2 2 2 
2 2 2 2 2 2 2 2 2 
2 2 2 2 2 2 2 2 2 
2 2 2 2 2 2 2 2 2 
2 2 2 2 2 2 2 
i 3 70 int
0 0 0 0 0 0 0 0 0 
0 0 0 0 0 0 0 0 0 
0 0 0 0 0 0 0 0 0 
0 0 0 0 0 0 0 0 0 
0 0 0 0 0 0 0 0 0 
0 0 0 0 0 0 0 0 0 
0 0 0 0 0 0 0 0 0 
0 0 0 0 0 0 0 0 0 
0 0 0 0 0 0 0 0 0 
0 0 0 0 0 0 0 0 0 
0 0 0 0 0 0 0 0 0 
0 0 0 0 0 0 0 0 0 
0 0 0 0 0 0 0 0 0 
0 0 0 0 0 0 0 0 0 
0 0 0 0 0 0 0 0 0 
0 0 0 0 0 0 0 0 0 
0 0 0 0 0 0 0 0 0 
0 0 0 0 0 0 0 0 0 
0 0 0 0 0 0 0 0 0 
0 0 0 0 0 0 0 0 0 
0 0 0 0 0 0 0 0 0 
0 0 0 0 0 0 0 0 0 
0 0 0 0 0 0 0 0 0 
0 0 0 
v 3 70 double
0.0013569000857 -0.00019016075514 -0.20240899901 0.0027475307082 -0.0031805302718 -0.20050693225 0.0044118955826 -0.0032078391904 -0.20152006729 
0.011669585577 -0.003418719899 -0.20875931856 0.0014536408474 0.0011052057769 -0.19769631265 -0.0013778225415 -0.00085570451842 -0.19449379861 
0.00022371036455 0.00057703102709 -0.19763297321 0.0013456556302 4.3210685524e-05 -0.20421967346 -0.00057234563501 0.0018704034749 -0.20280754441 
-0.00099933818793 -0.00020558879011 -0.19463381609 0.00093221925299 0.0011102765424 -0.20137818065 -0.00033171989474 -0.00016219968483 -0.19974828161 
-0.00056102025915 -0.00024870524411 -0.2020308299 -0.0035277741434 -0.00063816875105 -0.20102026704 -0.0083584590667 0.006973400371 -0.20234591767 
0.0024307600576 0.0091807429386 -0.20279735098 -0.0089375210143 -0.0086337235217 -0.21376277165 0.0026140491296 0.010158456616 -0.2103000868 
0.0049245482288 0.0027859550292 -0.20970090737 -0.0042961305786 0.013288694851 -0.19398000906 -0.0048006517223 0.00046331366583 -0.1916624364 
-0.0081066545919 -0.00011556300671 -0.19822368305 0.0087497557726 -0.0015833835478 -0.19566238843 0.0065912567327 0.004921741629 -0.20001635608 
-0.01433166265 -0.0040129585195 -0.178713132 -0.015255170744 0.0018114458976 -0.18762417026 -0.00012520827359 0.0075549838994 -0.16172622342 
0.00085484956581 -0.0087074030874 -0.18891319386 0.0086811411787 -0.021636687495 -0.19787747663 0.0050419658755 0.030305167873 -0.15462768723 
0.017025878381 0.030804607433 -0.19353695557 -0.17931332522 0.13231761459 0.019601680157 0.0081743441285 0.033653972987 -0.0039798249827 
-0.15507601055 -0.16689579243 -0.028275476711 -0.046831821646 0.025620439762 -0.1448120999 0.11911335797 0.010762984711 -0.0073308731674 
-0.081616059747 0.034655941565 -0.080579103988 0.001002775697 0.013171387854 -0.090413704004 0.12789367021 0.088483398042 0.018438823663 
0.031359769522 -0.051194622341 0.064951693104 -0.007803015923 -0.057548662038 0.022505822739 0.091082718081 -0.10635327582 -0.0077308443154 
-0.21115022036 -0.18073301837 -0.023067098161 -0.22871441107 0.053211622988 0.032347723437 -0.15866330229 -0.04630563885 0.033681142933 
0.03249982862 -0.0064206027445 0.17589065263 -0.082158336467 0.098026210745 -0.078513279404 0.36298473681 -0.19324285156 -0.11294480452 
0.071087047909 0.162007804 0.15114832778 -0.085854438559 0.10816356931 0.10880251454 0.10971900551 -0.079216017007 -0.087129236268 
0.062270671861 -0.23842479083 0.17055602475 0.081667861154 0.070914692779 0.1469088243 -0.041553883453 0.20334990494 0.19818216863 
0.1791912816 -0.32717703312 0.075017853222 0.020086535118 0.063380356729 -0.057118581842 0.018132311343 0.055662068484 0.033750047071 
0.043466023889 -0.0037267986631 0.081491570404 0.055126429547 0.059371145561 0.17589652166 -0.036553022039 0.095455404342 0.085242030237 
0.035109051762 -0.28210354854 -0.14466954257 0.039211893818 0.040868556598 0.094187634081 0.27911786117 -0.054246708172 0.26837083672 
0.079287845451 -0.001021331118 0.21276036977 0.16866265706 -0.012445092527 0.25650815999 -0.34153877074 -0.16337502935 0.14204594152 
0.10989493231 0.10101071306 0.19575749848 -0.11669916734 0.15846211491 0.17955699611 0.086520036911 0.038738304225 0.26410611906 
0.21020982043 -0.36375689225 0.221794849 
f 3 70 double
0 0 -0.0012841259972 0 0 -0.0012841259972 0 0 -0.0012841259972 
0.00033957591371 -0.0031208300275 0.0067602695478 -0.0007151248362 -0.00029117612774 -0.00049827773156 0 0 -0.0012841259972 
0 0 -0.0012841259972 0 0 -0.0012841259972 0 0 -0.0012841259972 
0 0 -0.0012841259972 0 0 -0.0012841259972 0 0 -0.0012841259972 
0 0 -0.0012841259972 0 0 -0.0012841259972 0 0 -0.0012841259972 
0 0 -0.0012841259972 0 0 -0.0012841259972 0 0 -0.0012841259972 
0 0 -0.0012841259972 -0.011154955519 -0.014377916132 -0.0040060624396 0 0 -0.0012841259972 
0 0 -0.0012841259972 0 0 -0.0012841259972 0 0 -0.0012841259972 
0 0 -0.0012841259972 0 0 -0.0012841259972 0.0011118915354 -0.0012532189164 -0.0019075798259 
0 0 -0.0012841259972 0 0 -0.0012841259972 0 0 -0.0012841259972 
-0.0025832225922 -0.0014665925138 0.006208323028 0 0 -0.0012841259972 0 0 -0.0012841259972 
0 0 -0.0012841259972 0 0 -0.0012841259972 0 0 -0.0012841259972 
0 0 -0.0012841259972 0 0 -0.0012841259972 0 0 -0.0012841259972 
0 0 -0.0012841259972 0 0 -0.0012841259972 0 0 -0.0012841259972 
0 0 -0.0012841259972 0 0 -0.0012841259972 0 0 -0.0012841259972 
0 0 -0.0012841259972 0 0 -0.0012841259972 0 0 -0.0012841259972 
0 0 -0.0012841259972 0 0 -0.0012841259972 0 0 -0.0012841259972 
0 0 -0.0012841259972 0 0 -0.0012841259972 0 0 -0.0012841259972 
0 0 -0.0012841259972 0 0 -0.0012841259972 0 0 -0.0012841259972 
0 0 -0.0012841259972 0 0 -0.0012841259972 0 0 -0.0012841259972 
0 0 -0.0012841259972 0 0 -0.0012841259972 0 0 -0.0012841259972 
0 0 -0.0012841259972 0 0 -0.0012841259972 0 0 -0.0012841259972 
0 0 -0.0012841259972 0 0 -0.0012841259972 0 0 -0.0012841259972 
0 0 -0.0012841259972 
radius 1 70 double
0.005 0.005 0.005 0.005 0.005 0.005 0.005 0.005 0.005 
0.005 0.005 0.005 0.005 0.005 0.005 0.005 0.005 0.005 
0.005 0.005 0.005 0.005 0.005 0.005 0.005 0.005 0.005 
0.005 0.005 0.005 0.005 0.005 0.005 0.005 0.005 0.005 
0.005 0.005 0.005 0.005 0.005 0.005 0.005 0.005 0.005 
0.005 0.005 0.005 0.005 0.005 0.005 0.005 0.005 0.005 
0.005 0.005 0.005 0.005 0.005 0.005 0.005 0.005 0.005 
0.005 0.005 0.005 0.005 0.005 0.005 0.005 
omega 3 70 double
0.45302394568 -0.90169053656 0.086348204719 -0.1394658624 -0.024035681402 0.28359874861 -0.085398520793 0.15076053435 -0.13564476451 
0.83426203691 1.4528895935 0.33426848272 0.1248186785 -0.19765409989 0.52844570052 0.69163828083 -0.50440168915 0.22764512986 
0.019123016385 -0.40051320795 -0.0039699243278 0.94677475112 1.0553008211 0.016476262934 0.578094216 1.9829832096 1.3245632565 
0.19834631078 -0.21481895534 0.27479120061 0.054633377585 0.15814834365 0.32435129503 0.49310802095 -0.27689214076 0.020942919028 
-0.010716826298 0.44533069439 0.34532728187 0.35320495111 0.28481515725 0.22973181623 2.1642551584 -1.4969551093 -1.4687795956 
0.048410208359 -0.43287484988 -0.82409126189 1.3264651118 1.4356869419 -2.5806961937 0.83947295308 -0.58262615809 0.95489266661 
-0.26293778241 0.32757475551 0.057079985259 -2.6584395657 -0.78385619031 0.46763570487 0.36976331399 -0.24882818456 -1.0079933203 
-0.61712887615 -1.221769807 -0.0081380753257 0.73226393446 -0.54485558715 -1.2376382008 1.9939872641 1.321688592 1.0946689779 
4.0934072617 0.0429051394 1.0034213616 -0.020441555308 -0.0065008894579 -4.2746640085 -0.51503301197 -2.6627494109 -1.5237439218 
-1.4316263047 0.46115597305 1.1414775529 1.3502738979 -1.3605407028 1.8477922704 -4.8589077658 -3.2102475675 4.1435645782 
-11.527572999 2.950232706 3.398270892 31.911544511 -27.619294486 -30.043810996 4.6044660117 23.911625417 -20.268467454 
12.35259475 38.372665884 -15.051273288 -26.194628834 10.569604836 15.489969184 -10.453218594 20.67478069 2.4647830434 
-9.5398044087 -15.38616644 27.526712223 -7.6514917627 -3.9787582152 10.317353526 5.0573828968 -9.0930938603 -14.572364697 
-2.1860292751 3.5582429375 10.541498449 -5.4583859089 19.872200696 -5.3935596227 5.0408686904 -6.1806829498 19.082877014 
-11.47553286 -10.839650204 5.7284283433 -15.398435183 20.770568165 -9.4588661987 -12.399339408 20.459681136 5.7985040276 
-2.2249511096 17.266025204 -23.538321392 -11.48559057 11.936478834 9.6508289314 28.164256631 -3.5304434837 -8.3487084823 
11.120208894 2.3141599501 -2.601728395 -13.304114291 5.077024237 -14.306109382 -1.5993259391 21.706943765 -36.301093607 
-3.6110922791 -27.307501209 13.256808739 21.773522086 37.924923357 0.14722904458 17.60579703 -8.0409083169 -14.284109847 
17.465364055 -7.413478374 -9.2469446535 -71.881895668 -10.933812213 24.356260775 3.0477905177 -2.73017166 1.8370378309 
33.411158639 14.958038116 14.183234388 -7.8262994938 0.78517689199 -13.054925663 -32.648658387 -5.3199602485 9.5560674816 
34.871122036 -1.0403060293 -21.227216537 -67.260212395 -8.8941829519 6.1474772055 -4.1775116975 -21.601916726 18.458797756 
5.9484715997 -54.273228096 9.8415204733 10.61208159 11.856896037 26.814179722 14.532418816 29.415507278 6.0224081679 
19.47273354 20.246179696 -45.813781881 -26.308002449 -19.727314457 51.052242187 -22.162222524 39.455319704 -15.36956563 
-29.374870282 26.442694166 13.459633807 
