# vtk DataFile Version 4.2
Generated by LIGGGHTS
ASCII
DATASET POLYDATA
POINTS 70 float
0.0218875 -0.0334133 0.0445479 0.00784068 -0.0265274 0.0415212 0.0242179 -0.0154671 0.0431234 
-0.0380916 -0.00388165 0.0448863 0.034003 -0.00127401 0.0442106 -0.0261174 0.0182848 0.0425647 
0.0312183 0.0164213 0.0384017 0.0117599 0.025036 0.0434228 0.0307872 0.0278067 0.0425678 
-0.009099 0.0328077 0.0431068 -0.00937816 -0.0403217 0.052686 -0.00160034 -0.0290925 0.0462814 
0.0114298 -0.0399529 0.0459611 -0.0322864 -0.0256924 0.0512661 -0.0223798 -0.0295025 0.0537631 
-0.0105486 -0.027587 0.053423 -0.00380022 -0.0199305 0.0503489 -0.0189521 -0.0186339 0.0521567 
0.00586026 -0.0160154 0.0452499 0.0259905 -0.0174489 0.0536113 0.0366882 -0.0177991 0.0555776 
-0.0033165 -0.00633665 0.0541977 0.0119879 -0.0061142 0.0495582 0.0251539 -0.00493548 0.0544371 
0.0413147 -0.00152138 0.0528964 -0.035528 0.00533403 0.0494119 -0.0226221 0.000964002 0.0499841 
-0.00798275 0.00278009 0.0523032 0.033235 0.00704115 0.0522604 -0.0346667 0.018547 0.0519393 
-0.0228568 0.0111481 0.0507147 -0.00750292 0.0145068 0.0553443 0.00441282 0.0143482 0.0523699 
0.0212169 0.0154579 0.0505526 0.0300916 0.0171042 0.0551462 -0.0296986 0.0274788 0.0454599 
-0.0232415 0.0218984 0.0533663 -0.0129209 0.0277482 0.0528823 0.00222939 0.024118 0.0487813 
0.023785 0.0251916 0.0517003 -0.0115833 0.0389878 0.0536976 0.00821953 0.0327074 0.0489691 
0.00445192 0.0414182 0.0452769 -0.0030852 -0.0383739 0.0616238 0.0114128 -0.0318735 0.0564572 
0.0262048 -0.0322803 0.0607207 0.0119559 -0.0249477 0.0654267 -0.0253625 -0.00974948 0.0574446 
-0.00368154 -0.0147519 0.0658104 0.00618211 -0.0186749 0.0566932 -0.0391082 -0.00860903 0.0617574 
-0.0320363 -0.00220719 0.0554777 -0.0134863 -0.00898813 0.0571525 -0.0151069 0.000140754 0.0625252 
0.0172954 -0.003501 0.0604835 0.0355481 -0.00579146 0.0605267 -0.0322262 0.0071977 0.058966 
0.00843128 0.00305637 0.0615999 0.0238371 0.00583878 0.058035 0.0325649 0.00878949 0.0621052 
-0.0191915 0.0100187 0.0626065 -0.0306653 0.0271064 0.0607688 -0.0190903 0.0219861 0.0645127 
0.00767187 0.0247006 0.0579923 -0.0203488 0.0361614 0.059165 -0.00147597 0.0323509 0.0576518 
0.0180184 0.0338677 0.0606508 0.00740281 0.0409174 0.0668636 0.00918824 -0.0403641 0.0642942 
0.0190496 -0.0316022 0.0707374 
VERTICES 70 140
1 0 
1 1 
1 2 
1 3 
1 4 
1 5 
1 6 
1 7 
1 8 
1 9 
1 10 
1 11 
1 12 
1 13 
1 14 
1 15 
1 16 
1 17 
1 18 
1 19 
1 20 
1 21 
1 22 
1 23 
1 24 
1 25 
1 26 
1 27 
1 28 
1 29 
1 30 
1 31 
1 32 
1 33 
1 34 
1 35 
1 36 
1 37 
1 38 
1 39 
1 40 
1 41 
1 42 
1 43 
1 44 
1 45 
1 46 
1 47 
1 48 
1 49 
1 50 
1 51 
1 52 
1 53 
1 54 
1 55 
1 56 
1 57 
1 58 
1 59 
1 60 
1 61 
1 62 
1 63 
1 64 
1 65 
1 66 
1 67 
1 68 
1 69 

POINT_DATA 70
FIELD FieldData 7
id 1 70 int
281 286 851 1100 1489 1335 1176 2075 1605 
318 148 1606 982 810 1983 1562 1068 801 
546 535 1435 657 1010 1450 858 1240 821 
1148 1515 2101 1685 1038 82 1286 1350 1258 
1962 1192 1780 599 1064 2083 2126 364 1936 
153 1231 1646 722 936 1857 2095 962 2092 
1510 22 447 1721 1230 522 224 668 348 
355 183 1822 1478 739 257 1546 
type 1 70 int
2 2 2 2 2 2 2 2 2 
2 2 2 2 2 2 2 2 2 
2 2 2 2 2 2 2 2 2 
2 2 2 2 2 2 2 2 2 
2 2 2 2 2 2 2 2 2 
2 2 2 2 2 2 2 2 2 
2 2 2 2 2 2 2 2 2 
2 2 2 2 2 2 2 
i 3 70 int
0 0 0 0 0 0 0 0 0 
0 0 0 0 0 0 0 0 0 
0 0 0 0 0 0 0 0 0 
0 0 0 0 0 0 0 0 0 
0 0 0 0 0 0 0 0 0 
0 0 0 0 0 0 0 0 0 
0 0 0 0 0 0 0 0 0 
0 0 0 0 0 0 0 0 0 
0 0 0 0 0 0 0 0 0 
0 0 0 0 0 0 0 0 0 
0 0 0 0 0 0 0 0 0 
0 0 0 0 0 0 0 0 0 
0 0 0 0 0 0 0 0 0 
0 0 0 0 0 0 0 0 0 
0 0 0 0 0 0 0 0 0 
0 0 0 0 0 0 0 0 0 
0 0 0 0 0 0 0 0 0 
0 0 0 0 0 0 0 0 0 
0 0 0 0 0 0 0 0 0 
0 0 0 0 0 0 0 0 0 
0 0 0 0 0 0 0 0 0 
0 0 0 0 0 0 0 0 0 
0 0 0 0 0 0 0 0 0 
0 0 0 
v 3 70 double
0.1450408067 -0.056061523947 -6.1279109046e-05 0.024376377451 0.07513176434 -0.046834492788 0.021037691057 -0.10620011788 -0.12801146458 
-0.10522984571 0.02504261307 0.01208824547 -0.01629384439 0.049610147917 -0.014638921454 0.055527494208 -0.02102057254 -0.06698468777 
-0.12489990225 -0.19381351558 -0.24194159565 -0.12743224457 -0.029462257759 -0.0049770897031 0.079226436614 0.03533668153 -0.13943630387 
-0.14029522656 -0.088607054575 -0.02342758187 -0.039662977617 0.011934709149 0.15116967814 0.17940386414 0.17895372774 -0.063409026291 
-0.051022328556 -0.027244557662 -0.18115515905 -0.024908623517 -0.16433123822 0.094216177878 -0.011427694809 0.0011261835172 0.10652080171 
0.19866873518 -0.095496942159 0.072541676265 0.020243194589 0.04303294211 0.11340796818 0.034338809205 0.038266660343 -0.0057976747503 
0.064809558959 0.099832846718 -0.073423651859 0.12511418057 0.037326691556 -0.023476252809 0.16904376646 0.19755238481 0.11313177482 
0.088326471931 -0.023156675352 0.092312058034 0.10429971076 0.19730564546 -0.042075535873 0.00027719854258 0.11016610185 -0.0029460939054 
0.12538860756 -0.041850754214 -0.044760947431 -0.019385048694 0.29028431839 -0.04137554507 -0.013306937379 0.082239958264 0.11453152225 
0.048570792382 0.067427476051 0.073420162694 0.075765809924 0.012432399978 0.055822880874 0.059074544317 -0.1808464621 0.050572799661 
-0.096088704358 -0.031244748553 0.071969799488 0.039946254144 -0.033534464744 0.13434049971 -0.049029876953 0.003757080034 0.017656009677 
-0.10458710224 0.018362041959 -0.018170289494 0.0048476937174 0.10666534683 0.053442917483 -0.073502720624 -0.031617595482 0.013650311203 
0.086501768519 0.14242384196 -0.023918890494 -0.095513126043 -0.085116443843 -0.022474404117 -0.063271602904 -0.12503426348 0.05553700172 
-0.034513204153 -0.31687622562 -0.18629554674 0.17612981755 0.25411160789 0.12774042528 0.0095263730431 -0.013879368097 -0.07587079679 
-0.055243732245 -0.058895677637 -0.09727056301 -0.17489248083 0.43741635741 0.031580980793 -0.066218005341 0.043043540101 -0.032247046853 
0.001295221228 0.093271056771 0.26720101585 0.059255127188 0.02632970678 0.078077003537 0.022316865363 0.034164903437 0.14484737914 
0.14789047459 0.084776364767 0.27352515643 -0.14333685329 -0.026267556205 0.074970051653 0.091039480714 -0.03121202804 0.22920657312 
-0.084363312779 -0.035181807309 0.12631084347 0.099624837422 0.075239191628 0.089081859883 0.017914944002 0.052256422016 0.19526144866 
0.11947700669 0.049139264073 0.078462489381 0.078995430925 -0.12078313273 -0.063260165348 0.092500420294 -0.12589457671 0.041114864218 
0.0051159624312 -0.060553080289 0.33802429978 0.030009441368 0.18978524655 0.14908752807 0.02659153097 0.01824800367 0.13456744762 
0.04759593686 -0.12464038039 0.01071975998 0.0037100731692 0.19757513006 -0.048344750993 0.17687579874 -0.026763967105 0.09332192351 
0.046635629426 0.098985011221 0.1243458641 0.29337547483 0.21691751852 0.069904608844 -0.12449886796 0.040604784332 0.064959363617 
0.074871456312 -0.16777976976 0.1147179852 0.62034778575 -0.15585671185 0.17087281433 -0.032370983823 -0.29435995692 -0.28844422954 
-0.15286480342 -0.028531003656 0.065634463522 
f 3 70 double
0 0 -0.0012841259972 0 0 -0.0012841259972 0 0 -0.0012841259972 
0 0 -0.0012841259972 0 0 -0.0012841259972 0 0 -0.0012841259972 
0 0 -0.0012841259972 0 0 -0.0012841259972 0 0 -0.0012841259972 
0 0 -0.0012841259972 0 0 -0.0012841259972 0 0 -0.0012841259972 
0 0 -0.0012841259972 0 0 -0.0012841259972 0 0 -0.0012841259972 
0 0 -0.0012841259972 0 0 -0.0012841259972 0 0 -0.0012841259972 
0 0 -0.0012841259972 0 0 -0.0012841259972 0 0 -0.0012841259972 
0 0 -0.0012841259972 0 0 -0.0012841259972 0 0 -0.0012841259972 
0 0 -0.0012841259972 0 0 -0.0012841259972 0 0 -0.0012841259972 
0 0 -0.0012841259972 0 0 -0.0012841259972 0 0 -0.0012841259972 
0 0 -0.0012841259972 0 0 -0.0012841259972 0 0 -0.0012841259972 
0 0 -0.0012841259972 0 0 -0.0012841259972 0 0 -0.0012841259972 
0 0 -0.0012841259972 0 0 -0.0012841259972 0 0 -0.0012841259972 
0 0 -0.0012841259972 0 0 -0.0012841259972 0 0 -0.0012841259972 
0 0 -0.0012841259972 0 0 -0.0012841259972 0 0 -0.0012841259972 
0 0 -0.0012841259972 0 0 -0.0012841259972 0 0 -0.0012841259972 
0 0 -0.0012841259972 0 0 -0.0012841259972 0 0 -0.0012841259972 
0 0 -0.0012841259972 0 0 -0.0012841259972 0 0 -0.0012841259972 
0 0 -0.0012841259972 0 0 -0.0012841259972 0 0 -0.0012841259972 
0 0 -0.0012841259972 0 0 -0.0012841259972 0 0 -0.0012841259972 
0 0 -0.0012841259972 0 0 -0.0012841259972 0 0 -0.0012841259972 
0 0 -0.0012841259972 0 0 -0.0012841259972 0 0 -0.0012841259972 
0 0 -0.0012841259972 0 0 -0.0012841259972 0 0 -0.0012841259972 
0 0 -0.0012841259972 
radius 1 70 double
0.005 0.005 0.005 0.005 0.005 0.005 0.005 0.005 0.005 
0.005 0.005 0.005 0.005 0.005 0.005 0.005 0.005 0.005 
0.005 0.005 0.005 0.005 0.005 0.005 0.005 0.005 0.005 
0.005 0.005 0.005 0.005 0.005 0.005 0.005 0.005 0.005 
0.005 0.005 0.005 0.005 0.005 0.005 0.005 0.005 0.005 
0.005 0.005 0.005 0.005 0.005 0.005 0.005 0.005 0.005 
0.005 0.005 0.005 0.005 0.005 0.005 0.005 0.005 0.005 
0.005 0.005 0.005 0.005 0.005 0.005 0.005 
omega 3 70 double
-0.18039144321 -14.326335366 -13.898248161 19.632239908 13.877557979 7.6008548449 0.95752068467 30.727024755 5.345309829 
12.461786329 19.145708356 -9.3398109231 -5.2860515251 -1.5614558361 -10.166348082 -12.392069545 20.198478141 -5.8296073595 
22.653428329 -12.948338338 7.7430504865 -18.244238278 4.9511086988 3.5062029034 19.795288584 26.887921815 5.3955837246 
24.397167228 -11.916656628 37.119156616 -17.799114489 -13.851565075 16.301726423 4.8371702936 11.09071963 39.789551167 
-7.1574102914 0.37110082792 -4.5315199584 8.5809697438 -30.577020063 -9.3608683865 3.7443434488 -13.261757118 -3.8395440704 
-6.858333091 -0.7108984523 45.248903698 -43.691510187 11.752050586 16.702177507 -28.571908756 3.7665095138 2.9530984623 
3.5205627957 13.812191697 -8.9730029445 -19.457536008 7.2181363578 1.4121580172 7.6351865568 -17.497209555 24.926422832 
-8.8057274385 -8.155183303 -15.923067291 20.512334823 19.04647482 1.1650005406 7.0728560448 -3.56973737 3.712351878 
-9.6373422322 -27.968731293 -24.220957497 10.537226634 18.369740933 -24.510452912 -8.0233913904 -14.924293462 -0.90969834291 
19.951280436 0.13915177574 2.4537223766 3.951424107 9.8707347968 -11.060070951 -7.2991047704 -2.0548349315 10.196868592 
-3.5494762456 -13.763938052 -2.2495204777 -8.8534722756 -11.694879318 2.1879599197 -10.320768294 19.550995158 15.3266936 
-10.145001994 -1.6758280335 -15.109790309 -6.769458129 16.031681902 14.994802671 6.5873902711 -6.5214052834 17.658974636 
-11.911746539 -10.197137088 -19.792207633 -13.198151092 -0.010704821151 -7.8260780771 -5.86801601 19.190723262 13.109243192 
17.390209378 8.9733275422 14.154270942 46.780075302 18.634705852 -28.668102174 -13.463216416 21.822440021 -1.423000806 
-3.7308987152 14.730934686 -15.849706127 13.235225567 30.414521616 7.5926991065 8.9348167744 -3.1082670697 5.5601600695 
23.054096087 9.3130286221 24.912273876 11.082542736 15.649927967 31.626267386 -60.708752352 -30.849515386 -3.9814037487 
-29.455629963 -11.735800084 11.648731841 -4.4518316105 -24.622889132 -2.9436498565 -4.2682546582 15.328273238 6.6820535099 
18.976492248 -39.155597299 5.8813364467 -10.035793969 -19.846382378 -22.47789018 -1.1897849224 -13.625002479 -2.2873513026 
-16.476534299 41.637526786 13.168186025 11.673185684 -74.757785723 31.875077691 -20.50908342 8.916827151 -1.905789026 
-40.525282921 7.776227679 -1.2917740291 -20.767409193 1.8405499664 -20.758913344 -12.599055156 -19.869626086 18.485400518 
-24.686991314 -13.261804153 24.197514057 -19.224310605 12.984845041 -28.243800336 24.044304764 -0.61425113281 -30.90695494 
-0.40900967824 -0.31816842726 -8.7501899996 -33.903557556 46.924676099 -14.729769515 6.6340994476 9.441151344 -29.734785434 
33.698462461 86.364780755 3.702937232 -0.71560929705 10.03762423 -1.8316048131 53.184960554 -1.5527795577 -3.997685481 
17.874684192 2.5984632212 4.7489368172 
