# vtk DataFile Version 4.2
Generated by LIGGGHTS
ASCII
DATASET POLYDATA
POINTS 70 float
0.0162542 -0.0387249 0.0177034 0.0273299 -0.0114314 0.0218076 -0.0345709 0.00533498 0.0219338 
-0.0349107 0.0150523 0.0195814 0.00889173 0.0410561 0.0211239 -0.0116223 -0.0230965 0.0249963 
-0.0092432 -0.0106482 0.0237238 0.000661087 -0.0115615 0.0249307 0.0349529 -0.0161726 0.0264393 
-0.0302306 -0.00154022 0.0302306 0.0229498 -0.00330105 0.0259125 -0.0314896 0.00834846 0.0310929 
-0.018366 0.00475969 0.0299256 -0.00889768 0.002336 0.0277349 0.041957 0.0013514 0.0253408 
-0.00478366 0.0140654 0.0266173 0.0190688 0.0255688 0.0318889 4.4258e-06 0.0346666 0.0234973 
-0.00640385 -0.0411617 0.0409653 0.00585856 -0.0415674 0.0411291 -0.024241 -0.0206357 0.0357044 
-0.0310849 -0.0144776 0.0400494 -0.012116 -0.019508 0.0423701 -0.0067014 -0.00198184 0.0366245 
0.0297728 -0.00339181 0.040722 0.0156382 0.017428 0.0367258 -0.00345191 0.0279192 0.0356893 
0.0287287 0.0305874 0.0432614 0.00339933 -0.0323926 0.0453269 0.039491 0.0135148 0.0452578 
0.00498914 0.0205071 0.0453302 0.00979809 0.0333536 0.0447373 -0.00796015 -0.0317425 0.07421 
0.0103094 -0.028773 0.0666478 0.0309153 -0.0169955 0.0711955 -0.0172293 -0.00503042 0.0664251 
-0.0381949 0.00459343 0.0694785 -0.0225779 0.00827038 0.0698798 0.017875 0.00496748 0.0655248 
0.0139381 0.0275815 0.0684691 0.0256975 0.0257787 0.0741792 -0.000477331 0.0388464 0.0709427 
-0.0204437 -0.0292921 0.0781717 -0.0117283 -0.0235072 0.0805471 0.00708269 -0.0270827 0.0801769 
0.0225516 -0.0254351 0.0779329 -0.0233942 -0.011014 0.0794059 -0.00196701 -0.0167336 0.0801822 
0.0078251 -0.0168014 0.085306 0.0210088 -0.0147607 0.0772148 0.0191441 -0.00303987 0.0830322 
0.0389618 -0.00311491 0.0767661 -0.00539166 0.00405441 0.0826712 0.0064459 0.00236705 0.081866 
0.0372183 0.0029277 0.0860771 -0.0291979 0.0115458 0.0767854 0.0135581 0.0128528 0.0788383 
0.0315307 0.0140173 0.083573 0.00707951 0.0240195 0.0804885 -0.0229488 0.0329482 0.0848274 
-0.0112002 -0.0319311 0.0889917 0.0382863 -0.0103009 0.0906476 0.0186361 0.00164226 0.0955678 
-0.0181877 0.0178212 0.0864308 0.0157221 0.0153889 0.0908026 -0.00150886 0.0237902 0.0957689 
-0.0107392 0.0356762 0.0873026 -0.0110219 0.00392627 0.0973945 0.00171092 0.0047339 0.0996419 
0.0276659 0.0148859 0.1005 
VERTICES 70 140
1 0 
1 1 
1 2 
1 3 
1 4 
1 5 
1 6 
1 7 
1 8 
1 9 
1 10 
1 11 
1 12 
1 13 
1 14 
1 15 
1 16 
1 17 
1 18 
1 19 
1 20 
1 21 
1 22 
1 23 
1 24 
1 25 
1 26 
1 27 
1 28 
1 29 
1 30 
1 31 
1 32 
1 33 
1 34 
1 35 
1 36 
1 37 
1 38 
1 39 
1 40 
1 41 
1 42 
1 43 
1 44 
1 45 
1 46 
1 47 
1 48 
1 49 
1 50 
1 51 
1 52 
1 53 
1 54 
1 55 
1 56 
1 57 
1 58 
1 59 
1 60 
1 61 
1 62 
1 63 
1 64 
1 65 
1 66 
1 67 
1 68 
1 69 

POINT_DATA 70
FIELD FieldData 7
id 1 70 int
44 837 467 208 595 732 385 912 398 
1986 663 895 1438 1371 720 936 1782 1157 
2710 2509 1606 2873 2267 2166 2790 1929 1751 
2149 1464 3228 2117 3209 2566 3770 3364 4280 
5420 4610 4708 2996 2782 3510 3265 2454 4006 
3932 2252 2640 4179 5050 3206 3102 5509 4989 
3724 5397 4362 4482 5103 5377 3909 4052 3841 
4181 3475 4796 5402 3057 3857 5353 
type 1 70 int
2 2 2 2 2 2 2 2 2 
2 2 2 2 2 2 2 2 2 
2 2 2 2 2 2 2 2 2 
2 2 2 2 2 2 2 2 2 
2 2 2 2 2 2 2 2 2 
2 2 2 2 2 2 2 2 2 
2 2 2 2 2 2 2 2 2 
2 2 2 2 2 2 2 
i 3 70 int
0 0 0 0 0 0 0 0 0 
0 0 0 0 0 0 0 0 0 
0 0 0 0 0 0 0 0 0 
0 0 0 0 0 0 0 0 0 
0 0 0 0 0 0 0 0 0 
0 0 0 0 0 0 0 0 0 
0 0 0 0 0 0 0 0 0 
0 0 0 0 0 0 0 0 0 
0 0 0 0 0 0 0 0 0 
0 0 0 0 0 0 0 0 0 
0 0 0 0 0 0 0 0 0 
0 0 0 0 0 0 0 0 0 
0 0 0 0 0 0 0 0 0 
0 0 0 0 0 0 0 0 0 
0 0 0 0 0 0 0 0 0 
0 0 0 0 0 0 0 0 0 
0 0 0 0 0 0 0 0 0 
0 0 0 0 0 0 0 0 0 
0 0 0 0 0 0 0 0 0 
0 0 0 0 0 0 0 0 0 
0 0 0 0 0 0 0 0 0 
0 0 0 0 0 0 0 0 0 
0 0 0 0 0 0 0 0 0 
0 0 0 
v 3 70 double
0.0055498352477 0.0022187904962 -0.39999716818 0.0016745971949 0.00010872762488 -0.39231613634 0.0019675865088 -0.0010125900494 -0.40200859293 
0.0010789851301 -0.00072978743221 -0.39932419971 0.004171752702 -0.00076752043028 -0.39948596391 0.0042725060868 0.00017719001269 -0.4009303972 
0.006091377146 0.0012136355437 -0.39890364488 0.0055822732575 0.0013191227395 -0.39743719816 -0.00044394753066 0.00026619660011 -0.38970263002 
0.0016862531405 0.0026153737776 -0.40008286048 0.0024675028005 0.00069288416916 -0.394076649 0.0020205212593 -0.0017296553097 -0.39853780683 
0.00052113529957 -0.0019872367423 -0.39763927897 0.0030453607331 0.0032263440542 -0.39710767242 -0.0019305851823 -0.00047583806616 -0.38632788681 
0.0025163164103 0.0029848692017 -0.39918809922 0.0035673309568 -0.00033627417758 -0.40310779683 -0.0015550611567 -5.6467694757e-05 -0.40069607868 
0.015433855463 0.0031892694338 -0.38918027425 0.019610035679 -0.010260542664 -0.39599487887 0.0079143519217 0.0014364088592 -0.40186963944 
0.014229666887 -0.016188263635 -0.40629087716 0.022708497805 -0.011478864641 -0.3826589326 -0.00023289608929 -0.0042380640955 -0.39988157019 
-0.013027482207 0.0025986356602 -0.42010948652 0.0019370168141 -0.012371423903 -0.38537729321 -0.00819216866 -0.0049455485631 -0.40074630755 
-0.0074940867831 0.0012180094073 -0.37130548133 0.025806460167 0.004032766293 -0.3805472107 0.010301638916 -0.0036352498542 -0.38944086475 
-0.00095007996559 -0.016171207949 -0.38089330854 -0.00047229701896 -0.00012321912507 -0.38257973052 -0.037350564311 -0.057037264496 -0.21512546943 
0.034141657094 -0.019048949888 -0.13581944842 -0.09836942094 -0.052002428604 -0.19348963758 0.16574594688 0.09881644056 -0.20988488414 
-0.15532124794 0.044050287672 -0.1787008373 -0.016016113126 -0.10816111341 -0.22821929224 0.028754354014 -0.0093041372414 -0.24948019377 
0.012008684088 -0.022036895856 -0.21588087118 0.049504096971 -0.082121875508 -0.21561478604 0.21096655853 0.25690173982 -0.1057251183 
0.05171092541 0.092889566701 -0.10719078843 -0.070399845734 0.0036252554295 -0.050447448203 -0.0837172841 0.12490709578 -0.13617869037 
-0.3053206606 0.15375316772 -0.092361512058 -0.064214711635 -0.016224208856 -0.055149390518 -0.18062030666 0.15336358951 -0.39062766818 
-0.067372719629 0.13188237584 0.067440745894 0.025783445056 0.010542867172 -0.10356344219 0.033103309367 0.020576343223 -0.076205669942 
0.0059214944352 -0.027930169477 -0.19797827362 -0.14522636938 -0.081377334607 -0.10836452476 -0.088857457225 -0.045836228171 0.064487374309 
0.27730568555 0.026647882337 0.048372866296 0.061831212886 0.040440011468 -0.29320624769 0.12662480185 -0.050726996326 -0.086194755208 
-0.030196711593 -0.037526933669 0.029571451829 0.14933136061 0.12360816331 -0.1131015204 0.025530325293 0.083383538341 -0.0022923072825 
0.16228434589 0.25933689202 -0.25110550585 0.00043211060369 -0.0022154193965 0.1394173881 0.034396072209 -0.1787777521 0.13780495408 
-0.097213176678 0.17137406301 -0.15700201453 -0.092658536789 -0.19585158106 -0.12686079769 -0.15225672807 0.26382592155 0.052573021019 
0.094889973686 -0.28793470721 0.035983789705 0.1783114045 -0.13782429986 0.22921963161 -0.098298366617 0.00023081748092 0.10727738082 
-0.203474353 0.12530919092 0.1338265664 
f 3 70 double
0 0 -0.0012841259972 0 0 -0.0012841259972 0 0 -0.0012841259972 
0 0 -0.0012841259972 0 0 -0.0012841259972 0.0023771347846 -0.0038502914103 -0.0024357255717 
0 0 -0.0012841259972 -0.00042599768837 -0.00033041071956 -0.0015017279053 -0.00012615950159 -7.1090044144e-05 -0.00052597026016 
0 0 -0.0012841259972 -0.0012509207856 0.00030900322907 -0.0015729155211 0 0 -0.0012841259972 
-0.0012832496447 -0.00026065952381 0.00054345163401 2.0633246879e-06 -0.0032216173539 0.00029020658608 0 0 -0.0012841259972 
0 0 -0.0012841259972 0 0 -0.0012841259972 0 0 -0.0012841259972 
0 0 -0.0012841259972 0 0 -0.0012841259972 0 0 -0.0012841259972 
-3.2093390205e-06 -0.00028944159713 -0.0011123306719 0 0 -0.0012841259972 0 0 -0.0012841259972 
0 0 -0.0012841259972 0 0 -0.0012841259972 0 0 -0.0012841259972 
0 0 -0.0012841259972 0 0 -0.0012841259972 0 0 -0.0012841259972 
0 0 -0.0012841259972 0 0 -0.0012841259972 0 0 -0.0012841259972 
0 0 -0.0012841259972 0 0 -0.0012841259972 0 0 -0.0012841259972 
0 0 -0.0012841259972 0 0 -0.0012841259972 0 0 -0.0012841259972 
0 0 -0.0012841259972 0 0 -0.0012841259972 0 0 -0.0012841259972 
0 0 -0.0012841259972 0 0 -0.0012841259972 0 0 -0.0012841259972 
0 0 -0.0012841259972 0 0 -0.0012841259972 0 0 -0.0012841259972 
0 0 -0.0012841259972 0 0 -0.0012841259972 0 0 -0.0012841259972 
0 0 -0.0012841259972 0 0 -0.0012841259972 0 0 -0.0012841259972 
0 0 -0.0012841259972 0 0 -0.0012841259972 0 0 -0.0012841259972 
0 0 -0.0012841259972 0 0 -0.0012841259972 0 0 -0.0012841259972 
0 0 -0.0012841259972 0 0 -0.0012841259972 0 0 -0.0012841259972 
0 0 -0.0012841259972 0 0 -0.0012841259972 0 0 -0.0012841259972 
0 0 -0.0012841259972 0 0 -0.0012841259972 0 0 -0.0012841259972 
0 0 -0.0012841259972 
radius 1 70 double
0.005 0.005 0.005 0.005 0.005 0.005 0.005 0.005 0.005 
0.005 0.005 0.005 0.005 0.005 0.005 0.005 0.005 0.005 
0.005 0.005 0.005 0.005 0.005 0.005 0.005 0.005 0.005 
0.005 0.005 0.005 0.005 0.005 0.005 0.005 0.005 0.005 
0.005 0.005 0.005 0.005 0.005 0.005 0.005 0.005 0.005 
0.005 0.005 0.005 0.005 0.005 0.005 0.005 0.005 0.005 
0.005 0.005 0.005 0.005 0.005 0.005 0.005 0.005 0.005 
0.005 0.005 0.005 0.005 0.005 0.005 0.005 
omega 3 70 double
0.10354675989 0.0097819513142 -0.22331793784 -0.48279146427 0.072578784941 -0.20502110152 0.034874198048 -0.066227007003 0.095100874702 
0.16088515509 0.21511225693 0.13357918214 -0.53634269836 -0.020404417925 -0.14020543607 -0.24263436038 0.75213889379 -0.43726103088 
0.85023149837 0.038486527825 0.19601081838 0.88882875125 -0.30992558521 -0.77430502832 -0.1537150393 -0.5754044245 0.24012412184 
-0.50051449766 -0.028267437421 -0.012827667324 0.14920954195 -0.16043360208 0.071115992344 0.56025109593 -0.071494742941 0.58975314237 
0.85944145291 -0.74450265068 0.1862401842 0.017873581979 0.09163965099 -0.038643620254 0.86857459188 -0.30840916614 -0.35757729809 
-0.25518765141 0.15971859627 0.28992318608 -0.78494567947 3.1582537392 -0.62652583567 -0.11068739942 0.094808910961 -0.034106419227 
-1.9174295659 0.084945845106 1.8427815607 3.1753648162 5.0041965171 0.20456292854 -0.2304991056 -0.11010293976 -0.77622719873 
4.3737979282 3.1686488778 -2.3950434428 -1.3396713758 -0.94625815298 -0.13359421379 0.35008448343 -0.97220571562 -0.53083099654 
2.5958420389 1.4683913755 -3.6453518779 1.0612480814 1.1697609328 -0.066596715124 -1.4002843293 3.2379461803 -1.72704012 
-1.6470854629 -4.5086002896 0.26451242521 -0.23545395105 0.97139804544 -2.0329457572 -0.18012385205 1.151466863 -0.42444033023 
1.9691355884 6.5640475587 -11.0340645 -0.7077921293 -2.2548075584 -1.0723578831 -12.567581872 -1.7764208378 -3.8544034332 
19.293279109 18.052341766 -7.5198754858 -2.9940164531 -3.5540984264 -36.567649283 13.011305151 -6.9437419841 14.69607848 
-19.984812608 10.050466757 -21.242627845 8.0467894923 21.154679635 -23.772486881 -8.3375168822 0.22672853339 11.513838096 
-9.9559095286 5.4290158265 -10.011290976 -26.477136355 26.210557817 20.437015818 -17.662079834 -3.5332481917 15.184077647 
10.806375814 0.26704231731 -7.2667133891 36.673686216 -8.3443021707 -12.920810434 -0.77432184968 35.496995675 -2.8455268971 
-30.560713277 -6.6705765221 -17.581003497 -16.512229536 -9.7206339432 10.930721988 -17.616763269 -9.5018353341 -11.590584105 
51.969275276 -52.925344419 -11.206995192 2.7229652002 5.0744035972 3.8620231519 -9.7320430165 17.679518373 -2.357045641 
-17.327962629 17.010820925 4.3009764397 3.4776327451 1.637878224 53.118369205 13.814029052 25.912981853 5.6021710011 
39.947592893 43.609756803 -60.957305174 14.540636984 -46.309070584 -53.775908216 1.0288905956 22.667133077 10.546254679 
8.5602411619 -13.523694609 -19.220353273 35.167394366 -4.3018311933 35.173418642 -16.926203504 28.133941763 12.411163872 
6.1887700602 9.2775913469 4.7779740695 -43.260962284 6.1375978238 11.222396066 4.3714946566 36.158685949 11.403387766 
-6.1523338563 17.063853092 -1.7619054673 4.4275228494 40.997803387 -28.247154336 -10.376144209 13.364321908 18.731076109 
10.604125752 -13.479009173 -33.391904048 -24.09627257 -13.705804582 14.208498243 -13.393523477 9.6461035718 -27.887005783 
-28.117216846 -32.588208945 -10.277184026 
