# vtk DataFile Version 4.2
Generated by LIGGGHTS
ASCII
DATASET POLYDATA
POINTS 70 float
0.00559482 -0.0172181 0.0189058 0.000976434 -0.0114746 0.0196499 0.0136279 -0.0128366 0.0195418 
-0.0115028 0.00521319 0.0172836 0.00358715 0.00628659 0.0175708 0.0147804 0.00724165 0.019111 
-0.00845521 0.0126984 0.0164867 -0.00082479 0.0102572 0.0165864 0.00762472 0.016654 0.016568 
0.00856984 0.0118607 0.0200972 0.00449457 0.0213976 0.0185369 -0.0103604 -0.0132167 0.0264067 
0.0143132 -0.0137401 0.0284083 -0.0181617 -0.00442475 0.0272309 -0.0112842 -0.00160834 0.0284584 
0.0161586 -0.00363778 0.0228954 0.00973912 -0.00751308 0.0258885 -0.0164554 0.00196477 0.0222796 
-0.0104235 0.00432166 0.0280685 0.000524256 0.00395546 0.0257091 0.00922205 0.00454563 0.029181 
0.0130996 0.0174952 0.0258836 -0.00496919 -0.00611722 0.035682 -0.000250499 0.00143909 0.031208 
0.00913527 0.010534 0.029539 -0.0186209 -0.00912896 0.0448781 -0.00868418 -0.0141161 0.0454988 
-0.0127149 -0.00990974 0.043922 0.0180995 -0.0123157 0.0391104 -0.0211843 -0.00469273 0.0416655 
0.016653 -0.00314715 0.0402004 -0.0210202 0.00553914 0.0442044 -0.0127201 0.000905755 0.0454053 
0.00195044 0.00160218 0.043047 0.00952128 0.00772173 0.0445575 0.0132857 0.0017677 0.0419143 
0.0161112 0.00820583 0.0414122 0.0208881 0.00209584 0.0441855 -0.0164883 0.00978639 0.0451219 
-0.014249 0.0160317 0.0450797 -0.00740058 0.0185648 0.0445301 -0.0113079 -0.017996 0.0505183 
-0.00592556 -0.0205737 0.0470201 -0.00314561 -0.0161637 0.0506392 0.00119839 -0.0193221 0.0478119 
-0.0157006 -0.0147443 0.0478459 -0.0133601 -0.00914836 0.0505386 -0.000763748 -0.0093706 0.0469968 
0.00690005 -0.0161842 0.0458208 0.00423148 -0.0118908 0.0503857 0.0105201 -0.0101557 0.0465763 
0.012001 -0.0161158 0.0504313 0.0171191 -0.0136531 0.0468945 0.0189913 -0.0087694 0.0505475 
-0.0103428 -0.00419155 0.047769 0.00426252 -0.00495604 0.0477372 0.0088423 -0.00146398 0.0459683 
0.0131714 -0.00114588 0.0504633 0.0196249 -0.00255865 0.0489362 -0.0192689 0.0016473 0.0486986 
-0.0122945 0.00794001 0.0503191 -0.00345729 0.00442505 0.0491034 0.00388789 0.00109921 0.0503772 
0.00689043 0.00753875 0.0504094 -0.00766969 0.00982847 0.0467548 0.000290041 0.0106945 0.049089 
0.00702536 0.0134265 0.0483107 0.0146895 0.0108552 0.0503667 -0.00140121 0.0217942 0.0483051 
0.00977894 0.0192663 0.0482698 
VERTICES 70 140
1 0 
1 1 
1 2 
1 3 
1 4 
1 5 
1 6 
1 7 
1 8 
1 9 
1 10 
1 11 
1 12 
1 13 
1 14 
1 15 
1 16 
1 17 
1 18 
1 19 
1 20 
1 21 
1 22 
1 23 
1 24 
1 25 
1 26 
1 27 
1 28 
1 29 
1 30 
1 31 
1 32 
1 33 
1 34 
1 35 
1 36 
1 37 
1 38 
1 39 
1 40 
1 41 
1 42 
1 43 
1 44 
1 45 
1 46 
1 47 
1 48 
1 49 
1 50 
1 51 
1 52 
1 53 
1 54 
1 55 
1 56 
1 57 
1 58 
1 59 
1 60 
1 61 
1 62 
1 63 
1 64 
1 65 
1 66 
1 67 
1 68 
1 69 

POINT_DATA 70
FIELD FieldData 7
id 1 70 int
436 44 401 801 209 292 2836 1958 602 
903 2857 212 573 732 709 290 388 3257 
2287 535 1777 2180 472 672 2611 1971 1507 
2712 2824 2749 1632 2841 2133 2199 851 2015 
3260 1396 2546 3277 1811 1401 1459 952 2454 
911 3103 1168 1490 2664 3323 1391 1511 2149 
744 657 2301 3036 924 3144 2489 1177 2208 
2676 2256 2914 3042 2602 3312 2945 
type 1 70 int
2 2 2 2 2 2 2 2 2 
2 2 2 2 2 2 2 2 2 
2 2 2 2 2 2 2 2 2 
2 2 2 2 2 2 2 2 2 
2 2 2 2 2 2 2 2 2 
2 2 2 2 2 2 2 2 2 
2 2 2 2 2 2 2 2 2 
2 2 2 2 2 2 2 
i 3 70 int
0 0 0 0 0 0 0 0 0 
0 0 0 0 0 0 0 0 0 
0 0 0 0 0 0 0 0 0 
0 0 0 0 0 0 0 0 0 
0 0 0 0 0 0 0 0 0 
0 0 0 0 0 0 0 0 0 
0 0 0 0 0 0 0 0 0 
0 0 0 0 0 0 0 0 0 
0 0 0 0 0 0 0 0 0 
0 0 0 0 0 0 0 0 0 
0 0 0 0 0 0 0 0 0 
0 0 0 0 0 0 0 0 0 
0 0 0 0 0 0 0 0 0 
0 0 0 0 0 0 0 0 0 
0 0 0 0 0 0 0 0 0 
0 0 0 0 0 0 0 0 0 
0 0 0 0 0 0 0 0 0 
0 0 0 0 0 0 0 0 0 
0 0 0 0 0 0 0 0 0 
0 0 0 0 0 0 0 0 0 
0 0 0 0 0 0 0 0 0 
0 0 0 0 0 0 0 0 0 
0 0 0 0 0 0 0 0 0 
0 0 0 
v 3 70 double
-0.028420354498 -0.014512616391 0.020139009055 -0.014458292061 -0.0039923351803 0.020862909116 -0.020751287851 -0.024777913634 0.015628977418 
-0.008219696621 -0.016154982767 0.014818114058 -0.0065965032587 -0.0045677835459 0.014545172581 -0.0084186280856 -0.0094471639718 0.0024523953428 
-0.014384364713 -0.016291581791 0.011337549348 -0.0084130103474 -0.0049686371716 0.015055165486 -0.0054802450719 -0.0013354061069 0.01152045001 
-0.00085280656877 -0.001852969159 0.015383747118 -0.010036297366 0.00056361844684 0.011052094884 0.01008382972 -0.0034129800299 0.059797879415 
-0.018686428061 -0.033361830472 0.02373037712 0.015048394038 -0.038629882245 0.031015770713 0.0024850167209 -0.013370472031 0.029518765483 
-0.0070474161255 -0.031274496992 0.007471766715 -0.0094829493446 -0.016059665982 0.020801935308 -0.0021554877811 -0.026224845279 0.013570990109 
-0.0094733423499 -0.0091650810002 0.021376704552 -0.0010522204354 0.00088954030233 0.018229979473 0.0068298258888 -0.0078128093513 0.0070908218863 
0.0036420798193 -0.0019145441845 0.022771847168 0.01988389698 0.019950942109 0.080183591906 0.008902109101 0.010127977214 0.019391549988 
0.007092971182 -0.0025933674893 0.0042453809078 0.012790912395 -0.054934569317 0.23852941105 -0.1091262062 0.19809586431 0.064963127437 
-0.026669097556 0.067196864526 0.15623290025 0.015876810905 -0.059106460827 0.072333551263 0.0027585492658 -0.096836324328 0.15727854446 
-0.0078525668582 0.018898022254 0.084340254511 -0.061471823134 -0.1079897736 0.12778551799 0.0055281386567 0.018097882621 0.17427126814 
0.045102117806 -0.017406881154 0.11951401471 -0.12987042814 0.1623626332 -0.17364448807 0.11105661828 0.12419693546 0.0049278614696 
0.27785742896 0.034104089529 0.034020520698 0.22180545119 0.24342992208 -0.12196292632 -0.026493113925 -0.065044251877 0.080761920025 
-0.073560669563 -0.098720079479 0.11610331237 -0.10059399964 -0.060250660044 0.078217856704 0.11018420481 -0.019111493641 0.028240583955 
-0.020505765618 0.031188853459 -0.087356311166 0.037145263297 0.3683215814 -0.68076022421 -0.18444394242 0.143486966 -0.015551383302 
-0.20930872769 0.10650199675 -0.0085611363177 -0.06941905973 0.31170138219 -0.32039690976 0.054051762649 -0.061634221372 0.043910448665 
0.18893693155 -0.085831935225 -0.053363897368 -0.11112293364 -0.12946608863 -0.075627481228 -0.13053030647 0.14045358452 -0.061022657375 
0.43835251521 0.058972028252 -0.22526032131 -0.062504755185 -0.41649765256 -0.31029780263 0.084434214347 -0.14279243952 -0.42244932411 
0.037822403975 0.42084264731 -0.25801572375 -0.037622747592 -0.063897371595 -0.42882137958 -0.016764618303 -0.24965249768 0.0187476479 
-0.061073299314 -0.016961583542 -0.80743789875 -0.33446590676 -0.088651082561 -0.43422587425 -0.18598793759 0.27487776225 -0.053945330619 
-0.1717908869 0.16758154855 -0.62807122771 -0.0056848620216 0.020188284976 0.21783698902 -0.25344712277 0.28712612958 -0.43430446345 
-0.01916027687 0.24202581509 -0.51633962614 0.42976873311 0.27924115352 -0.487441965 -0.039434903287 0.036806460859 0.21039350749 
0.078245091572 -0.014326677336 -0.83881195311 0.022684049807 -0.18626181309 -0.68533472985 -0.24339047341 -0.064445346109 0.14403035777 
-0.13743279688 -0.089507067725 -0.027553684897 
f 3 70 double
0 0 -0.00027737121539 7.9484978787e-05 0.00022209857285 -0.00016745032272 0.00011493453328 0.00040929380616 -6.438405357e-05 
0 0 -0.00027737121539 9.190814923e-05 -4.1168086049e-05 -0.00045575777477 0 0 -0.00027737121539 
-2.8750869694e-05 0.00027051208743 -0.00027827230456 -2.4148679271e-05 0.00010141617627 -0.00013062712683 0 0 -0.00027737121539 
0 0 -0.00027737121539 0 0 -0.00027737121539 0.00023195579436 0.00012112470892 -0.00029600177981 
0.00053232994708 0.00019486798008 -0.0011566208232 0 0 -0.00027737121539 3.3139289767e-05 3.3761624741e-05 -0.00026391307972 
0 0 -0.00027737121539 0.00049655861707 0.0002935186783 7.1068966153e-06 0 0 -0.00027737121539 
0 0 -0.00027737121539 0.00046706848251 -0.00050399385482 -0.00087892727411 0.00019209857336 -0.0045271950446 -0.0014951641772 
-0.00049548421069 0.0003652676441 0.00049106511826 0 0 -0.00027737121539 0 0 -0.00027737121539 
-0.00019209857336 0.0045271950446 0.00094042174644 0 0 -0.00027737121539 0 0 -0.00027737121539 
0 0 -0.00027737121539 0 0 -0.00027737121539 0 0 -0.00027737121539 
0 0 -0.00027737121539 0 0 -0.00027737121539 0 0 -0.00027737121539 
0 0 -0.00027737121539 0 0 -0.00027737121539 0 0 -0.00027737121539 
0 0 -0.00027737121539 0 0 -0.00027737121539 0 0 -0.00027737121539 
0 0 -0.00027737121539 0 0 -0.00027737121539 0 0 -0.00027737121539 
0 0 -0.00027737121539 0 0 -0.00027737121539 0 0 -0.00027737121539 
0 0 -0.00027737121539 0 0 -0.00027737121539 0 0 -0.00027737121539 
0 0 -0.00027737121539 0 0 -0.00027737121539 0 0 -0.00027737121539 
0 0 -0.00027737121539 0 0 -0.00027737121539 0 0 -0.00027737121539 
0.025582783187 -0.012784189463 0.026015803013 0 0 -0.00027737121539 0 0 -0.00027737121539 
0 0 -0.00027737121539 0 0 -0.00027737121539 0 0 -0.00027737121539 
0 0 -0.00027737121539 0 0 -0.00027737121539 0 0 -0.00027737121539 
0 0 -0.00027737121539 0 0 -0.00027737121539 0 0 -0.00027737121539 
0 0 -0.00027737121539 0 0 -0.00027737121539 0 0 -0.00027737121539 
0 0 -0.00027737121539 
radius 1 70 double
0.003 0.003 0.003 0.003 0.003 0.003 0.003 0.003 0.003 
0.003 0.003 0.003 0.003 0.003 0.003 0.003 0.003 0.003 
0.003 0.003 0.003 0.003 0.003 0.003 0.003 0.003 0.003 
0.003 0.003 0.003 0.003 0.003 0.003 0.003 0.003 0.003 
0.003 0.003 0.003 0.003 0.003 0.003 0.003 0.003 0.003 
0.003 0.003 0.003 0.003 0.003 0.003 0.003 0.003 0.003 
0.003 0.003 0.003 0.003 0.003 0.003 0.003 0.003 0.003 
0.003 0.003 0.003 0.003 0.003 0.003 0.003 
omega 3 70 double
0.34230474398 0.81703171077 -1.5246638701 0.15283579125 -0.01556325986 -1.3976599756 -0.25567537202 0.18358582415 -2.343498649 
-0.2514727709 -0.28028817685 1.1400532113 -0.46796340501 0.75059091751 0.32528225846 0.061994692874 -0.26921785147 0.61506138643 
-0.27123212668 1.1654360836 0.3690682018 -0.3215938677 -0.055827062921 -0.35485018195 0.13400118833 -0.17687318629 0.60250759973 
-0.24207171965 0.48084035559 -0.3001436757 -0.81577018144 -1.2853509682 0.67309451828 -2.884432191 -0.35158623889 1.637655728 
-0.48717694052 -0.28534758124 -1.828734187 -2.7873331258 -0.79341648097 2.3983450934 -1.4406760148 0.0069678481506 3.9094026282 
-0.93080790416 1.1971923469 -0.48649596604 -1.8795231318 -1.0881467136 -2.7119997567 -0.37293877392 -1.4366864329 1.033262322 
-1.2883801666 -1.2062203748 1.9300280296 -1.3053839873 -0.54279098609 -0.17286436411 0.64775119372 2.1813742497 1.412959751 
-2.2961240474 0.24562571607 -0.51616664146 -2.8664118127 -2.9545515471 5.2750135069 -2.5998551639 -2.1309409444 -4.996491144 
-0.39916916542 2.006003095 -0.69465499461 -9.7151200963 -10.970851296 15.112602203 16.686710462 38.788526901 -0.6584531764 
-36.300267142 10.538280638 22.785756309 5.2643441305 -6.8892605612 3.0166723836 -10.611735982 -14.353039896 2.329321171 
12.02236583 13.691940224 -19.57937794 -3.6600452211 41.0557942 13.168673048 -7.3071083219 -18.399750173 -4.6654862352 
49.841348637 -15.25609545 4.0323470258 40.189538499 -67.294222915 -56.791885239 -22.320972743 11.764543889 -5.8792839266 
-20.288672521 39.690420789 -14.492321323 -48.359100069 -8.9576708327 -5.4664010072 9.1038657304 -10.6072663 -5.9792907277 
3.7944510488 6.2717001251 17.129233434 22.517892524 -5.588023347 17.05619212 -3.8164080505 20.352511299 8.4395807314 
-66.429681122 82.933962735 25.399800381 -3.4823771106 -0.72683895309 26.904973094 -2.3343331693 -50.186075804 -18.812971339 
7.2649684392 11.805364784 17.066405415 21.108429921 -77.511610889 -22.918588704 95.671425879 -4.9325158537 -1.484149664 
35.63934666 58.065923309 23.885426278 -45.2030604 -86.475507185 -1.6370368641 47.718300733 70.066667995 20.964198452 
17.051768968 61.864012468 -3.1232546494 -51.420170963 17.930455562 -15.300579374 13.08179934 14.475523863 30.397009153 
56.735879778 -105.88035026 -34.81489485 -9.1606596006 -54.318371581 27.264538651 -15.9484306 -28.505788067 20.107760423 
-0.019651719904 0.013906894627 -10.561637819 -11.014937457 1.4109710838 18.862448291 91.057959142 110.29300442 37.75968252 
48.192594871 -140.03851121 2.8465770776 7.9249047106 24.632609524 -4.9139277692 -6.6726575141 -34.336011421 42.250911661 
20.428761481 -27.775365083 12.843937702 -18.808137908 -113.61615901 -8.8099537085 -0.83131503728 13.488140812 -3.0826154781 
0.20050648845 -0.10245897899 -26.978575933 20.009471367 11.246804056 -7.2840095902 -17.064008562 -35.967492695 -17.901328351 
97.540343272 44.659747715 27.756981148 
