# vtk DataFile Version 4.2
Generated by LIGGGHTS
ASCII
DATASET POLYDATA
POINTS 70 float
0.0160031 -0.0388356 0.0174645 -0.00956953 -0.0104105 0.0231473 0.000319337 -0.0117556 0.0238545 
0.0272293 -0.0110876 0.0209367 -0.0343365 0.00543205 0.0216901 0.0419281 0.00111968 0.0243084 
-0.0347555 0.0152061 0.0195121 0.000166885 0.0347865 0.0232885 0.00865611 0.0411052 0.0210391 
-0.0119323 -0.0229484 0.0248027 0.0348172 -0.0160538 0.0253211 -0.0300847 -0.00159497 0.02979 
0.0228309 -0.00301171 0.0249533 -0.0312696 0.00828657 0.0307699 -0.0184053 0.00498127 0.0293376 
-0.00898473 0.00233303 0.0272827 -0.00477656 0.014405 0.0262101 0.0184877 0.0265805 0.0324445 
-0.00763149 -0.0413063 0.0409334 0.00527359 -0.0416482 0.0400479 -0.0248116 -0.020124 0.0354411 
-0.0317826 -0.0142202 0.0395139 -0.0128464 -0.019323 0.0411126 -0.0066242 -0.0015779 0.0361957 
0.0289836 -0.00304684 0.0395984 0.0155548 0.0177045 0.0364308 -0.00355647 0.0277492 0.035365 
0.0290388 0.0302817 0.0417085 0.0114841 -0.0134348 0.0550634 0.0225082 0.0097987 0.0543389 
-0.00992491 0.0119739 0.0547562 0.0191538 0.019001 0.0523231 0.0085364 0.0372069 0.0467475 
-0.0228823 -0.035191 0.0579481 -0.00945228 -0.0357754 0.0556839 0.0106853 -0.0310983 0.0613143 
0.0121132 -0.0397922 0.0565841 -0.0282307 -0.0237542 0.0559097 -0.0160261 -0.0216251 0.0561211 
-0.0151327 -0.0299862 0.0615333 -0.00698696 -0.0258928 0.0558406 0.00292706 -0.0264917 0.057003 
0.01349 -0.0232529 0.0557842 0.0300166 -0.0293566 0.0555756 -0.0234602 -0.0152742 0.0582185 
-0.00943641 -0.0133178 0.0552722 -0.0340548 -0.00912384 0.0561535 -0.019026 -0.00461127 0.0564766 
-0.00675188 -0.00108442 0.0571207 0.00741473 -0.00414678 0.0563034 0.0184444 -0.00662134 0.0573284 
0.039861 -0.00698823 0.0566522 -0.0336167 0.000877618 0.055885 -0.0179919 0.00659586 0.0572056 
-0.000593011 0.00663696 0.055556 0.00931737 0.00566898 0.0564759 0.0181878 0.00295152 0.0602082 
0.0302956 0.000410282 0.0585859 0.0367463 0.00773856 0.0564214 -0.0280347 0.0128845 0.056856 
0.0110867 0.0154927 0.0570782 -0.0169636 0.0250288 0.0566903 -0.00720973 0.0230785 0.0556618 
0.00239879 0.0203827 0.0563001 0.0128213 0.0269962 0.0573409 0.0348219 0.0200926 0.0569099 
-0.0247918 0.0339035 0.0563594 -0.0129457 0.0398756 0.0564443 0.00389099 0.0314234 0.0565353 
0.0168577 0.038388 0.0571193 
VERTICES 70 140
1 0 
1 1 
1 2 
1 3 
1 4 
1 5 
1 6 
1 7 
1 8 
1 9 
1 10 
1 11 
1 12 
1 13 
1 14 
1 15 
1 16 
1 17 
1 18 
1 19 
1 20 
1 21 
1 22 
1 23 
1 24 
1 25 
1 26 
1 27 
1 28 
1 29 
1 30 
1 31 
1 32 
1 33 
1 34 
1 35 
1 36 
1 37 
1 38 
1 39 
1 40 
1 41 
1 42 
1 43 
1 44 
1 45 
1 46 
1 47 
1 48 
1 49 
1 50 
1 51 
1 52 
1 53 
1 54 
1 55 
1 56 
1 57 
1 58 
1 59 
1 60 
1 61 
1 62 
1 63 
1 64 
1 65 
1 66 
1 67 
1 68 
1 69 

POINT_DATA 70
FIELD FieldData 7
id 1 70 int
44 385 912 837 467 720 208 1157 595 
732 398 1986 663 895 1438 1371 936 1782 
2710 2509 1606 2873 2267 2166 2790 1929 1751 
2149 4179 3206 3841 3932 3209 5397 3057 2117 
5509 2252 4362 3102 4006 3228 4989 5402 3475 
3364 3909 2640 5420 4482 4181 3510 5050 3724 
4610 4052 5353 5377 4708 3770 5103 2566 4280 
3857 2996 2782 3265 2454 1464 4796 
type 1 70 int
2 2 2 2 2 2 2 2 2 
2 2 2 2 2 2 2 2 2 
2 2 2 2 2 2 2 2 2 
2 2 2 2 2 2 2 2 2 
2 2 2 2 2 2 2 2 2 
2 2 2 2 2 2 2 2 2 
2 2 2 2 2 2 2 2 2 
2 2 2 2 2 2 2 
i 3 70 int
0 0 0 0 0 0 0 0 0 
0 0 0 0 0 0 0 0 0 
0 0 0 0 0 0 0 0 0 
0 0 0 0 0 0 0 0 0 
0 0 0 0 0 0 0 0 0 
0 0 0 0 0 0 0 0 0 
0 0 0 0 0 0 0 0 0 
0 0 0 0 0 0 0 0 0 
0 0 0 0 0 0 0 0 0 
0 0 0 0 0 0 0 0 0 
0 0 0 0 0 0 0 0 0 
0 0 0 0 0 0 0 0 0 
0 0 0 0 0 0 0 0 0 
0 0 0 0 0 0 0 0 0 
0 0 0 0 0 0 0 0 0 
0 0 0 0 0 0 0 0 0 
0 0 0 0 0 0 0 0 0 
0 0 0 0 0 0 0 0 0 
0 0 0 0 0 0 0 0 0 
0 0 0 0 0 0 0 0 0 
0 0 0 0 0 0 0 0 0 
0 0 0 0 0 0 0 0 0 
0 0 0 0 0 0 0 0 0 
0 0 0 
v 3 70 double
-4.4795197432e-06 1.6098084543e-05 1.3664192694e-06 -2.9472835246e-05 3.2577338346e-05 -1.8485255447e-05 1.4948132029e-05 -1.157601195e-05 -3.3122239739e-06 
-1.8423848296e-05 -1.8999316241e-05 6.2090546195e-06 -1.9784488518e-06 -6.7290287238e-06 3.8703141214e-06 1.5728420936e-05 -2.3242517746e-06 -8.6400334299e-07 
1.1287856321e-06 2.3500576219e-06 -3.9456923975e-06 -3.7590991685e-06 -8.3946238324e-06 8.5242353435e-06 -1.0546720907e-05 -2.8275537165e-06 -9.5126018345e-06 
-6.4344248333e-06 -1.2007871014e-05 -2.9412236002e-06 -7.1458944886e-06 1.5234944e-06 2.5562063313e-06 -3.8180902055e-07 5.9607157765e-06 -4.0777725248e-06 
1.0219008777e-05 3.6818118935e-06 -2.0345574276e-06 -3.1662537719e-06 4.9352970482e-06 -4.7996987538e-06 1.3133034059e-06 3.6022870746e-07 -2.4216935274e-06 
4.5511562683e-08 -2.6117711434e-06 4.285754431e-06 3.3797626059e-06 -2.4081859881e-06 -9.6975880856e-06 -2.4386328285e-06 5.1090134913e-06 3.6309720843e-06 
2.1378608531e-06 -8.6265521267e-07 1.879688024e-06 -1.3204905903e-06 -8.0065244108e-07 8.4586265123e-07 -6.1269669415e-07 5.9746227218e-06 2.3871170959e-06 
-1.5855913683e-06 2.9532163255e-06 3.022615394e-06 -2.2399103973e-07 -1.1505481436e-07 2.4044409995e-06 -1.2435805397e-06 -7.480134479e-07 -6.6469193624e-06 
1.6207393728e-06 7.7166752847e-06 6.0599429067e-06 -1.9920082386e-06 1.9257246953e-06 4.4800406978e-06 -1.1245860365e-06 2.0335343626e-06 3.1515356939e-06 
1.3287459263e-06 1.203904787e-06 -4.1404994359e-07 3.7721848075e-08 -4.4501876141e-08 4.3053206358e-07 1.430441585e-06 -2.1428625825e-07 -1.1904548918e-07 
-1.0404514537e-06 2.213495675e-06 1.6772210016e-06 1.4092487426e-06 -2.3986058683e-07 1.7509037479e-07 1.0601790997e-06 -9.3976494477e-08 4.0439853234e-06 
-5.8547245539e-08 6.394507815e-08 -3.0493752466e-08 -5.0354843419e-07 3.4218512565e-08 -1.5845123836e-07 6.3194024442e-08 2.9103189613e-07 1.0702289324e-07 
4.0248093533e-07 -8.2390477269e-08 1.6502467831e-07 2.1941853665e-07 -1.1269007356e-06 1.0993086668e-06 4.6082486268e-07 -2.1908534682e-07 -5.6466257302e-07 
-1.0970686299e-06 8.9444883124e-07 -1.1436897963e-06 -9.5282160372e-07 -4.4301042995e-07 -4.53884691e-07 -6.6944505396e-07 -2.5525721685e-07 -7.4010304944e-08 
2.3302798736e-07 -4.9263346128e-07 -1.2232081566e-06 2.3198263721e-06 1.0349085496e-06 -4.8273133806e-07 8.4737675959e-07 2.1211832722e-06 3.5872398801e-07 
1.0289926177e-07 5.9134125935e-07 3.7609897631e-07 -1.0034342334e-06 7.0068824773e-07 -1.6033544941e-06 5.1933935946e-07 -1.7891847941e-07 -3.9454814243e-07 
-5.9326287075e-07 7.3346347054e-07 4.5562016662e-07 -9.0607971832e-07 -3.8846354477e-08 1.1323377739e-07 1.8430286134e-08 1.8883795097e-07 5.1381937298e-07 
-1.2271498469e-05 -1.4730220864e-05 5.8456998663e-08 7.2056231781e-07 -4.3805349514e-07 -1.3346391507e-06 -1.1883590169e-07 -1.8950671763e-06 9.245158484e-07 
8.1354122017e-07 -6.3263353736e-07 1.5147228e-06 8.3846570489e-07 -5.7180345093e-08 8.0432745024e-07 3.4657276988e-07 -5.8509380706e-07 -1.564884112e-07 
5.6491262769e-06 -1.3025963499e-07 -6.8612500365e-07 5.3530312865e-06 1.5636675709e-06 3.9910532518e-07 -2.9779431936e-07 -4.5814992749e-07 -2.6624374519e-07 
9.3755118743e-07 -1.6797432444e-07 9.0656323538e-07 -1.436350058e-06 4.0691473947e-07 7.4752345705e-07 1.2005574349e-06 6.4834159833e-07 -1.1261095412e-07 
-1.450263674e-07 7.2869175389e-07 -2.7782660185e-07 -7.3988539206e-07 -6.8154671543e-08 -1.4454490519e-06 -9.472619667e-08 3.6314373745e-07 -1.0518009894e-07 
3.5732805925e-07 -5.5415591651e-07 1.8210784901e-06 1.6379790109e-07 5.3213696147e-07 4.1933907456e-08 -4.6369492582e-08 -1.0341042092e-07 9.3879584472e-08 
-2.5179077758e-07 -1.5032289417e-07 -2.9857354105e-07 
f 3 70 double
-5.9861576562e-05 0.00028455893627 -4.3496746144e-05 -0.00011694944767 6.4378766586e-05 0.00018821499962 6.4660038607e-05 -7.2243244376e-05 -7.4413945728e-05 
5.9759880043e-05 0.00018011544889 5.6086495439e-05 -5.2074519794e-05 -7.1917217419e-05 -3.6496810253e-05 -2.3675548862e-07 0.0001440523598 0.00014689288579 
7.0590159321e-05 -8.5514967532e-05 -7.9451701059e-05 0.00020109027844 -3.1485578646e-05 -0.00012311133703 6.3795834749e-05 3.5031184103e-05 1.1955074248e-05 
-0.00010687464931 4.0060017799e-05 -5.7660098946e-06 7.552810548e-05 -0.00013831378691 -0.00022094627625 5.1412958264e-05 5.4609323815e-05 -8.7348848553e-05 
6.5624174736e-05 -4.9838002758e-05 4.8342260737e-05 -4.828712811e-05 2.5643612196e-05 9.7541125865e-06 -1.4166612203e-05 6.176448732e-05 -6.7570395731e-05 
1.6037110084e-05 -7.1954237101e-06 -6.4198512516e-05 -2.6308876104e-05 -5.9877483033e-05 9.2999340419e-06 -2.5996865613e-05 -3.621219202e-05 -6.9424616661e-06 
-1.9987834735e-05 5.4461877564e-06 -1.0480426017e-05 -7.0848712426e-07 -4.1454331395e-05 1.4628564682e-05 -0.00011845950304 2.8868059178e-05 3.1659250539e-05 
2.1845076567e-05 -1.7775816719e-06 -4.8658043458e-05 -2.5018423833e-06 1.9205408926e-05 -1.4181777855e-05 4.2715416372e-06 6.909673992e-06 -2.5821578108e-05 
1.2092566428e-05 -3.4631187621e-05 -4.2455027235e-05 -2.9386778516e-05 2.5583776182e-05 -9.1438947939e-06 8.1284394388e-06 -3.6092534644e-05 -6.7047630542e-06 
-1.7934656418e-06 8.5663870333e-07 -4.0669884639e-06 -4.8223008602e-07 9.4153824741e-06 6.2445506966e-06 -2.6205711215e-06 4.4587536081e-06 -1.3644174122e-06 
1.9107917862e-06 6.3138831492e-06 9.2854471791e-06 1.203149261e-05 2.9550611467e-06 2.7780575714e-06 -5.4156349568e-06 -4.2614678354e-06 1.1343950539e-05 
-8.0574261662e-07 2.8944250338e-07 -2.8538160598e-07 4.1887595093e-07 -5.0030749843e-07 -2.9273064877e-07 9.4158659358e-08 1.1085198602e-06 -1.6890486296e-06 
9.6538980898e-07 1.3133673574e-06 -5.6034023498e-07 -3.4797140934e-07 -2.1170267271e-06 -7.5490373939e-07 -3.3655252231e-06 1.6096136102e-06 -2.4432918883e-06 
8.6113035732e-07 -6.8700909522e-07 1.8832875919e-06 8.0154781545e-07 3.2425444504e-06 2.6149681596e-06 9.4354677322e-07 -2.8398187078e-07 3.2318187384e-07 
-1.2770757533e-06 6.2965838972e-07 1.9368778966e-06 6.0645072825e-07 -2.3207419023e-07 1.3007125659e-06 -1.4474152349e-06 -3.1224577308e-06 1.5007210331e-06 
4.4439910093e-07 -5.8039717251e-07 1.2714519653e-06 -2.3458632818e-07 7.7048381106e-07 1.657465737e-06 1.5354364917e-06 2.6067918749e-06 1.3801484102e-06 
-6.2035385578e-07 2.5853179057e-08 1.4723658831e-06 1.2967064354e-06 7.8498225949e-08 -1.3028153205e-06 -1.0198258143e-06 2.1129760654e-06 -5.2611064747e-07 
-1.140752664e-06 2.8957102733e-07 1.0428395311e-06 -1.6637479505e-06 1.4354953686e-06 -1.8050734146e-06 -1.7245768492e-06 -3.8785390621e-06 3.1923388422e-06 
2.4640448622e-06 -1.5859557936e-06 -3.3757779946e-07 -1.3395690076e-06 2.8760905495e-06 3.1272586008e-06 -3.2973269289e-06 2.2724014931e-06 3.7740037469e-07 
1.9946660289e-07 -8.3523534934e-07 -2.0245880111e-07 8.4454791055e-07 1.6948121912e-06 -1.0773880335e-06 1.0157510273e-06 2.6940594605e-06 1.7226739733e-06 
-2.0729671057e-06 2.0523440909e-06 -2.9137586204e-06 1.7677269833e-06 -1.5528875011e-06 -1.040540196e-06 4.8388140675e-06 2.1276485293e-06 1.0478612749e-06 
-4.1335114092e-06 -2.3235779864e-06 -1.9980500449e-07 8.0616104239e-07 -2.0464182873e-07 5.687905516e-07 -4.276209816e-07 7.7109372559e-07 -5.8260594168e-07 
2.9780053766e-07 -6.7098571805e-07 -2.2584280155e-06 -7.1837056174e-07 1.7548303994e-06 -1.4223975098e-06 -2.6832543691e-07 -9.6814176285e-07 1.9584153812e-06 
-2.6788204131e-07 -8.4541156289e-07 2.5807037958e-06 
radius 1 70 double
0.005 0.005 0.005 0.005 0.005 0.005 0.005 0.005 0.005 
0.005 0.005 0.005 0.005 0.005 0.005 0.005 0.005 0.005 
0.005 0.005 0.005 0.005 0.005 0.005 0.005 0.005 0.005 
0.005 0.005 0.005 0.005 0.005 0.005 0.005 0.005 0.005 
0.005 0.005 0.005 0.005 0.005 0.005 0.005 0.005 0.005 
0.005 0.005 0.005 0.005 0.005 0.005 0.005 0.005 0.005 
0.005 0.005 0.005 0.005 0.005 0.005 0.005 0.005 0.005 
0.005 0.005 0.005 0.005 0.005 0.005 0.005 
omega 3 70 double
0.00080498175854 -0.0020270286572 -0.00035752406583 -0.00011783086405 0.0029752405013 0.0025529721638 -0.0012042172335 -0.0041818934018 0.0025149792454 
0.0030686866464 -0.0020364583655 -0.0023605306289 -8.8022150596e-05 -0.00025793829575 0.0002366853623 0.007965269627 -0.0020654837476 -5.7133728873e-05 
9.7620392674e-05 0.00026500721827 0.00038354270093 0.00021271220859 -0.0046584119559 -0.0014566259512 0.0064083433667 0.0030406423927 -0.010523727432 
1.4031421559e-05 0.00032471452411 -0.0010087870931 -0.00052935097392 -0.0023563343131 0.00065240921592 -0.00033581007876 0.00040695467531 -0.00011593587462 
-0.00023984354531 -0.00038843910507 0.00049342676114 0.00012215981156 0.00033838197397 0.00015774048708 -0.0034305504808 -0.0001377723515 -0.0029527198153 
-0.00039212286873 -0.00070383584919 0.00034921174031 0.00089061311569 0.00027579410697 -0.00024004636268 -0.0039962072948 -0.0015607791446 -0.0013120053622 
0.0027909507503 -0.00094082128016 -0.00015876623393 0.00017247666477 -0.00059650727735 -4.4970087878e-05 -0.00036558177039 -0.0036809456206 0.0061099187057 
0.00011271571487 0.00058244105466 0.00020849509068 0.0014065802407 -0.00099155039117 -0.00024942827117 -0.0025262116013 -0.0017958366975 0.00053093130139 
0.0011916513318 -0.0041235102342 0.0023636309894 -0.0011699752465 -0.0010944336965 -5.7096804186e-05 0.0008031173909 0.0006740459323 0.002331238302 
-0.00021544053579 0.0005778910187 0.00018466064114 0.00036531391627 0.00040541904341 4.8530464254e-05 2.3993899743e-05 3.1047534211e-05 -0.00044921357312 
-0.00032954385743 -0.00024237951254 -0.00011004669327 0.00035251265507 -0.0011951157845 -0.0019477428348 0.00050252890667 -0.00051645504041 -0.0002852396861 
4.9722858616e-05 -1.2547823463e-05 4.6204380834e-05 0.00016257328577 -0.00019854678024 2.9564172952e-05 -0.00012558041209 -0.00014819740317 9.5364251452e-05 
4.7224358147e-05 -6.379234321e-05 4.3431465855e-05 0.00040243791735 -0.00019718991607 -0.00021812194455 3.7970643697e-05 -9.5505438022e-05 0.00019197211047 
0.00011462407031 3.4008535509e-05 0.00014112114916 -0.00015711217841 -1.5877292083e-05 3.812670602e-05 6.2776553283e-05 0.00032959816292 0.00012123716945 
0.00030654581475 0.00094478061212 -0.00069725284676 1.4964523096e-05 0.00010424136091 0.00018623018607 0.0013997351189 0.00038531742903 -0.00059778154625 
0.00020320305785 -0.00019570618952 -2.571732037e-05 -0.00010942412726 0.00018523566894 -9.7976707227e-06 -4.8677716746e-05 1.7571602727e-05 -0.00029542285188 
1.897642634e-06 -0.00014921776421 0.0001016946891 -0.00026623174868 3.2166631595e-05 0.00022795309469 -0.00027449342787 -6.6588721507e-05 0.00033665236757 
0.0030880473737 -0.0036602823442 0.00039617963166 -0.00041176144 0.00048068378577 0.00023735741872 0.00019242975203 0.00019164989421 -0.00034611812404 
0.00011579076288 3.1421100469e-05 -0.00014347072212 -0.00022700912262 -0.00011103168852 0.00023502833826 -0.00038879277234 -0.00018325768127 0.00028033226718 
-0.0008914837799 -0.0020225323526 -0.00040948142899 -0.00052569224144 0.0012495223553 -6.8395104257e-05 6.2430146387e-05 -0.00033181200208 2.3566642954e-05 
0.00014694223739 -0.00058280892822 -0.00087800729888 -5.2183867275e-05 3.386905668e-05 -0.000284141776 0.00039553464031 0.00011029272105 -0.00030465379482 
-0.00013663898611 -0.00077341972953 0.00033007144554 -5.1348815854e-05 1.007090009e-05 5.0713725472e-05 0.00013850234156 8.2659703413e-05 -0.0001051759291 
9.3727577697e-06 3.868432007e-05 2.550556586e-06 0.0003327506688 9.3219620738e-05 1.9430683488e-05 6.3283536355e-05 3.5226522445e-06 6.7626395109e-05 
0.00022072003087 0.0001170015621 0.0001197727995 
