# vtk DataFile Version 4.2
Generated by LIGGGHTS
ASCII
DATASET POLYDATA
POINTS 70 float
-0.0167297 -0.0280329 0.0436419 0.00114726 -0.027877 0.0442643 -0.0124158 -0.0189906 0.0430658 
0.00179125 -0.0164754 0.0430197 -0.0404716 -0.00201901 0.0435443 -0.0266743 -0.00782452 0.038829 
-0.0351958 0.00642728 0.0421559 -0.0220898 0.00848717 0.0443012 -0.0141767 0.00527906 0.0385029 
-0.00453912 0.00704384 0.042463 0.011767 0.0123946 0.0437358 -0.0347448 0.020002 0.0399297 
-0.0206523 0.0216642 0.0412872 -0.00126606 0.0229166 0.0367258 0.00929926 0.0295272 0.0421363 
-0.0215365 0.0349997 0.0422174 0.00385335 -0.0379727 0.0536509 0.0106631 -0.0310549 0.0456022 
-0.0231118 -0.0286688 0.0514556 -0.0247885 -0.0202607 0.0453548 -0.0325851 -0.0137309 0.0459913 
-0.0153005 -0.0109781 0.0527702 0.010025 -0.0177292 0.0504948 0.0218138 -0.0156958 0.04884 
0.0335562 -0.015545 0.0550654 -0.0136289 -0.00103511 0.0478505 0.0228861 -0.00560288 0.0479005 
-0.0298388 0.00232323 0.0502921 0.014655 0.00143827 0.0454014 0.0286134 0.00480145 0.0467401 
-0.0331413 0.0125947 0.0529924 -0.0244637 0.018258 0.0544934 -0.0141006 0.0110944 0.0501537 
-0.00352636 0.0167159 0.0455288 0.0239672 0.0121107 0.0529767 0.0405145 0.0109638 0.0488121 
-0.0279577 0.0283328 0.046421 -0.00972017 0.028431 0.0473083 0.000548441 0.029381 0.0550964 
0.0106506 0.0209991 0.0524463 0.0339749 0.0209339 0.0496218 0.0122896 0.0379072 0.0480952 
0.0251287 0.0327131 0.0517973 -0.0107138 0.0400752 0.048357 0.00169284 0.0404313 0.0451765 
0.000984606 -0.0418242 0.063737 -0.0035641 -0.0299066 0.0556656 -0.00849883 -0.0386051 0.0630283 
-0.0135009 -0.0277799 0.0558596 0.00758347 -0.0276863 0.0554977 0.0282889 -0.0270344 0.0585087 
-0.00647783 -0.0160225 0.0566094 0.00940312 -0.0159332 0.0607611 -0.00115241 -0.00310681 0.0596509 
0.0171664 -0.00936892 0.0639038 -0.0395927 0.00442532 0.0565688 -0.0303272 0.00789268 0.063881 
-0.00760683 0.00597269 0.061818 0.0106741 0.00977158 0.0616407 0.0332426 0.00952596 0.0609831 
0.0016179 0.0116469 0.056802 -0.00814308 0.0345509 0.0582685 0.00800093 0.0409435 0.0641182 
0.0102058 -0.0363921 0.066134 -0.0339076 -0.0219492 0.0678117 -0.0087605 -0.0245595 0.0668902 
0.00352188 -0.0247968 0.066821 -0.023741 -0.0202438 0.0662964 0.0401919 -0.00716858 0.0655436 
0.0125684 0.020351 0.0692502 
VERTICES 70 140
1 0 
1 1 
1 2 
1 3 
1 4 
1 5 
1 6 
1 7 
1 8 
1 9 
1 10 
1 11 
1 12 
1 13 
1 14 
1 15 
1 16 
1 17 
1 18 
1 19 
1 20 
1 21 
1 22 
1 23 
1 24 
1 25 
1 26 
1 27 
1 28 
1 29 
1 30 
1 31 
1 32 
1 33 
1 34 
1 35 
1 36 
1 37 
1 38 
1 39 
1 40 
1 41 
1 42 
1 43 
1 44 
1 45 
1 46 
1 47 
1 48 
1 49 
1 50 
1 51 
1 52 
1 53 
1 54 
1 55 
1 56 
1 57 
1 58 
1 59 
1 60 
1 61 
1 62 
1 63 
1 64 
1 65 
1 66 
1 67 
1 68 
1 69 

POINT_DATA 70
FIELD FieldData 7
id 1 70 int
2724 2199 1075 1752 373 1933 2389 1508 421 
1331 886 2432 2012 249 1692 1872 1150 28 
716 2527 112 586 2735 1614 1563 1004 2701 
1296 2266 205 1405 1100 2586 307 1535 2779 
1924 907 2721 1616 1267 2156 1767 1092 369 
2714 1400 474 466 340 2331 2039 2556 805 
681 1964 1144 1894 973 197 1364 1642 1956 
733 455 2111 1449 2109 1627 1244 
type 1 70 int
2 2 2 2 2 2 2 2 2 
2 2 2 2 2 2 2 2 2 
2 2 2 2 2 2 2 2 2 
2 2 2 2 2 2 2 2 2 
2 2 2 2 2 2 2 2 2 
2 2 2 2 2 2 2 2 2 
2 2 2 2 2 2 2 2 2 
2 2 2 2 2 2 2 
i 3 70 int
0 0 0 0 0 0 0 0 0 
0 0 0 0 0 0 0 0 0 
0 0 0 0 0 0 0 0 0 
0 0 0 0 0 0 0 0 0 
0 0 0 0 0 0 0 0 0 
0 0 0 0 0 0 0 0 0 
0 0 0 0 0 0 0 0 0 
0 0 0 0 0 0 0 0 0 
0 0 0 0 0 0 0 0 0 
0 0 0 0 0 0 0 0 0 
0 0 0 0 0 0 0 0 0 
0 0 0 0 0 0 0 0 0 
0 0 0 0 0 0 0 0 0 
0 0 0 0 0 0 0 0 0 
0 0 0 0 0 0 0 0 0 
0 0 0 0 0 0 0 0 0 
0 0 0 0 0 0 0 0 0 
0 0 0 0 0 0 0 0 0 
0 0 0 0 0 0 0 0 0 
0 0 0 0 0 0 0 0 0 
0 0 0 0 0 0 0 0 0 
0 0 0 0 0 0 0 0 0 
0 0 0 0 0 0 0 0 0 
0 0 0 
v 3 70 double
0.057991831406 0.04510257535 -0.21796262871 0.058493882613 -0.10183968346 -0.19510733395 -0.10525056252 0.046057256829 -0.27833252091 
0.00088266020011 0.080258194121 -0.25380541583 -0.024985883347 0.062012371728 -0.30908331183 0.039053212428 0.09145365026 -0.32305809339 
-0.044276349373 0.070762879129 -0.22918502527 0.054334928525 -0.076929350782 -0.16799121851 0.12554731757 -0.046392936696 -0.27363921731 
0.021592053408 -0.047013171398 -0.23362860685 0.037183916817 0.099660436335 -0.1949086982 -0.020381969234 -0.077942334345 -0.28965028783 
0.096252160483 -0.054673154958 -0.35569401743 0.11237188293 -0.032269734849 -0.3034024297 -0.062744815864 -0.023530774507 -0.23688586952 
0.01911999184 0.049777426559 -0.23614060826 0.038909861655 0.041877609194 -0.10215460403 -0.071967110302 0.01974112254 -0.091981010861 
0.062190487625 0.11586695991 -0.11483935677 0.048328371214 -0.062968755377 -0.20247059566 0.014446418717 0.0083940468147 -0.25253783852 
-0.17068402839 0.016299660964 -0.13516601157 -0.032385803784 -0.017122782856 -0.087980628798 0.053135988193 0.13596787431 -0.19020262302 
0.026424664146 -0.08730589083 0.01228432001 -0.048221089121 -0.014576660766 -0.19637353073 -0.066752206252 -0.0084634428702 -0.18142532342 
-0.1080462385 0.085276549085 -0.15465036751 0.0429205744 0.081886355321 -0.12735384876 0.064086369578 0.014390490755 -0.12427244534 
0.20308374871 0.098468301975 -0.28135660751 0.17109340635 -0.022716750641 -0.21514277183 -0.11697450074 -0.064204518614 -0.17444455248 
0.05488702436 0.049586095013 -0.22279248739 0.15922684093 -0.13041415429 -0.098384984955 0.029588897569 -0.0054880613307 -0.13201874891 
-0.025375494567 0.071617267957 -0.18142348335 -0.024212896249 -0.038365166127 -0.22754905287 0.034616377428 0.10659216487 -0.10194884658 
0.14408054899 0.035224534729 -0.14152320374 0.12727225671 0.039147122861 -0.13276354031 0.13563868248 -0.025455846979 -0.1555388032 
-0.052603290538 0.011144008166 -0.0082603849004 0.01592355019 -0.056869422103 -0.14224834064 0.11163937884 0.041938559693 -0.12929122981 
-0.07849627097 -0.092864723717 -0.13226052814 0.13548920981 0.1918367153 -0.089835836673 -0.015889682525 0.013584200723 -0.045040127685 
0.022390955273 0.050650329604 -0.056749244802 -0.00077467952325 0.049231807906 -0.10366093335 -0.02657436028 0.14047329925 -0.030193239584 
-0.15151947628 -0.0083972120466 -0.20103614267 -0.27901181686 -0.065909298377 -0.098444968362 -0.27421068433 0.055436388519 -0.15561633582 
-0.18453911449 0.13851777243 0.080182236639 0.033166694912 -0.12987005635 -0.15134653157 -0.29683418269 -0.13847853038 -0.12249319465 
-0.035191462433 0.17005700848 -0.037850978626 -0.098802095249 0.01389763186 -0.01326201096 0.0059572244032 0.11380793493 -0.0097874909191 
-0.073026025875 0.015288200576 -0.12608546023 -0.10471264175 -0.089660682248 -0.082248735358 -0.081863454012 0.1563099091 -0.07055635224 
0.14274373978 0.016011012202 0.014803553657 -0.11714856499 -0.1606346933 0.06103506255 -0.19532459627 -0.13008866581 0.19196355519 
0.046922464303 0.18370705202 -0.0070805789322 -0.17061018064 -0.095277287893 -0.0011049691212 -0.19075474968 -0.084477309961 -0.074779889524 
-0.067415585441 -0.080362865573 0.065425769141 
f 3 70 double
0 0 -0.0012841259972 0 0 -0.0012841259972 0 0 -0.0012841259972 
0 0 -0.0012841259972 0 0 -0.0012841259972 0 0 -0.0012841259972 
0 0 -0.0012841259972 0 0 -0.0012841259972 0 0 -0.0012841259972 
0 0 -0.0012841259972 0 0 -0.0012841259972 0 0 -0.0012841259972 
0 0 -0.0012841259972 0 0 -0.0012841259972 0 0 -0.0012841259972 
0 0 -0.0012841259972 0 0 -0.0012841259972 0 0 -0.0012841259972 
0 0 -0.0012841259972 0 0 -0.0012841259972 0 0 -0.0012841259972 
0 0 -0.0012841259972 0 0 -0.0012841259972 0 0 -0.0012841259972 
0 0 -0.0012841259972 0 0 -0.0012841259972 0 0 -0.0012841259972 
0 0 -0.0012841259972 0 0 -0.0012841259972 0 0 -0.0012841259972 
0 0 -0.0012841259972 0 0 -0.0012841259972 0 0 -0.0012841259972 
0 0 -0.0012841259972 0 0 -0.0012841259972 -0.11070924693 -0.032273873769 -0.0013774257463 
0 0 -0.0012841259972 0 0 -0.0012841259972 0 0 -0.0012841259972 
0 0 -0.0012841259972 0 0 -0.0012841259972 -0.20459053726 0.28216747792 0.054233945503 
0 0 -0.0012841259972 0 0 -0.0012841259972 0 0 -0.0012841259972 
0 0 -0.0012841259972 0 0 -0.0012841259972 0 0 -0.0012841259972 
0 0 -0.0012841259972 0 0 -0.0012841259972 0 0 -0.0012841259972 
0 0 -0.0012841259972 0 0 -0.0012841259972 0 0 -0.0012841259972 
0 0 -0.0012841259972 0 0 -0.0012841259972 0 0 -0.0012841259972 
0 0 -0.0012841259972 0 0 -0.0012841259972 0 0 -0.0012841259972 
0 0 -0.0012841259972 0 0 -0.0012841259972 0 0 -0.0012841259972 
0 0 -0.0012841259972 0 0 -0.0012841259972 0 0 -0.0012841259972 
0 0 -0.0012841259972 0 0 -0.0012841259972 0 0 -0.0012841259972 
0 0 -0.0012841259972 
radius 1 70 double
0.005 0.005 0.005 0.005 0.005 0.005 0.005 0.005 0.005 
0.005 0.005 0.005 0.005 0.005 0.005 0.005 0.005 0.005 
0.005 0.005 0.005 0.005 0.005 0.005 0.005 0.005 0.005 
0.005 0.005 0.005 0.005 0.005 0.005 0.005 0.005 0.005 
0.005 0.005 0.005 0.005 0.005 0.005 0.005 0.005 0.005 
0.005 0.005 0.005 0.005 0.005 0.005 0.005 0.005 0.005 
0.005 0.005 0.005 0.005 0.005 0.005 0.005 0.005 0.005 
0.005 0.005 0.005 0.005 0.005 0.005 0.005 
omega 3 70 double
-14.012696496 2.9380185333 3.7184141713 9.4898586365 4.5947827495 9.9705560362 -12.752772824 -4.9418975375 10.081406676 
1.3238644195 -11.833220932 8.4542322084 10.305982095 -16.94512923 -1.1132682151 6.2672495142 -48.074200814 6.8099090407 
6.1293931272 8.1410261036 -5.4560289884 9.5161513516 -1.8566226555 9.2509401873 7.5633720607 11.894916911 -6.819157992 
10.376193431 -17.115025055 -13.602116154 -6.3689525928 2.5230898649 -15.897896679 10.105175138 19.767898518 0.1564057584 
-1.4132832701 10.197518463 5.8290761438 -10.923771946 1.2519033258 -8.789029796 -14.680658234 0.66023747169 -6.4718199253 
19.511159392 15.160628383 -3.2194300504 -10.206500364 -24.674219829 14.450427492 28.789644669 -20.137756175 -4.1684195895 
1.3565124667 10.844646828 -13.448051252 -9.776428442 -12.467695115 -5.7925129051 -35.174844179 25.877124068 -5.0033260894 
32.431516274 -11.008327857 0.34668323444 -21.313527058 2.6255095964 -15.894799737 -5.018035682 -3.0836589301 6.7996124384 
-35.445606504 3.3902951783 33.757772386 -12.89874283 -1.9798471457 -6.9326399717 10.109132752 -20.736535699 3.164730801 
-50.274834263 -11.307137427 0.084782759901 7.7608567147 8.5290332028 -0.64896381822 -7.4273333185 0.086651204463 47.869704013 
-56.6072429 9.1198020491 7.5631726637 4.9049738934 -23.751986461 3.2822642529 21.866988121 23.2814996 -1.1213758289 
-3.9924158994 -23.928355017 -8.3940847837 -6.8462566033 -5.6676580399 -31.372033981 21.27311513 -4.7637226638 -40.117573769 
-5.5009922009 13.201578727 -11.324966038 -13.336923374 -12.368237307 -13.73299412 11.518742025 0.83891897557 19.51236477 
6.2706779921 13.364510162 -6.8115421284 -6.3542450404 -6.4932829587 -11.439806371 29.53470993 2.0860423764 -16.929343905 
-0.56832410981 -19.402802978 24.494097571 13.712253914 -9.0304089184 8.1503008254 -18.754875709 17.306463168 15.208943194 
-12.136599383 -20.560841683 22.513780286 -10.895355345 22.017364838 39.889068083 27.140707779 2.0164271969 12.533079496 
-1.8962713712 20.183257112 -6.7841929094 -9.463005957 -12.398647684 26.01483348 -3.669767084 15.419330276 -5.0544688161 
-18.40434926 2.9167006847 -23.490858694 -5.9780264438 -18.687935209 2.8837094367 33.345430897 -40.93869194 -50.276307525 
-12.2961203 -17.90242883 -0.79280921973 -5.5893509983 1.1966672175 -3.4824941009 12.805884737 -17.781143305 -19.051722434 
-5.5298354436 -50.643380489 -3.639386648 24.574964802 27.120048772 -67.261907505 9.6643179069 -12.782517475 -2.2066935378 
-7.1483144825 14.664099349 -1.9015794647 -1.3033880545 11.712182305 -12.281689131 33.708957262 -7.6863808675 21.53344077 
-4.2067046912 -37.51805713 -15.049639406 -30.328093099 72.843970403 -22.447719251 -30.315341906 25.465548852 10.89560181 
-1.5233967521 -27.203636495 -10.755068213 -26.772594656 18.969762349 47.128041259 40.418876853 31.943407889 -10.053478996 
1.1734669706 13.024342407 36.479269119 
