# vtk DataFile Version 4.2
Generated by LIGGGHTS
ASCII
DATASET POLYDATA
POINTS 70 float
0.0151481 -0.0386524 0.0422145 -0.00739207 -0.027022 0.0435017 -0.0372684 -0.0183683 0.044255 
-0.0111202 -0.0175264 0.0446113 0.00888804 -0.0180196 0.043601 -0.0395326 -0.00674358 0.0435756 
0.0226111 -0.00879045 0.0431836 -0.0331279 0.00589788 0.0435446 -0.0263034 0.024061 0.0442287 
0.0331687 0.0256492 0.0438806 -0.00492145 0.0308484 0.0454096 -0.00433228 -0.0411051 0.0475641 
0.00907409 -0.040908 0.0537511 -0.0263195 -0.0311305 0.0490371 -0.0133411 -0.0347681 0.0503348 
0.00431666 -0.0347128 0.0463898 -0.0171535 -0.0258618 0.04729 0.0135756 -0.0261394 0.0473682 
0.0291835 -0.0262518 0.0474062 -0.0300348 -0.0100226 0.0458918 -0.0208854 -0.0115377 0.0505408 
0.00390452 -0.0163584 0.0522626 0.0209375 -0.017011 0.0487305 0.0286346 -0.0101587 0.0546084 
0.0357977 -0.0170363 0.0512746 -0.0271273 -0.000605586 0.0507923 -0.00458132 -0.00730922 0.0505365 
0.00570636 -0.00623575 0.0456429 0.0105821 -0.0078752 0.0556007 0.0243808 -0.00166755 0.0512994 
0.0406434 -0.00759241 0.0536348 -0.0410985 0.00483862 0.0524602 -0.0181034 0.00526343 0.0472367 
0.0136201 0.000168503 0.049895 0.0186662 0.00909178 0.0493249 0.0349258 0.00111321 0.0552623 
0.0410393 0.00769095 0.0492903 -0.037532 0.0150105 0.0505668 -0.0252716 0.0125183 0.0455819 
-0.0139973 0.0144975 0.048138 -0.00321589 0.016697 0.0485241 0.0287314 0.0120326 0.0490703 
0.0372186 0.0177078 0.0500264 -0.0165963 0.0270088 0.0469606 -0.00940855 0.0262256 0.0552936 
0.0169456 0.0239482 0.0474615 0.0277253 0.0238126 0.0539483 -0.0227735 0.0348295 0.052595 
-0.0139387 0.037693 0.0479995 0.00442158 0.0314579 0.052896 0.0151018 0.0377779 0.0479526 
0.023682 0.031469 0.0466992 0.00364911 0.0416079 0.048235 -0.00295315 -0.0401736 0.0579451 
0.0219984 -0.0355008 0.056442 -0.0298508 -0.0206997 0.0566395 -0.0289205 -0.0286149 0.0639867 
0.00355406 -0.0265723 0.0582139 0.0236197 -0.0219637 0.0615669 -0.0188721 -0.019846 0.0579292 
-0.00624399 -0.0161152 0.0588761 0.00280177 -0.013982 0.0625809 -0.0124342 -0.00549633 0.0583371 
-0.0323266 0.00957774 0.0587987 0.0158812 0.00371514 0.0590378 -0.0244858 0.0177643 0.0565803 
0.0194328 0.0362034 0.0583508 0.0279996 0.0312011 0.0650985 0.00826494 -0.0393508 0.0686756 
-0.0199527 0.0344167 0.0650578 
VERTICES 70 140
1 0 
1 1 
1 2 
1 3 
1 4 
1 5 
1 6 
1 7 
1 8 
1 9 
1 10 
1 11 
1 12 
1 13 
1 14 
1 15 
1 16 
1 17 
1 18 
1 19 
1 20 
1 21 
1 22 
1 23 
1 24 
1 25 
1 26 
1 27 
1 28 
1 29 
1 30 
1 31 
1 32 
1 33 
1 34 
1 35 
1 36 
1 37 
1 38 
1 39 
1 40 
1 41 
1 42 
1 43 
1 44 
1 45 
1 46 
1 47 
1 48 
1 49 
1 50 
1 51 
1 52 
1 53 
1 54 
1 55 
1 56 
1 57 
1 58 
1 59 
1 60 
1 61 
1 62 
1 63 
1 64 
1 65 
1 66 
1 67 
1 68 
1 69 

POINT_DATA 70
FIELD FieldData 7
id 1 70 int
2199 2586 373 2527 1563 466 1616 1100 28 
1627 205 455 681 2714 1508 2266 1150 586 
1752 307 474 2701 1449 1400 2109 1924 2111 
1933 1004 1956 907 1267 2389 1364 973 805 
2331 1405 1692 2156 1244 2779 340 1075 1767 
1894 1614 2556 1964 2735 1535 1642 249 1296 
2432 2012 716 2721 2724 733 421 1872 197 
112 369 1092 2039 886 1331 1144 
type 1 70 int
2 2 2 2 2 2 2 2 2 
2 2 2 2 2 2 2 2 2 
2 2 2 2 2 2 2 2 2 
2 2 2 2 2 2 2 2 2 
2 2 2 2 2 2 2 2 2 
2 2 2 2 2 2 2 2 2 
2 2 2 2 2 2 2 2 2 
2 2 2 2 2 2 2 
i 3 70 int
0 0 0 0 0 0 0 0 0 
0 0 0 0 0 0 0 0 0 
0 0 0 0 0 0 0 0 0 
0 0 0 0 0 0 0 0 0 
0 0 0 0 0 0 0 0 0 
0 0 0 0 0 0 0 0 0 
0 0 0 0 0 0 0 0 0 
0 0 0 0 0 0 0 0 0 
0 0 0 0 0 0 0 0 0 
0 0 0 0 0 0 0 0 0 
0 0 0 0 0 0 0 0 0 
0 0 0 0 0 0 0 0 0 
0 0 0 0 0 0 0 0 0 
0 0 0 0 0 0 0 0 0 
0 0 0 0 0 0 0 0 0 
0 0 0 0 0 0 0 0 0 
0 0 0 0 0 0 0 0 0 
0 0 0 0 0 0 0 0 0 
0 0 0 0 0 0 0 0 0 
0 0 0 0 0 0 0 0 0 
0 0 0 0 0 0 0 0 0 
0 0 0 0 0 0 0 0 0 
0 0 0 0 0 0 0 0 0 
0 0 0 
v 3 70 double
-0.0037633497847 -0.099784727218 0.21376551845 -0.081520705464 -0.03779009499 0.053098792059 -0.22351404938 -0.026017166567 0.12281428653 
0.13404416653 -0.015557453719 0.051940860018 0.060367988013 0.046924964777 0.27853561865 0.086040858712 -0.044772997571 0.20358088299 
0.068814948652 -0.10273460712 0.031265563841 0.0077861596684 0.072910269906 0.28167773607 0.14333660923 -0.19933176819 0.095133374915 
-0.020891162342 0.16643354214 0.18123151478 -0.12147950524 -0.018922259776 0.13597174695 -0.12351654707 0.059190586201 0.2993811336 
-0.16591877482 0.031232892508 -0.066556661478 -0.057335506874 0.069531334691 0.34437886231 -0.26384414636 -0.057718907928 0.31269872142 
-0.1193763147 0.12284458909 0.30818629798 0.011382192654 -0.052692793272 0.16462877649 -0.12883605451 -0.038885817061 0.26022251134 
-0.14391276569 -0.15371473716 0.31213444335 0.079403822799 0.081819321952 0.12085175328 -0.12372027843 0.12477075479 0.13471411858 
-0.29554401265 -0.21696593902 0.19109891494 0.042998324673 0.012131183906 -0.021015574408 -0.15077060353 0.10250283239 0.27072136691 
-0.016242103328 0.047734684743 0.37668247912 0.0085076726235 -0.15193183283 0.31399674408 -0.0011238257761 0.080253395502 0.22991741091 
0.13246444185 0.11385328897 0.16098444096 -0.29814273028 -0.025977852889 0.14112114699 -0.00017753300257 0.0093913748061 0.17762169641 
0.07080291605 0.043671622962 0.33280712626 -0.0045388016882 0.12733462998 0.42939793099 -0.034258969848 -0.036919180449 0.17962306089 
0.00577771476 0.082678041694 0.1383315597 0.097110531411 -0.069927537923 0.19015107498 0.083783553684 0.075645786739 0.32682022064 
-0.28669408677 0.21358459223 0.30618082626 -0.03448881884 0.028574484778 0.36654764723 0.053662762194 -0.11954826991 0.14946853291 
-0.17076771288 0.094886284887 0.19799608415 -0.045803643467 0.076990250964 0.29431188105 0.027256679971 0.090935110166 0.21024891362 
-0.20567180956 0.026829773947 0.24517405351 -0.17362919606 -0.15320305968 0.079491964812 -0.10762917345 0.050056816036 0.42915041935 
0.21071069959 -0.13814690258 0.13910404149 -0.096198721806 -0.30495488414 -0.092811086404 0.14575047104 -0.094610581161 0.4390037227 
0.0084010342335 0.11836412509 0.12499037906 -0.045693163085 0.25786482811 0.42700533773 -0.1438457907 -0.087944811473 0.16399329388 
0.12378293756 0.082838029715 0.090365392417 0.0084913250926 0.095855860843 0.25848755859 -0.17917480019 0.12124796852 0.2258316676 
-0.22907478689 -0.18069229908 0.33552184753 0.14982575714 0.0056333108292 0.14145467958 -0.18790578791 -0.17380793964 -0.11103399904 
0.28038662472 0.23550355839 0.35743644787 -0.011657595804 0.052685449473 0.25757560853 0.024997821352 0.052636122281 0.24385852419 
0.042441921344 0.088890268755 0.31830075309 0.084529037489 0.12647894644 0.2357651885 -0.33318557103 0.15829390256 0.040281394719 
0.053897720484 0.017387703609 0.30621536041 -0.11837661976 0.23157517601 0.10782535709 0.33104610561 -0.029391465364 0.11075290359 
0.014741290944 0.037789285991 0.1905666716 0.071390394288 -0.085027912068 0.36252810875 0.13618754333 0.084405794031 0.47700799646 
0.030795041484 0.13119099097 -0.42862832472 
f 3 70 double
0.0072364659484 -0.013281914667 -0.00071253199469 0 0 -0.0012841259972 0 0 -0.0012841259972 
0 0 -0.0012841259972 0 0 -0.0012841259972 0 0 -0.0012841259972 
0 0 -0.0012841259972 0 0 -0.0012841259972 0 0 -0.0012841259972 
0 0 -0.0012841259972 0 0 -0.0012841259972 0 0 -0.0012841259972 
0 0 -0.0012841259972 0 0 -0.0012841259972 0 0 -0.0012841259972 
0 0 -0.0012841259972 0 0 -0.0012841259972 0 0 -0.0012841259972 
0 0 -0.0012841259972 0 0 -0.0012841259972 0 0 -0.0012841259972 
0 0 -0.0012841259972 0 0 -0.0012841259972 0 0 -0.0012841259972 
0 0 -0.0012841259972 0 0 -0.0012841259972 0 0 -0.0012841259972 
0 0 -0.0012841259972 0 0 -0.0012841259972 0 0 -0.0012841259972 
0 0 -0.0012841259972 0 0 -0.0012841259972 0 0 -0.0012841259972 
0 0 -0.0012841259972 0 0 -0.0012841259972 0 0 -0.0012841259972 
0 0 -0.0012841259972 0 0 -0.0012841259972 0 0 -0.0012841259972 
0 0 -0.0012841259972 0 0 -0.0012841259972 0 0 -0.0012841259972 
0 0 -0.0012841259972 0 0 -0.0012841259972 0 0 -0.0012841259972 
0 0 -0.0012841259972 0 0 -0.0012841259972 0 0 -0.0012841259972 
0 0 -0.0012841259972 0 0 -0.0012841259972 0 0 -0.0012841259972 
0 0 -0.0012841259972 0 0 -0.0012841259972 0 0 -0.0012841259972 
0 0 -0.0012841259972 0 0 -0.0012841259972 0 0 -0.0012841259972 
0 0 -0.0012841259972 0 0 -0.0012841259972 0 0 -0.0012841259972 
0 0 -0.0012841259972 0 0 -0.0012841259972 0 0 -0.0012841259972 
0 0 -0.0012841259972 0 0 -0.0012841259972 0 0 -0.0012841259972 
0 0 -0.0012841259972 0 0 -0.0012841259972 0 0 -0.0012841259972 
0 0 -0.0012841259972 
radius 1 70 double
0.005 0.005 0.005 0.005 0.005 0.005 0.005 0.005 0.005 
0.005 0.005 0.005 0.005 0.005 0.005 0.005 0.005 0.005 
0.005 0.005 0.005 0.005 0.005 0.005 0.005 0.005 0.005 
0.005 0.005 0.005 0.005 0.005 0.005 0.005 0.005 0.005 
0.005 0.005 0.005 0.005 0.005 0.005 0.005 0.005 0.005 
0.005 0.005 0.005 0.005 0.005 0.005 0.005 0.005 0.005 
0.005 0.005 0.005 0.005 0.005 0.005 0.005 0.005 0.005 
0.005 0.005 0.005 0.005 0.005 0.005 0.005 
omega 3 70 double
-2.8073158822 -2.7078887089 -1.0401115436 14.530691066 -22.381943318 -30.755843583 -31.789539488 47.044596988 -13.322155899 
-2.9866354553 -7.0765476321 16.216529206 1.4113150768 19.770213534 -4.0670151005 5.9759782228 12.746650515 -2.9142877393 
-13.412805463 -4.9527031611 -21.574002466 14.205456297 -1.590732038 20.520258133 6.3656912149 8.2192279299 19.322420428 
-47.484281739 14.629018211 -28.432403815 -5.6388188913 -5.4759433091 -7.4167751761 -31.666715122 -16.961875537 13.81856561 
-0.29599524056 5.2451472563 -1.5338897571 -3.5890818423 8.6748903577 16.771580314 -45.307366618 -7.0231414744 -14.713524874 
21.24508499 8.6303950264 -13.186441363 -11.142006897 20.07501572 -34.084895168 3.3999191792 -2.060314867 -11.975835016 
-4.3711155383 5.9784697823 -5.4599523771 19.404543121 -7.9119087981 16.509736779 -4.4422300487 -13.751391219 -10.473607722 
15.930293314 2.3650062476 -3.6190666734 -5.5943877884 15.356585016 35.870828326 -2.9405268365 -41.780300943 7.4387587417 
11.058937078 -6.7056097517 -14.951217535 21.197924143 27.388819728 8.018461984 -0.70253085002 -16.836079284 10.674372745 
-19.151450479 -12.360273105 0.69581620177 -15.689360248 -9.1103605984 -26.958914983 -35.739891731 -34.582029653 4.2867160788 
44.450589878 -27.593637439 -4.8956307027 -5.4296030257 -47.936623827 -27.416247028 -3.6693154866 16.955747059 25.635637015 
33.731830238 -11.027960768 -27.395024788 1.1431172163 -17.787992059 21.028538252 45.591637549 -18.089738663 41.585823765 
-60.883593063 -26.050941107 7.6573280669 -45.573146967 25.145791436 14.302653201 -19.059504005 22.05461867 11.058067341 
-32.67838192 18.659828548 -1.555407743 38.173087862 -0.18199930643 40.845612696 -21.755890789 34.006615431 34.014364045 
-14.269066838 -27.670186516 9.9810906871 9.2959672036 4.5642783111 34.256323639 -40.910375136 -35.814776468 -21.229677409 
-5.6677952076 -4.1685159832 8.0820531948 -13.326249161 11.467252006 -3.5589030626 15.854622533 8.0806170387 1.2473467112 
18.06013338 -7.6009398208 31.827676008 24.221876657 0.031134168428 22.362750368 11.584844056 -11.748650624 -13.190150294 
-11.44530081 -5.8255363219 29.032352078 -0.046256979744 26.846177383 55.84946127 0.060253738819 1.3989371234 -0.00067285122483 
52.094252132 -0.66446610323 -35.423355412 6.5690033616 21.31591671 3.2880617176 20.628231596 -10.806292918 29.497671866 
-46.376921337 68.756939899 4.1988252886 20.562077201 31.785804835 -57.572129348 -60.385195539 42.513414752 23.388915053 
-12.991513104 -2.381214088 -9.9624463488 3.4713772576 -31.104924856 -10.614828852 -30.090816602 -37.628158409 1.7371579058 
-5.2992326616 14.633441189 0.51212103328 -56.451330453 9.044510504 -12.603636771 -16.044124329 17.037235619 -15.400223198 
22.856551351 -18.634840318 13.143590584 16.478174074 34.115804466 -1.680210055 -32.123924494 90.099620976 22.174362687 
22.120340119 13.558855638 -9.6107310283 
