# vtk DataFile Version 4.2
Generated by LIGGGHTS
ASCII
DATASET POLYDATA
POINTS 70 float
-0.0149159 -0.0205741 0.037643 -0.0197104 -0.0293673 0.0443201 0.0102777 -0.0228921 0.0404547 
-0.0344484 -0.0173221 0.0433308 -0.0207396 -0.00078792 0.0412065 0.00213277 -0.00790779 0.0433441 
0.0407851 -0.00862018 0.0434066 -0.0307575 0.00818493 0.0435565 0.000115422 0.00434186 0.0420284 
0.01726 0.00745774 0.0415224 0.0367125 0.00856115 0.043267 0.0334241 0.0179959 0.0395912 
0.0118598 0.0229088 0.0400313 0.023512 0.0269533 0.0414535 -0.0180956 -0.0369881 0.0514453 
0.0126103 -0.0391372 0.0484246 0.0206037 -0.031755 0.0513443 -0.0268275 -0.0286528 0.0518512 
-0.0139808 -0.0279059 0.05357 -0.00290319 -0.0208257 0.0459498 0.00161907 -0.0301204 0.0486541 
0.0135499 -0.0240512 0.0523745 0.0209001 -0.0203242 0.0457225 0.0342494 -0.0235815 0.0473092 
-0.0248305 -0.0133934 0.046687 -0.0125596 -0.0119939 0.0491348 -0.0405487 -0.0090456 0.0463317 
-0.0305875 -0.0097543 0.0550014 -0.00819449 -0.000722939 0.0539776 0.0319299 -0.00233057 0.0456954 
-0.0401203 0.00386302 0.0466688 -0.0247981 0.00448759 0.0546536 0.00884108 0.000329496 0.0498182 
0.0215361 0.0030765 0.051806 0.0419019 0.00127787 0.0480767 0.040077 0.00932859 0.0540699 
-0.0363633 0.0174379 0.0540847 -0.0217887 0.0190774 0.0519702 -0.00962837 0.0166508 0.0495356 
0.00355272 0.0151441 0.0489915 0.0138083 0.0122916 0.0547549 0.0343337 0.0188506 0.0529892 
0.00107642 0.0243503 0.0527334 0.0180533 0.0208528 0.0506945 0.00889766 0.0308535 0.0504232 
0.0211133 0.0362645 0.0496877 0.00503284 0.04134 0.0455319 0.00173244 -0.0388252 0.0585171 
0.0116317 -0.0348562 0.063945 -0.0195594 -0.0147499 0.0579546 0.00050463 -0.0175056 0.0619255 
0.0131914 -0.0100083 0.0577355 0.0296997 -0.0129596 0.0560489 -0.00592796 -0.00640069 0.0648469 
0.036066 -0.00325663 0.0623814 -0.0112776 0.00492982 0.0656955 -0.0168824 0.0107094 0.0557818 
0.0107502 0.0178227 0.0656158 0.0248814 0.0122047 0.0552311 -0.0292498 0.0290383 0.0567102 
-0.00848914 0.0230239 0.060581 0.0273607 0.0273915 0.0603335 -0.00579563 0.0401678 0.0572493 
-0.00253338 -0.0361373 0.0723577 0.0278791 -0.0302093 0.0661603 -0.0305114 -0.0182942 0.0676153 
0.0336957 -0.0159123 0.0665439 0.00458981 -0.005664 0.0656923 0.0228485 -0.00258887 0.0664114 
0.0212185 0.0358855 0.0713232 
VERTICES 70 140
1 0 
1 1 
1 2 
1 3 
1 4 
1 5 
1 6 
1 7 
1 8 
1 9 
1 10 
1 11 
1 12 
1 13 
1 14 
1 15 
1 16 
1 17 
1 18 
1 19 
1 20 
1 21 
1 22 
1 23 
1 24 
1 25 
1 26 
1 27 
1 28 
1 29 
1 30 
1 31 
1 32 
1 33 
1 34 
1 35 
1 36 
1 37 
1 38 
1 39 
1 40 
1 41 
1 42 
1 43 
1 44 
1 45 
1 46 
1 47 
1 48 
1 49 
1 50 
1 51 
1 52 
1 53 
1 54 
1 55 
1 56 
1 57 
1 58 
1 59 
1 60 
1 61 
1 62 
1 63 
1 64 
1 65 
1 66 
1 67 
1 68 
1 69 

POINT_DATA 70
FIELD FieldData 7
id 1 70 int
2701 1894 1692 1535 2111 586 340 1924 2527 
474 307 2586 1508 886 1563 2039 1449 2721 
455 2724 1872 2199 973 2109 716 681 466 
28 1933 1627 197 2389 1331 1004 1364 369 
1100 1267 205 2735 1150 1614 2779 421 1075 
1956 249 1400 112 373 733 2556 805 2714 
2331 2012 1244 1296 1616 1144 1767 1752 1092 
2266 2156 1405 1642 1964 907 2432 
type 1 70 int
2 2 2 2 2 2 2 2 2 
2 2 2 2 2 2 2 2 2 
2 2 2 2 2 2 2 2 2 
2 2 2 2 2 2 2 2 2 
2 2 2 2 2 2 2 2 2 
2 2 2 2 2 2 2 2 2 
2 2 2 2 2 2 2 2 2 
2 2 2 2 2 2 2 
i 3 70 int
0 0 0 0 0 0 0 0 0 
0 0 0 0 0 0 0 0 0 
0 0 0 0 0 0 0 0 0 
0 0 0 0 0 0 0 0 0 
0 0 0 0 0 0 0 0 0 
0 0 0 0 0 0 0 0 0 
0 0 0 0 0 0 0 0 0 
0 0 0 0 0 0 0 0 0 
0 0 0 0 0 0 0 0 0 
0 0 0 0 0 0 0 0 0 
0 0 0 0 0 0 0 0 0 
0 0 0 0 0 0 0 0 0 
0 0 0 0 0 0 0 0 0 
0 0 0 0 0 0 0 0 0 
0 0 0 0 0 0 0 0 0 
0 0 0 0 0 0 0 0 0 
0 0 0 0 0 0 0 0 0 
0 0 0 0 0 0 0 0 0 
0 0 0 0 0 0 0 0 0 
0 0 0 0 0 0 0 0 0 
0 0 0 0 0 0 0 0 0 
0 0 0 0 0 0 0 0 0 
0 0 0 0 0 0 0 0 0 
0 0 0 
v 3 70 double
-0.047061867483 -0.033359853868 -0.29123716433 -0.068693312621 0.065158184655 -0.13393600182 -0.012299317594 -0.021183754659 -0.26977194906 
-0.083276576205 0.13268175593 -0.21126181399 -0.041499955864 0.16868432706 -0.27637101144 -0.030853318437 0.023562603265 -0.17254018639 
0.17256104768 0.026268780507 -0.22877827759 -0.026711715266 -0.20330763271 -0.34409040277 -0.0042367371185 -0.067844387206 -0.23253274078 
-0.082372022346 -0.099044555663 -0.290420649 0.13556551313 -0.026520068473 -0.24373942508 -0.032771702061 -0.063060164028 -0.28615068677 
-0.034312674505 0.042525844596 -0.25346383526 0.0047447617481 -0.083687717332 -0.22973334596 -0.074388169611 0.021474744306 -0.11726155965 
-0.033550232183 0.15135951606 -0.14876932546 -0.018522656983 -0.17773279449 -0.13728359641 -0.068377934385 0.17804427466 -0.34889786889 
-0.056615899109 0.11061697278 -0.080248191494 0.077966472329 -0.073334555385 -0.13234428001 0.054595381174 -0.12853625247 -0.15399481553 
0.27268954936 -0.091709693479 -0.25120944694 -0.14870593715 -0.066711099564 -0.18617285423 -0.014845590436 -0.0098809934398 -0.092445718632 
0.025252017313 0.054783818333 -0.27030289872 -0.026613641184 0.081797712504 -0.14544163053 0.002630668423 -0.01479021537 -0.2208808313 
-0.032824148579 0.0013239818705 -0.18278534012 0.097504135591 -0.12412632856 -0.087080124721 0.053087423832 -0.13691987206 -0.14345683169 
0.0021902611516 0.087199569454 -0.05833220015 -0.0068146485016 0.0015072529984 -0.080128951608 -0.070332681625 0.025030112 -0.23361953748 
0.11584658524 0.054581287717 -0.20087738023 0.026369157217 0.021442750019 -0.15929948378 -0.016431527857 -0.11885802439 -0.2212300549 
0.036756703935 -0.084584967292 -0.086954344226 0.10010100337 0.031773371086 -0.15721884197 0.061135037288 -0.027128254517 -0.16659088541 
0.062374986498 0.13719926327 -0.11939319401 0.14325281613 0.1261044991 -0.15304829989 0.11383370154 -0.050133956206 -0.28598164623 
0.0049991213641 -0.13126127271 -0.058657041462 0.016546017466 0.12548401018 -0.07348818661 0.01025816225 0.097198934094 -0.1447649387 
-0.047165834713 -0.1132933541 -0.20199942069 -0.031997798143 0.088785502741 -0.18948173159 0.13478068911 0.12557856767 -0.032065343993 
-0.027641801262 0.001757481564 0.06094585261 -0.089539029407 0.29779938632 -0.18380855877 0.048341159496 0.2240246911 -0.17216094062 
-0.092266835062 0.13673423129 -0.037279699188 -0.059643287058 -0.036676000037 0.027214025982 -0.0035722517991 0.035576782531 0.086501106282 
-0.20672565982 0.17708730091 -0.10304316976 -0.13882113697 -0.13396192671 0.067947508173 -0.14511929853 0.014036511543 -0.012294993882 
-0.011045602665 0.039113321486 0.079271312211 0.026787949868 0.016490497857 -0.23827521426 0.0060987489087 0.017793083109 -0.0078273403992 
0.013112736479 -0.099340644154 -0.060395831883 -0.13186061095 -0.1043823186 -0.1225423252 0.12348684229 -0.07051788857 0.049155257168 
-0.1232612885 -0.053317786303 0.10685390349 0.12499333963 -0.18323594878 -0.010207510416 -0.14854131809 -0.10304663576 0.01776456041 
-0.081191023946 0.07827952101 0.036868168876 -0.034846884966 0.1523198012 -0.10464623283 -0.15284728209 0.22015204934 -0.025905778461 
0.09882220043 -0.081659416975 0.11719862195 
f 3 70 double
0 0 -0.0012841259972 0 0 -0.0012841259972 0 0 -0.0012841259972 
0 0 -0.0012841259972 0 0 -0.0012841259972 0 0 -0.0012841259972 
0 0 -0.0012841259972 0 0 -0.0012841259972 0 0 -0.0012841259972 
0 0 -0.0012841259972 0 0 -0.0012841259972 0 0 -0.0012841259972 
0 0 -0.0012841259972 0 0 -0.0012841259972 0 0 -0.0012841259972 
0 0 -0.0012841259972 0 0 -0.0012841259972 0 0 -0.0012841259972 
0 0 -0.0012841259972 0 0 -0.0012841259972 0 0 -0.0012841259972 
0 0 -0.0012841259972 0 0 -0.0012841259972 0 0 -0.0012841259972 
0 0 -0.0012841259972 0 0 -0.0012841259972 0 0 -0.0012841259972 
0 0 -0.0012841259972 0 0 -0.0012841259972 0 0 -0.0012841259972 
0 0 -0.0012841259972 0 0 -0.0012841259972 0 0 -0.0012841259972 
0 0 -0.0012841259972 0 0 -0.0012841259972 0 0 -0.0012841259972 
0 0 -0.0012841259972 0 0 -0.0012841259972 0 0 -0.0012841259972 
0 0 -0.0012841259972 0 0 -0.0012841259972 0 0 -0.0012841259972 
0 0 -0.0012841259972 0 0 -0.0012841259972 0 0 -0.0012841259972 
0 0 -0.0012841259972 0 0 -0.0012841259972 0 0 -0.0012841259972 
0 0 -0.0012841259972 0 0 -0.0012841259972 0 0 -0.0012841259972 
0 0 -0.0012841259972 0 0 -0.0012841259972 0 0 -0.0012841259972 
0 0 -0.0012841259972 0 0 -0.0012841259972 0 0 -0.0012841259972 
0 0 -0.0012841259972 0 0 -0.0012841259972 0 0 -0.0012841259972 
0 0 -0.0012841259972 0 0 -0.0012841259972 0 0 -0.0012841259972 
0 0 -0.0012841259972 0 0 -0.0012841259972 0 0 -0.0012841259972 
0 0 -0.0012841259972 0 0 -0.0012841259972 0 0 -0.0012841259972 
0 0 -0.0012841259972 
radius 1 70 double
0.005 0.005 0.005 0.005 0.005 0.005 0.005 0.005 0.005 
0.005 0.005 0.005 0.005 0.005 0.005 0.005 0.005 0.005 
0.005 0.005 0.005 0.005 0.005 0.005 0.005 0.005 0.005 
0.005 0.005 0.005 0.005 0.005 0.005 0.005 0.005 0.005 
0.005 0.005 0.005 0.005 0.005 0.005 0.005 0.005 0.005 
0.005 0.005 0.005 0.005 0.005 0.005 0.005 0.005 0.005 
0.005 0.005 0.005 0.005 0.005 0.005 0.005 0.005 0.005 
0.005 0.005 0.005 0.005 0.005 0.005 0.005 
omega 3 70 double
-7.5546441715 6.3431532202 13.006010328 7.2970725452 -4.7110147761 5.2272519286 15.058500094 6.5059929166 -2.0953462101 
-17.180037803 -0.74979201642 3.6908245454 -18.488528289 1.3244724924 5.6594637561 0.24281168842 2.3850177651 -6.2744194603 
10.601044798 1.9652231429 -21.348239897 10.673121728 22.564126311 43.126914644 -0.79273211727 6.9239383217 -28.354152657 
5.0849511046 -11.112171018 12.881688018 -2.3860807871 0.095956936797 28.700773496 5.2158013121 -14.434073647 -2.021243377 
-1.1728865056 -18.002823938 -8.6759473859 -1.9477733578 5.5282605461 8.0078726173 -18.754572829 -34.628662684 7.0186233895 
-0.049359366225 0.10405867078 0.0039460046785 19.373940191 -1.3942317843 -36.220917822 -29.721277778 39.132561404 5.8482150024 
23.387500081 14.93838285 5.0110805301 1.9644825815 0.18420931163 -8.1995283397 -16.391066988 -7.5034993987 5.770089139 
19.790516289 38.184782701 -17.391520447 -18.533677473 5.3154746504 17.931016119 -3.8924594338 -3.3335399516 12.266806616 
1.6546219272 14.168216051 44.926089986 -2.7267049308 -15.084022961 29.7697733 4.6715068614 -20.553797463 0.011454567282 
8.1279677734 -0.40850305609 -23.344157781 10.048670012 -6.075889991 -24.342201798 -22.932919398 -21.023567741 -25.94798367 
-18.770630465 -6.3376635861 -25.638285368 18.823534823 27.527672907 -41.748195437 33.55923751 -4.0230345075 13.032738391 
-5.1309946773 -18.74178739 -4.3329124403 24.34344811 -18.017164755 -8.284907023 -22.192490769 -16.972962551 -25.853440487 
-3.8424507013 -5.0031765732 -1.5712640368 -8.1068926917 -23.682726072 -9.1205598862 -10.613288883 18.026142569 -21.544493843 
37.55222057 17.205239311 -26.84800743 25.57481881 -6.7166451238 8.3682847124 34.772042298 -4.3356961299 -8.3626023293 
-25.453982366 -19.518633443 24.099393423 -3.2115976646 -8.3430312624 1.4683897993 -12.645078861 5.2300461575 21.018830162 
27.087755914 14.421516642 22.583646586 8.7473168363 0.46585799367 -6.1392045949 -38.550883848 16.771878295 -12.863206946 
23.84146035 -15.274214169 -9.7218580011 -52.747671586 17.881461785 8.3052702268 -65.950124726 -27.994937025 -46.967177822 
-30.277087102 2.6531676158 1.6085412024 2.8617874634 9.256545987 -16.603553565 -19.260874453 -20.831200126 36.740748425 
0.47842709785 -9.4754080527 -4.7686811131 32.241972481 -13.822863097 -15.51025801 -4.40800189 16.411117359 -13.546053587 
5.1428336443 -4.2938217458 0.20885294198 -11.257783599 21.095493072 21.175284803 -8.2870064498 1.3456717567 -6.180635578 
-8.094653514 35.820412141 1.8934669698 -10.884971582 9.8362699912 -2.8847429509 -7.8319100048 0.52809707353 42.315407094 
82.641060809 34.968640203 -20.21637876 18.051129095 0.71251393518 -13.145718497 7.3897944581 -21.613358469 21.720161278 
-53.809409991 13.893531712 -6.4329499206 -6.927998229 16.610117099 21.975517698 -66.423366821 -1.9145963141 -42.517373539 
18.753992528 2.5975040366 3.3326232051 
