# vtk DataFile Version 4.2
Generated by LIGGGHTS
ASCII
DATASET POLYDATA
POINTS 70 float
-0.0173296 -0.0367346 0.0449061 -0.00712056 -0.0172585 0.0432917 0.0189631 0.00468712 0.0438247 
0.036767 0.00227154 0.0418692 -0.0297284 0.0117512 0.042787 0.0384897 0.0134015 0.0436972 
-0.0056833 -0.0411994 0.0499855 0.00360932 -0.0373873 0.0508765 0.0135168 -0.0393988 0.0465558 
0.0236671 -0.0335028 0.0535795 -0.0226372 -0.0266569 0.0468796 -0.0131517 -0.0252855 0.0509274 
0.00882036 -0.0275926 0.0485538 0.0308179 -0.0240596 0.0502676 -0.0155631 -0.0115702 0.049812 
0.0038017 -0.0172178 0.0535321 0.0247591 -0.0128215 0.0464718 0.0387682 -0.0131109 0.0508723 
-0.0314974 -0.00339422 0.049588 -0.00588496 -0.00726444 0.0453542 0.00577479 -0.006461 0.0522919 
0.0148265 -0.00656988 0.0453513 0.0261728 -0.00213902 0.0468868 0.0383251 -0.00216764 0.0532165 
-0.0397731 0.00586147 0.0482426 -0.0244139 0.00434593 0.048742 0.00040379 0.00586106 0.0451414 
0.0201796 0.00493589 0.0550201 0.0297937 0.00582546 0.0521135 -0.0256689 0.016267 0.0530439 
-0.0160241 0.0164812 0.0482521 0.00975505 0.0175553 0.0569103 0.0107707 0.0130101 0.0460396 
0.0193822 0.0150815 0.0543174 0.0349558 0.013892 0.054976 -0.0261253 0.0277451 0.0476905 
-0.0127039 0.0253111 0.0520281 -0.00449225 0.0226384 0.0461565 0.00425906 0.0270189 0.0501466 
0.0185448 0.0202043 0.0455146 0.0177055 0.0273636 0.0554063 0.0312847 0.0246728 0.0498402 
0.0023632 0.0402259 0.0493167 0.0164138 0.0379352 0.0543364 -0.00910034 0.0409393 0.0497261 
-0.00203079 -0.0388138 0.0627114 0.0131017 -0.0305787 0.0582524 -0.0302738 -0.0272407 0.057912 
-0.0235818 -0.0183749 0.0649237 -0.00677626 -0.0277422 0.0607524 0.00402281 -0.0263075 0.0584251 
-0.0309807 -0.0131696 0.0590869 -0.00875953 -0.015802 0.056841 0.0110885 -0.0137328 0.0647436 
0.0224868 -0.0152597 0.0601695 0.0324076 -0.018569 0.0588291 -0.00528776 -0.00261871 0.0609009 
0.0237373 -0.00406024 0.0604887 -0.0414466 -0.000556025 0.0640801 -0.0211029 0.00650362 0.0588092 
-0.00249599 0.00856206 0.0613669 0.0112307 0.00199759 0.0584465 -0.0107608 0.0130442 0.0574127 
0.0305403 0.0187201 0.065445 -0.0251217 0.0294417 0.0583295 0.00831935 0.0353189 0.0626722 
0.0234191 0.0312717 0.0676476 0.0385016 -0.00324237 0.0676658 -0.023682 0.0202667 0.0661754 
-0.0192309 0.0337469 0.0727865 
VERTICES 70 140
1 0 
1 1 
1 2 
1 3 
1 4 
1 5 
1 6 
1 7 
1 8 
1 9 
1 10 
1 11 
1 12 
1 13 
1 14 
1 15 
1 16 
1 17 
1 18 
1 19 
1 20 
1 21 
1 22 
1 23 
1 24 
1 25 
1 26 
1 27 
1 28 
1 29 
1 30 
1 31 
1 32 
1 33 
1 34 
1 35 
1 36 
1 37 
1 38 
1 39 
1 40 
1 41 
1 42 
1 43 
1 44 
1 45 
1 46 
1 47 
1 48 
1 49 
1 50 
1 51 
1 52 
1 53 
1 54 
1 55 
1 56 
1 57 
1 58 
1 59 
1 60 
1 61 
1 62 
1 63 
1 64 
1 65 
1 66 
1 67 
1 68 
1 69 

POINT_DATA 70
FIELD FieldData 7
id 1 70 int
2724 2111 2586 2701 1144 205 716 2527 474 
2199 1933 455 28 805 112 1331 681 340 
1924 2266 1075 1563 1616 1535 466 1964 1364 
2039 1614 2012 2389 1752 2721 886 2779 1405 
1244 1100 1894 2556 1642 369 249 907 1872 
586 1449 2432 733 421 197 2714 1004 2735 
2109 2331 1150 1400 1508 307 1767 1692 973 
1267 373 1092 1956 1627 1296 2156 
type 1 70 int
2 2 2 2 2 2 2 2 2 
2 2 2 2 2 2 2 2 2 
2 2 2 2 2 2 2 2 2 
2 2 2 2 2 2 2 2 2 
2 2 2 2 2 2 2 2 2 
2 2 2 2 2 2 2 2 2 
2 2 2 2 2 2 2 2 2 
2 2 2 2 2 2 2 
i 3 70 int
0 0 0 0 0 0 0 0 0 
0 0 0 0 0 0 0 0 0 
0 0 0 0 0 0 0 0 0 
0 0 0 0 0 0 0 0 0 
0 0 0 0 0 0 0 0 0 
0 0 0 0 0 0 0 0 0 
0 0 0 0 0 0 0 0 0 
0 0 0 0 0 0 0 0 0 
0 0 0 0 0 0 0 0 0 
0 0 0 0 0 0 0 0 0 
0 0 0 0 0 0 0 0 0 
0 0 0 0 0 0 0 0 0 
0 0 0 0 0 0 0 0 0 
0 0 0 0 0 0 0 0 0 
0 0 0 0 0 0 0 0 0 
0 0 0 0 0 0 0 0 0 
0 0 0 0 0 0 0 0 0 
0 0 0 0 0 0 0 0 0 
0 0 0 0 0 0 0 0 0 
0 0 0 0 0 0 0 0 0 
0 0 0 0 0 0 0 0 0 
0 0 0 0 0 0 0 0 0 
0 0 0 0 0 0 0 0 0 
0 0 0 
v 3 70 double
-0.086202743559 -0.028387660853 -0.057162730681 0.076760262803 -0.0087861744042 -0.12835614985 -0.023690333241 -0.016772153301 -0.057143063948 
-0.062059211591 0.020364284748 -0.10682960819 0.041310635212 -0.038863841575 -0.037194640229 0.0089925337378 -0.12005842649 -0.10306607952 
0.040930215862 -0.085510662519 0.050054689717 0.04223829535 -0.079149442351 0.041885115418 0.0340466137 0.061541094681 0.054074705369 
0.0082062692065 0.024915423466 0.15677258258 0.28725017472 -0.018614012487 -0.06331231004 -0.062641993995 0.12472221009 -0.22532048006 
-0.092459084956 0.055567400582 0.079589416675 -0.01148182079 -0.1650937544 -0.074119140147 0.048939920092 -0.053910337797 0.038910229679 
-0.00020926115799 -0.10805833264 0.028538594679 -0.011852826654 -0.023373801852 -0.060181087429 0.11734553897 -0.10475309186 -0.12921148731 
-0.022166665305 -0.036745861632 0.045840307977 0.13365783023 0.11829876074 -0.07527950477 -0.16097329507 0.027059943442 0.005813145809 
0.092846714005 0.11872763817 0.053100285446 -0.00032657444213 0.014107854792 -0.022614169563 0.068586958021 0.19833348835 0.075104593955 
-0.10755766914 0.028776828397 0.037053809399 -0.045859989155 0.015165743557 0.028195639798 -0.062144559434 0.074183992253 -0.029480864821 
-0.059136154288 0.21136908382 -0.09387164778 0.11667815483 0.12640099869 -0.057930833967 -0.0060439272162 0.026798168874 -0.0038994312815 
0.0274746194 -0.075652391568 0.089840979903 0.0602386321 0.015562572879 0.18897708371 0.016474593717 -0.13689570511 0.018560623863 
0.12830011093 -0.084037441448 -0.020661023987 0.19853134642 0.03477809028 -0.08719979956 0.153505037 0.10551760426 0.037584445729 
0.074010941188 -0.10112737168 0.073239082587 -0.012620271773 0.12924338837 -0.015402369944 -0.10732100265 -0.16770417392 0.10841400208 
0.0093206977924 -0.091127255898 0.030191259971 0.069348708967 0.14430901944 0.15096553467 0.040777253789 -0.081610606561 0.058892388762 
0.10025067792 0.11163821617 0.0028644699077 0.034325099546 -0.014313452496 0.04562068863 0.057032966751 0.17811391552 0.10887530105 
0.17291117073 -0.05336444129 -0.001715098963 0.0044653024975 0.17021538197 0.030634817615 0.10898123458 -0.25655757263 0.13891541804 
-0.23416663648 0.2382700878 0.070981236851 0.080930186925 0.32473365337 -0.10979346815 0.32436095841 0.079400041891 0.17481487951 
-0.048824688858 0.0080105658997 0.2244582262 -0.0095472734327 -0.03006231077 0.10332950097 -0.0062994098138 -0.08354622958 -0.041857863417 
-0.043823281508 0.076733230922 0.080796344152 0.057878729499 0.069089697614 -0.00032507507373 0.22965349424 0.0022192497973 0.030163273165 
0.03202856373 0.21987169898 0.15610310726 0.091741922053 -0.1815655591 0.15840513413 0.086649017587 0.097408700967 -0.0036742139523 
0.0067174571026 0.30198519033 0.01100831897 0.078993090573 -0.10582812399 -0.087707161768 -0.08447558988 -0.16991457839 0.14093837576 
0.20983262635 0.14511922114 0.13681399682 -0.081284370864 -0.079489664152 0.23887230838 0.046087899366 -0.027275796899 0.20285000441 
-0.026908085655 -0.014673947976 0.26451190596 -0.027919147874 0.14960607281 0.20351444446 0.036798378515 0.12387016778 0.025364664621 
-0.14932203035 -0.10347145238 0.39694074818 
f 3 70 double
0 0 -0.0012841259972 0 0 -0.0012841259972 0 0 -0.0012841259972 
0 0 -0.0012841259972 0 0 -0.0012841259972 0 0 -0.0012841259972 
0 0 -0.0012841259972 0 0 -0.0012841259972 0 0 -0.0012841259972 
0 0 -0.0012841259972 0 0 -0.0012841259972 0 0 -0.0012841259972 
0 0 -0.0012841259972 0 0 -0.0012841259972 0 0 -0.0012841259972 
0 0 -0.0012841259972 0 0 -0.0012841259972 0 0 -0.0012841259972 
0 0 -0.0012841259972 0 0 -0.0012841259972 0 0 -0.0012841259972 
0 0 -0.0012841259972 0 0 -0.0012841259972 0 0 -0.0012841259972 
0 0 -0.0012841259972 0 0 -0.0012841259972 0 0 -0.0012841259972 
0 0 -0.0012841259972 -0.10520213709 -0.40614354898 0.0013631392684 0 0 -0.0012841259972 
0 0 -0.0012841259972 0 0 -0.0012841259972 0 0 -0.0012841259972 
0 0 -0.0012841259972 0.10520213709 0.40614354898 -0.0039313912627 0 0 -0.0012841259972 
0 0 -0.0012841259972 0 0 -0.0012841259972 0 0 -0.0012841259972 
0 0 -0.0012841259972 0 0 -0.0012841259972 0 0 -0.0012841259972 
0 0 -0.0012841259972 0 0 -0.0012841259972 0 0 -0.0012841259972 
0 0 -0.0012841259972 0 0 -0.0012841259972 0 0 -0.0012841259972 
0 0 -0.0012841259972 0 0 -0.0012841259972 0 0 -0.0012841259972 
0 0 -0.0012841259972 0 0 -0.0012841259972 0 0 -0.0012841259972 
0 0 -0.0012841259972 0 0 -0.0012841259972 0 0 -0.0012841259972 
0 0 -0.0012841259972 0 0 -0.0012841259972 0 0 -0.0012841259972 
0 0 -0.0012841259972 0 0 -0.0012841259972 0 0 -0.0012841259972 
0 0 -0.0012841259972 0 0 -0.0012841259972 0 0 -0.0012841259972 
0 0 -0.0012841259972 0 0 -0.0012841259972 0 0 -0.0012841259972 
0 0 -0.0012841259972 
radius 1 70 double
0.005 0.005 0.005 0.005 0.005 0.005 0.005 0.005 0.005 
0.005 0.005 0.005 0.005 0.005 0.005 0.005 0.005 0.005 
0.005 0.005 0.005 0.005 0.005 0.005 0.005 0.005 0.005 
0.005 0.005 0.005 0.005 0.005 0.005 0.005 0.005 0.005 
0.005 0.005 0.005 0.005 0.005 0.005 0.005 0.005 0.005 
0.005 0.005 0.005 0.005 0.005 0.005 0.005 0.005 0.005 
0.005 0.005 0.005 0.005 0.005 0.005 0.005 0.005 0.005 
0.005 0.005 0.005 0.005 0.005 0.005 0.005 
omega 3 70 double
-31.303412746 -6.0120708613 -4.0248198272 6.6168555194 -28.542969559 -14.569754988 -2.4608737386 16.166228001 0.53190774124 
-38.518868444 15.86398963 6.2439121563 14.053898891 1.6456706657 -0.85876041808 6.9031166388 -7.8092601565 -0.25668725175 
-0.2793844562 -13.174999519 15.541312458 13.309223578 13.714551418 -16.274985341 -5.5464017654 -8.1303618267 -4.5451533626 
-28.231093214 6.6592541114 7.9793097943 -27.285640714 -7.2440393886 -4.0983588789 -12.124566237 61.840414937 -6.3099520975 
2.3214812386 -3.2696304312 2.5900318814 -8.7931566676 16.329906206 -16.435654828 -8.0709300474 24.897318124 -21.692507201 
-27.323650121 2.1821287814 28.943343177 -4.3123006736 11.014633564 -15.617769359 38.890117109 -9.2259760225 2.9772722921 
17.923922039 -16.643243912 18.479599333 -3.5629186298 8.6756278877 3.0946437818 13.9843867 -12.185051922 20.414554899 
9.3159082006 -5.0866155709 2.7461527414 -1.1828521024 6.0343838497 2.43296658 23.805856423 8.6042554469 -37.277040429 
-21.637561022 -3.001622994 11.352476841 -4.8677370909 25.634294018 4.5994370159 4.3738346848 -2.8708101542 18.398080624 
-22.147429983 -21.014406334 2.0806493948 -8.0234860255 -3.676407945 -35.198538999 -4.9344633974 -3.7728854545 -0.8456280847 
11.579838597 17.067187437 8.2870284296 9.900100944 26.025961326 9.7663632194 9.4553049724 1.4791616802 -8.4800883074 
-1.4630386576 31.172861414 -25.74664146 2.3111999047 -5.6228221877 2.6751395718 3.2278682466 -35.006232468 -5.3364981771 
-17.000280434 -8.4838572659 -7.3198820339 -0.65061057032 -14.508209719 -3.7836622992 -12.192890831 18.413704738 23.61376735 
-28.765382854 0.54228933671 4.2036870753 -7.2154795892 34.468633875 -40.554408237 -17.186900223 13.321978502 -10.890895984 
18.110943632 -0.9456994123 -30.695658874 52.396185989 -5.7052051546 -18.526879879 -4.6752905227 10.792328901 8.130549646 
-21.980499962 -54.523017136 -23.777016074 3.3911632279 40.867297596 -17.113693764 16.936743228 7.1281597575 -30.074889664 
-25.56374477 -32.813935115 -2.2586508468 -38.905448359 24.03511776 -16.802236543 6.8565461391 -43.983731368 -44.535151532 
45.156833379 -53.477911211 33.042535748 -21.267730764 1.1248536062 22.914986653 9.0849411959 -2.3434371985 -15.722360019 
-10.749951343 15.69366046 -1.9019283347 -17.681210323 -12.309907468 -1.0037661212 13.78087432 9.5093176881 46.071628005 
-9.4067168842 -32.968764814 26.305651786 1.3024959262 4.6721884902 -14.512844425 6.4699238775 2.7269226333 -5.4193580337 
14.577933265 11.403913667 24.982659918 1.9978967031 24.774064126 21.602791757 -69.477524356 -16.525587481 23.841448614 
-36.788043477 42.463529256 -34.399165947 29.85143947 -5.9224560846 -13.031089401 35.640350528 23.973727243 -4.1152987193 
11.576790199 21.02530719 15.647318968 -4.9917398757 -50.420593805 72.673922948 -16.053679909 -23.441125938 -27.487713948 
29.064700197 -26.97621821 -17.417203269 
