# vtk DataFile Version 4.2
Generated by LIGGGHTS
ASCII
DATASET POLYDATA
POINTS 70 float
0.0155159 -0.0389981 0.0245196 -0.0346435 0.0157736 0.0255658 -0.0126482 -0.0225541 0.0308768 
-0.00930289 -0.0105982 0.0297825 0.000577833 -0.0113887 0.0311324 0.0273336 -0.0118258 0.0278772 
0.0346868 -0.0167544 0.0325902 0.0229806 -0.00364836 0.0319249 -0.0348262 0.00613862 0.0282481 
-0.0184708 0.00492915 0.0362889 -0.00903551 0.00259505 0.0339083 0.0419875 0.000553596 0.0311026 
-0.00446211 0.0139957 0.0326858 0.000920733 0.0346856 0.0302481 0.0101078 0.0407711 0.0288752 
-0.0107181 -0.0406223 0.0458101 0.0060251 -0.0415431 0.0456748 0.000467133 -0.0332604 0.0464866 
-0.0252314 -0.0205124 0.0414527 -0.0145038 -0.020642 0.0463378 -0.0314141 -0.0141717 0.0461084 
-0.0305619 -0.000862849 0.0371119 -0.00626784 -0.00164421 0.0425652 0.02917 -0.00343483 0.0467914 
-0.0314588 0.0090946 0.0372441 0.0164074 0.0172699 0.0424149 -0.00270352 0.0276025 0.0424709 
0.0190121 0.0254837 0.0373171 -0.00231889 -0.041873 0.051231 0.020929 -0.0364023 0.0519096 
-0.00600245 -0.0272236 0.0523633 -0.0196883 -0.0133227 0.0507881 0.0416585 -0.00385277 0.0561438 
0.0394183 0.0135811 0.0492535 0.00658633 0.0202834 0.0497769 0.0301158 0.0292439 0.0470781 
0.0101137 0.0339318 0.0506265 -0.00541302 -0.041517 0.0694622 -0.0131107 -0.00908979 0.0670043 
-0.028974 0.012975 0.0667807 0.00549169 0.0181643 0.0641423 -0.0124002 0.0334288 0.0663814 
0.0164879 -0.0381621 0.0715837 -0.0292549 -0.026182 0.0726282 0.00118617 -0.00999977 0.0738573 
0.0135623 -0.0186719 0.0669017 -0.0415561 -0.00338884 0.068221 -0.0295211 -0.00348012 0.070191 
0.0152063 -0.00292902 0.0697323 0.0351441 -0.00267624 0.0698331 -0.010579 0.000520022 0.0688351 
-0.000284155 0.00358055 0.0690842 0.0107106 0.00753053 0.0705729 -0.0374117 0.0189711 0.0707831 
0.0397267 0.0112605 0.0720944 -0.0253772 0.0226226 0.0723551 -0.0185001 0.0369397 0.0752003 
0.00561677 0.0356693 0.0724168 0.0194907 0.0367408 0.0749479 -0.00192885 -0.0400842 0.0814288 
0.0253713 -0.0309162 0.07491 -0.0102075 -0.0298958 0.0782777 -0.0329498 -0.0131967 0.0835545 
0.0108292 5.64812e-05 0.0788306 -0.0173653 0.00457436 0.0817636 -0.0375266 0.00900741 0.0744777 
0.024135 0.0118586 0.0829011 0.0406674 -0.0101772 0.0928405 0.015821 0.0199022 0.0843381 
0.017498 0.0317982 0.102529 
VERTICES 70 140
1 0 
1 1 
1 2 
1 3 
1 4 
1 5 
1 6 
1 7 
1 8 
1 9 
1 10 
1 11 
1 12 
1 13 
1 14 
1 15 
1 16 
1 17 
1 18 
1 19 
1 20 
1 21 
1 22 
1 23 
1 24 
1 25 
1 26 
1 27 
1 28 
1 29 
1 30 
1 31 
1 32 
1 33 
1 34 
1 35 
1 36 
1 37 
1 38 
1 39 
1 40 
1 41 
1 42 
1 43 
1 44 
1 45 
1 46 
1 47 
1 48 
1 49 
1 50 
1 51 
1 52 
1 53 
1 54 
1 55 
1 56 
1 57 
1 58 
1 59 
1 60 
1 61 
1 62 
1 63 
1 64 
1 65 
1 66 
1 67 
1 68 
1 69 

POINT_DATA 70
FIELD FieldData 7
id 1 70 int
44 208 732 385 912 837 398 663 467 
1438 1371 720 936 1157 595 2710 2509 1464 
1606 2267 2873 1986 2166 2790 895 1929 1751 
1782 2454 3102 2996 2640 2566 3228 2117 2149 
3209 4708 3932 3206 3841 4989 3510 4181 3475 
4482 4052 3857 5402 3364 4362 5050 4796 3909 
5377 5103 5353 3770 4610 5397 4280 4179 5509 
2252 4006 3724 3265 3057 2782 5420 
type 1 70 int
2 2 2 2 2 2 2 2 2 
2 2 2 2 2 2 2 2 2 
2 2 2 2 2 2 2 2 2 
2 2 2 2 2 2 2 2 2 
2 2 2 2 2 2 2 2 2 
2 2 2 2 2 2 2 2 2 
2 2 2 2 2 2 2 2 2 
2 2 2 2 2 2 2 
i 3 70 int
0 0 0 0 0 0 0 0 0 
0 0 0 0 0 0 0 0 0 
0 0 0 0 0 0 0 0 0 
0 0 0 0 0 0 0 0 0 
0 0 0 0 0 0 0 0 0 
0 0 0 0 0 0 0 0 0 
0 0 0 0 0 0 0 0 0 
0 0 0 0 0 0 0 0 0 
0 0 0 0 0 0 0 0 0 
0 0 0 0 0 0 0 0 0 
0 0 0 0 0 0 0 0 0 
0 0 0 0 0 0 0 0 0 
0 0 0 0 0 0 0 0 0 
0 0 0 0 0 0 0 0 0 
0 0 0 0 0 0 0 0 0 
0 0 0 0 0 0 0 0 0 
0 0 0 0 0 0 0 0 0 
0 0 0 0 0 0 0 0 0 
0 0 0 0 0 0 0 0 0 
0 0 0 0 0 0 0 0 0 
0 0 0 0 0 0 0 0 0 
0 0 0 0 0 0 0 0 0 
0 0 0 0 0 0 0 0 0 
0 0 0 
v 3 70 double
-0.0010577781665 0.0038671078965 0.19828894752 -0.0016180845972 -0.0052577318924 0.20251951924 0.0041372807718 -0.0016834273424 0.21468374022 
0.0007212755464 -0.0020226862884 0.20293423919 0.0013083389419 -0.0044805132938 0.20568607794 -0.0015894830442 0.0011153671934 0.19907372248 
0.0098306443865 -0.00042922423393 0.19628285953 -0.0012120518616 -7.0315702294e-05 0.20493210153 -0.0023951679595 -0.0075056889127 0.19722140033 
0.0076427044757 -0.00066318763776 0.21059979963 -0.010725423919 0.00059441931577 0.20437210519 -0.0041367344831 0.001998526373 0.20215375132 
0.0047884229037 -0.0044925707446 0.19956821527 -0.016946184221 -0.0013843860964 0.2091983359 -0.011368438235 -0.0041191009451 0.21376648593 
0.0069637521541 -0.016777074595 0.16957594452 -0.020665234013 -0.018094124912 0.22810435353 -0.012529023586 0.003137042184 0.23105300512 
0.051659599706 -0.019425908361 0.19687939707 0.020510172152 -0.020863162217 0.22085009837 -0.025861468894 -0.00085818262828 0.19489411918 
0.011804085135 1.444770199e-05 0.1935443274 0.01616902314 0.0057366203592 0.20576332132 0.01976281665 0.031597076081 0.24356870824 
0.0047259695236 0.014222329549 0.20376792731 -0.012976891845 0.017185350188 0.20435834138 -0.0045247910703 0.014496118065 0.21685800632 
-0.012179865972 4.3951565724e-05 0.20800204608 -0.032469598033 0.041012900606 0.26598282461 0.0016951055692 0.0076478825334 0.19209988434 
0.0077208543982 -0.00079042805324 0.20372089741 -0.018607088971 -0.054874154576 0.2477193804 0.068427037109 -0.078653757408 0.27414897836 
-0.030995549114 0.018539942459 0.22027855349 0.032152977168 -0.005633359483 0.19052236129 -0.016983640689 0.0071313470556 0.19810999561 
0.0031335984908 -0.041324364072 0.20395114908 0.049699895497 0.33509531229 0.16226172138 0.16925427058 0.098750475622 0.27540463688 
-0.023968799359 -0.031997161947 0.27599736102 0.083740313325 0.14674975656 0.35741242122 0.069538790708 -0.12025934088 0.45736866578 
0.12408162797 -0.40013514411 0.28597460367 -0.051322000048 0.11896871689 -0.38637640471 -0.086962733519 -0.12260594628 -0.0069303514954 
0.3078172936 -0.14908219696 0.089064778718 0.22441240131 -0.19714883389 -0.017915828347 0.05305587092 -0.3057022715 -0.14893865939 
0.03420928307 0.28408447879 0.2645567805 0.33589698092 0.23019492929 -0.024034512191 0.096208312049 -0.17350763346 -0.12107865239 
0.072500018568 0.35331938835 0.14172063735 -0.064286644334 0.02510878328 0.48864097298 0.097160108176 0.15452432249 0.12294263222 
-0.058274062294 0.12368419759 -0.3857278933 -0.22608112435 0.033010021482 0.42285019818 -0.25797837086 0.069002675469 0.29001934255 
-0.25824377637 -0.098896326124 -0.42234342701 -0.23144388532 -0.086029820504 0.38417056116 -0.027229962441 0.14417919664 -0.36778796608 
-0.030087062084 -0.065788704611 -0.45806968564 -0.019418743783 -0.014095234851 -0.39595303126 -0.14685822898 -0.054193320037 -0.3412837604 
-0.22667000127 0.19090976995 0.22887578703 0.11416319595 0.014252017866 -0.34501802827 -0.011441751108 -0.37863117838 -0.11872726991 
-0.26168788411 -0.1615434399 -0.39852907596 0.10509005885 0.15149799168 -0.23216729132 -0.036829986993 0.27620237545 -0.43546956849 
0.25773124226 -0.18541672112 -0.18985692067 
f 3 70 double
-0.002980135539 0.0068759534011 -0.015585248652 0.0021679748135 0.00058408975238 -5.94368189e-05 0.0030023827128 -0.0025822993948 -0.010990691381 
0.0006902880394 0.00025974759951 -0.00072967509645 0.010683838218 0.0079774185864 -0.0059296792812 0.001418740919 0.00061224613272 3.3771626446e-05 
-0.017660973672 0.016600665989 0.023382982411 0.012928907677 -0.0043569918177 0.012257168825 -0.0092544703794 0.0093979116674 0.021329250272 
0.0023404265944 -0.00026034179425 -0.0023814245527 0 0 -0.0012841259972 0.0030479523405 -0.0054972715686 -0.0029365389261 
-0.0027190605451 0.0086454586871 0.013108509206 0.0030934843564 -7.1904832368e-05 -0.00021803003273 0.0053796820923 0.0033787176419 0.0033814209904 
0.013152881037 0.049276995611 -0.0012863188696 0 0 -0.0012841259972 0 0 -0.0012841259972 
0 0 -0.0012841259972 0.0010327621625 -0.0026515187155 0.0015766937987 0 0 -0.0012841259972 
-0.011634299568 -0.082439238487 0.010187992267 -0.0068669745198 -0.005151697081 0.0097706554006 0 0 -0.0012841259972 
0.0066221413849 0.02258916027 0.0028640175679 0.0015449300544 0.0057105158676 -0.0031507537771 0 0 -0.0012841259972 
-0.00078403892442 -0.021499296836 -0.0043082342765 0 0 -0.0012841259972 0 0 -0.0012841259972 
0 0 -0.0012841259972 0 0 -0.0012841259972 0 0 -0.0012841259972 
0 0 -0.0012841259972 0.037039116874 0.024536394967 0.013874717676 -0.042106828492 -0.042106828492 -0.001282855219 
0 0 -0.0012841259972 0 0 -0.0012841259972 0 0 -0.0012841259972 
0 0 -0.0012841259972 0 0 -0.0012841259972 0 0 -0.0012841259972 
0 0 -0.0012841259972 0 0 -0.0012841259972 0 0 -0.0012841259972 
0 0 -0.0012841259972 0 0 -0.0012841259972 0 0 -0.0012841259972 
0 0 -0.0012841259972 0 0 -0.0012841259972 0 0 -0.0012841259972 
0 0 -0.0012841259972 0 0 -0.0012841259972 0 0 -0.0012841259972 
0 0 -0.0012841259972 0 0 -0.0012841259972 0 0 -0.0012841259972 
0 0 -0.0012841259972 0 0 -0.0012841259972 0 0 -0.0012841259972 
0 0 -0.0012841259972 0 0 -0.0012841259972 0 0 -0.0012841259972 
0 0 -0.0012841259972 0 0 -0.0012841259972 0 0 -0.0012841259972 
0 0 -0.0012841259972 0 0 -0.0012841259972 0 0 -0.0012841259972 
0 0 -0.0012841259972 
radius 1 70 double
0.005 0.005 0.005 0.005 0.005 0.005 0.005 0.005 0.005 
0.005 0.005 0.005 0.005 0.005 0.005 0.005 0.005 0.005 
0.005 0.005 0.005 0.005 0.005 0.005 0.005 0.005 0.005 
0.005 0.005 0.005 0.005 0.005 0.005 0.005 0.005 0.005 
0.005 0.005 0.005 0.005 0.005 0.005 0.005 0.005 0.005 
0.005 0.005 0.005 0.005 0.005 0.005 0.005 0.005 0.005 
0.005 0.005 0.005 0.005 0.005 0.005 0.005 0.005 0.005 
0.005 0.005 0.005 0.005 0.005 0.005 0.005 
omega 3 70 double
1.2788097479 -2.0648618003 -1.221247391 1.1384430776 0.25975880695 -0.050274831725 0.2487710924 2.147262347 0.52835256834 
-0.35745898123 0.33908573452 0.16023790875 -0.28545880846 -1.6635951826 1.3288422342 -0.19599804225 1.1556787915 -0.22577147753 
-1.5234749793 -1.7410591505 -1.4043373636 -0.11537781265 0.17851667696 -0.056893358802 0.026918861693 -1.2000664284 1.0263779576 
-1.411315554 -2.429607528 0.89045598105 0.859063267 -0.42315654097 -1.1655211482 0.33765141727 -0.11705457849 0.46280680627 
-0.62716386743 0.83429031901 0.42914764628 0.92847444461 -0.48566996866 0.35903151499 1.4948639709 1.0415352074 -0.50508244377 
1.9487834466 5.4053024612 9.5661063178 -2.3806340256 1.7449943221 0.28066439267 -1.5655325873 2.754612697 -3.6671042216 
-5.3584011869 -6.3376567656 0.8587518051 4.5857699718 -0.96698716193 3.2832324506 5.692211548 -7.7731220599 1.3123918055 
0.70183498707 1.1759257755 0.45460515402 -0.7720606608 2.1329682114 2.2567452829 6.0231717657 -1.5984316696 1.7539011705 
4.0578480229 -1.7752061752 -0.79096164312 1.0983079029 7.1591658131 -1.0009621984 -3.8384496503 2.71343737 0.48394264601 
0.084819357961 -0.19221716904 2.1467066844 1.889537315 17.824082158 1.7936289317 -5.5160919599 6.4082511786 9.0651347371 
-5.927701321 -6.1812254769 13.627205645 -1.0639668559 -2.2857193738 2.4440436262 1.0566442258 0.29755799043 -4.3413308275 
-4.9613893663 2.7068875101 2.9369578332 19.902352804 14.653094158 10.0286243 -4.6723067477 -0.84024418795 0.1082571078 
9.3166936956 3.464122524 -14.706928901 -7.4543288076 -7.8659035021 4.0730271146 -34.197539856 -2.2329035078 -13.254578665 
12.660894144 -22.725497777 18.244373594 -15.231532865 -8.876601313 -9.631959067 -0.59652086542 -8.1268012145 22.736250611 
-0.70868010792 29.944994134 30.617374252 -27.732433919 -11.779145811 -11.223630008 22.904117897 -39.211887987 -18.77159623 
17.029566169 -29.715116644 -7.8514080115 -26.637936284 -26.757170681 21.452624118 -12.989247031 37.938752666 19.146744026 
14.343061652 -22.546483565 20.131397748 15.736670549 -46.191779967 34.749963144 18.476805647 12.599691491 -67.902629194 
9.1834936181 17.384750927 26.829576962 33.335813463 22.23173789 -36.983347399 72.84540147 -5.9080294994 -15.385615989 
-42.846388486 20.181586041 -12.482053524 -16.491558654 -40.539114737 16.344711819 -26.008752937 -35.587980665 -6.7073860108 
19.458723025 -5.2589165157 15.080516276 -8.0100219746 25.727077253 10.431524087 15.524925441 53.123769812 8.6016394632 
13.945777789 -21.349932874 9.8132347405 67.189762294 21.497012109 60.374426533 34.722435536 12.502982896 15.74054796 
16.230158961 -19.639419993 30.874016304 -1.134492939 17.0064896 -27.453704218 72.860652888 -8.3938406409 -14.275696215 
74.722992785 1.857828238 0.81719957402 -23.564038484 -29.249704141 -2.300496736 -41.304879927 -20.4341893 1.3079947288 
11.158922371 35.059996709 -7.7548973896 
