# vtk DataFile Version 4.2
Generated by LIGGGHTS
ASCII
DATASET POLYDATA
POINTS 70 float
-0.0373033 0.015835 0.0327561 0.00694288 0.0140068 0.0314104 0.0013014 0.0261402 0.0320813 
-0.00152631 -0.041644 0.0370784 -0.0187868 -0.0351514 0.0423416 -0.00212351 -0.0319291 0.03442 
0.00721281 -0.0305017 0.0380923 0.011846 -0.0391028 0.0431889 0.0222087 -0.0340959 0.0423075 
-0.0175673 -0.0271559 0.0334581 -0.0104797 -0.0238234 0.0428474 0.0215449 -0.024339 0.037967 
-0.0228108 -0.0146861 0.0337473 -0.0231043 -0.00808652 0.0421109 0.015167 -0.0049133 0.0401305 
0.0361049 -0.00633241 0.0387895 -0.0359657 0.00677398 0.0382719 0.0387493 0.00930462 0.0399294 
-0.0121712 0.0151112 0.0359098 0.0212177 0.0140843 0.0406025 -0.0159043 0.0289374 0.0415322 
-0.00733744 0.0392338 0.0390208 0.0169887 0.0360019 0.0377814 -0.00807602 -0.03803 0.0450592 
0.00144746 -0.038352 0.0499095 0.0177686 -0.0321181 0.0540019 -0.00397849 -0.0289775 0.0491358 
0.00455686 -0.0221406 0.0494284 -0.00370836 -0.0102392 0.0491659 0.0383555 -0.0156495 0.0467688 
-0.0360291 -0.0100224 0.04624 0.0228915 -0.00825915 0.0461077 0.0319219 -0.00868993 0.0514603 
-0.0399741 0.00196411 0.0462847 -0.0289145 0.000279989 0.0436703 -0.0193539 0.00565554 0.045012 
-0.0046063 0.00264999 0.0523776 0.00384603 0.00234326 0.0445215 0.00847945 0.00791514 0.052246 
0.029424 0.000259088 0.0435911 0.0376698 0.00651778 0.0497713 -0.0333502 0.0175744 0.0500904 
-0.0185504 0.0183154 0.044467 0.0314481 0.0191598 0.0445831 -0.0290044 0.0276611 0.0530213 
-0.0143722 0.0269118 0.0515443 -0.000425893 0.0261353 0.0435855 0.0130394 0.021007 0.0523433 
0.0284381 0.029587 0.0519175 -0.0127979 0.0369692 0.052873 0.00645849 0.0398777 0.0482277 
-0.0251994 -0.03339 0.0618213 -0.0115574 -0.0374138 0.0567212 -0.0233989 -0.0214655 0.0586331 
0.0326871 -0.0215497 0.0555874 -0.0349908 -0.0187609 0.0559721 0.0147135 -0.0141887 0.0625543 
-0.0312887 -0.00880047 0.0568907 -0.0170893 -0.00636994 0.0583652 0.0414006 -0.00547504 0.0582716 
-0.0294217 0.0100178 0.057171 0.0247696 0.00458775 0.0557492 -0.0210216 0.0176169 0.0641216 
-0.00381767 0.0212351 0.0642152 0.00423487 0.0280703 0.0571593 -0.0149741 0.0383088 0.0644732 
-0.00470897 0.0326647 0.0633583 0.0134296 0.0324102 0.0574675 0.0348799 -0.00231734 0.0660296 
-0.0319451 0.0209073 0.0657012 
VERTICES 70 140
1 0 
1 1 
1 2 
1 3 
1 4 
1 5 
1 6 
1 7 
1 8 
1 9 
1 10 
1 11 
1 12 
1 13 
1 14 
1 15 
1 16 
1 17 
1 18 
1 19 
1 20 
1 21 
1 22 
1 23 
1 24 
1 25 
1 26 
1 27 
1 28 
1 29 
1 30 
1 31 
1 32 
1 33 
1 34 
1 35 
1 36 
1 37 
1 38 
1 39 
1 40 
1 41 
1 42 
1 43 
1 44 
1 45 
1 46 
1 47 
1 48 
1 49 
1 50 
1 51 
1 52 
1 53 
1 54 
1 55 
1 56 
1 57 
1 58 
1 59 
1 60 
1 61 
1 62 
1 63 
1 64 
1 65 
1 66 
1 67 
1 68 
1 69 

POINT_DATA 70
FIELD FieldData 7
id 1 70 int
962 1286 1258 281 810 1100 1010 739 858 
546 2126 364 1857 348 1064 2075 1515 1685 
447 1230 821 318 1478 1606 535 1605 1546 
1510 1983 1450 801 1721 22 668 1562 224 
1148 1350 1231 722 2083 2092 1822 1435 2095 
1335 82 183 599 1068 1176 153 851 936 
257 355 1192 1038 148 1489 982 522 1646 
2101 1962 1240 1780 657 286 1936 
type 1 70 int
2 2 2 2 2 2 2 2 2 
2 2 2 2 2 2 2 2 2 
2 2 2 2 2 2 2 2 2 
2 2 2 2 2 2 2 2 2 
2 2 2 2 2 2 2 2 2 
2 2 2 2 2 2 2 2 2 
2 2 2 2 2 2 2 2 2 
2 2 2 2 2 2 2 
i 3 70 int
0 0 0 0 0 0 0 0 0 
0 0 0 0 0 0 0 0 0 
0 0 0 0 0 0 0 0 0 
0 0 0 0 0 0 0 0 0 
0 0 0 0 0 0 0 0 0 
0 0 0 0 0 0 0 0 0 
0 0 0 0 0 0 0 0 0 
0 0 0 0 0 0 0 0 0 
0 0 0 0 0 0 0 0 0 
0 0 0 0 0 0 0 0 0 
0 0 0 0 0 0 0 0 0 
0 0 0 0 0 0 0 0 0 
0 0 0 0 0 0 0 0 0 
0 0 0 0 0 0 0 0 0 
0 0 0 0 0 0 0 0 0 
0 0 0 0 0 0 0 0 0 
0 0 0 0 0 0 0 0 0 
0 0 0 0 0 0 0 0 0 
0 0 0 0 0 0 0 0 0 
0 0 0 0 0 0 0 0 0 
0 0 0 0 0 0 0 0 0 
0 0 0 0 0 0 0 0 0 
0 0 0 0 0 0 0 0 0 
0 0 0 
v 3 70 double
0.047385004286 0.40817666303 0.079008690041 0.023773120032 -0.39530661479 0.14376366001 -0.067566421622 -0.077575828039 -0.093954702429 
0.24877485801 0.1492611498 0.14707030399 0.026360759107 0.070796648507 -0.40595693891 0.0046394498096 -0.036471905821 -0.46898948411 
0.027517703062 -0.031115078784 -0.39791156755 -0.059363331725 -0.034004036447 -0.35791538255 -0.042657312094 -0.061903204937 -0.46926252769 
0.072090714758 0.071671990052 -0.24855887224 -0.066561976337 0.059160135069 -0.40390813067 0.0018134512059 0.014768906312 -0.40231802959 
0.29020343154 0.030557150395 0.27837788118 -0.17574158321 -0.018354074613 -0.37210935879 0.1286391573 -0.086857542151 -0.34494879362 
-0.079311751262 -0.15791402906 -0.4077157278 -0.037611502435 0.049654820192 -0.43446831345 -0.026052712444 0.041165047184 -0.31686722731 
-0.017383774242 -0.015497107708 -0.43472700019 0.014515533723 0.12724020932 -0.37019749029 -0.029425106582 0.063830831017 -0.32408068693 
-0.0079882323822 -0.046813629967 -0.37588189727 0.046800928556 0.048783389872 -0.34301657241 -0.02170731464 0.028994960939 -0.42862982644 
0.073771504894 0.04419743646 -0.21159570963 0.017858213969 0.096653179682 -0.2490462874 -0.085000182448 0.1290677094 -0.33528474303 
-0.020586684804 -0.0044311405193 -0.34069680486 -0.012207377439 0.022607438467 -0.25766633335 -0.0032779115172 0.0024383673635 -0.28245884823 
-0.1420975722 -0.051789336853 -0.30000330691 0.1869879166 0.081364322201 -0.33444265666 0.039909444935 -0.014843052242 -0.23951978666 
0.019509273812 0.063179055711 -0.35357478381 -0.032858085084 -0.027154880827 -0.30835251111 -0.045805751075 -0.057020257494 -0.37925903708 
-0.00058582201555 0.048362472132 -0.27396125519 0.088030524815 -0.061944405185 -0.28675487827 -0.061258978215 0.099219378801 -0.30916479107 
-0.029662726552 0.039930360097 -0.35477198868 -0.015544893685 0.037162908645 -0.29242650466 0.14408421146 0.0038505470643 -0.25119361674 
0.075451561599 0.092933322942 -0.30740811253 -0.0036333086947 -0.071867209196 -0.26420540352 -0.14407473726 -0.031339911496 -0.3038253927 
-0.040194658675 0.029062022173 -0.31529461856 -0.08451960511 -0.0097422571894 -0.30290805023 -0.022640148152 0.16570926774 -0.21911379565 
0.086179980083 0.003064667783 -0.28910921843 -0.055406238734 0.016564275546 -0.28323000602 -0.040703107093 0.13597811533 -0.30114313406 
0.12985663075 -0.068045581457 -0.13968735258 0.098559192208 0.029826953174 -0.32580222713 0.039481255527 -0.16723899928 -0.15485940838 
-0.041299365659 -0.01446080013 -0.20095950235 -0.0017397238832 -0.20388859452 -0.22960083729 -0.02980717026 -0.15732288989 -0.17601041092 
0.046296932455 0.1144160546 -0.2262182823 0.12224931531 -0.081251082653 -0.27925979898 0.064358367709 -0.06406262857 -0.28083651994 
-0.047288747088 0.0075815115077 -0.19428762766 0.066541948976 0.14883161813 -0.22815249565 -0.19693403584 0.0042279857616 -0.13485431037 
-0.0099534784246 -0.018795716595 -0.23138012579 -0.063581019515 -0.073787760984 -0.22465276236 -0.057962394639 -0.16304515132 -0.19047691312 
0.033297228592 -0.15000016652 -0.16438262842 -0.058504977985 0.032492159986 -0.16636488095 -0.019848379632 -0.055939975076 -0.19159638505 
-0.058341609734 -0.040489120819 -0.10953657868 
f 3 70 double
0 0 -0.0012841259972 0 0 -0.0012841259972 0 0 -0.0012841259972 
0 0 -0.0012841259972 0 0 -0.0012841259972 0 0 -0.0012841259972 
0 0 -0.0012841259972 0 0 -0.0012841259972 0 0 -0.0012841259972 
0 0 -0.0012841259972 0 0 -0.0012841259972 0 0 -0.0012841259972 
0 0 -0.0012841259972 0 0 -0.0012841259972 0 0 -0.0012841259972 
0 0 -0.0012841259972 0 0 -0.0012841259972 0 0 -0.0012841259972 
0 0 -0.0012841259972 0 0 -0.0012841259972 0 0 -0.0012841259972 
0 0 -0.0012841259972 0 0 -0.0012841259972 0 0 -0.0012841259972 
0 0 -0.0012841259972 0 0 -0.0012841259972 0 0 -0.0012841259972 
0 0 -0.0012841259972 0 0 -0.0012841259972 0 0 -0.0012841259972 
0 0 -0.0012841259972 0 0 -0.0012841259972 0 0 -0.0012841259972 
0 0 -0.0012841259972 0 0 -0.0012841259972 0 0 -0.0012841259972 
0 0 -0.0012841259972 0 0 -0.0012841259972 0 0 -0.0012841259972 
0 0 -0.0012841259972 0 0 -0.0012841259972 0 0 -0.0012841259972 
0 0 -0.0012841259972 0 0 -0.0012841259972 0 0 -0.0012841259972 
0 0 -0.0012841259972 0 0 -0.0012841259972 0 0 -0.0012841259972 
0 0 -0.0012841259972 0 0 -0.0012841259972 0 0 -0.0012841259972 
0 0 -0.0012841259972 0 0 -0.0012841259972 0 0 -0.0012841259972 
0 0 -0.0012841259972 0 0 -0.0012841259972 0 0 -0.0012841259972 
0 0 -0.0012841259972 0 0 -0.0012841259972 0 0 -0.0012841259972 
0 0 -0.0012841259972 0 0 -0.0012841259972 0 0 -0.0012841259972 
0 0 -0.0012841259972 0 0 -0.0012841259972 0 0 -0.0012841259972 
0 0 -0.0012841259972 0 0 -0.0012841259972 0 0 -0.0012841259972 
0 0 -0.0012841259972 
radius 1 70 double
0.005 0.005 0.005 0.005 0.005 0.005 0.005 0.005 0.005 
0.005 0.005 0.005 0.005 0.005 0.005 0.005 0.005 0.005 
0.005 0.005 0.005 0.005 0.005 0.005 0.005 0.005 0.005 
0.005 0.005 0.005 0.005 0.005 0.005 0.005 0.005 0.005 
0.005 0.005 0.005 0.005 0.005 0.005 0.005 0.005 0.005 
0.005 0.005 0.005 0.005 0.005 0.005 0.005 0.005 0.005 
0.005 0.005 0.005 0.005 0.005 0.005 0.005 0.005 0.005 
0.005 0.005 0.005 0.005 0.005 0.005 0.005 
omega 3 70 double
-7.6374150687 -31.346507909 22.880912309 -1.396534169 25.171886479 30.982616213 -27.017197393 16.537797279 3.7711607143 
2.6964137893 11.130420373 6.2471718991 25.895936554 -8.1697058397 -9.2379297117 -6.7873182428 -1.6701237326 3.9505049221 
-3.3337288918 -12.556841892 -7.0368788683 3.8490239105 9.0039000005 -6.8739208606 0.31463157468 12.661608337 -6.9118519056 
14.296144976 15.237504616 -42.006494886 -5.0342366221 -6.1021114059 18.02195456 -14.187820495 4.0516786825 -27.083901634 
-4.6905419597 22.196664709 -17.349193294 15.47341116 -3.9689038607 -9.9161011885 -3.6317599803 25.439743922 -9.5981790665 
-24.876729997 10.691604992 1.4488463599 -13.21266191 -0.8961755864 -10.69891947 10.150400558 36.387365263 4.1943034557 
-6.4977326652 13.176294865 -0.72485234841 -7.0266500757 -12.387943452 13.98446887 -0.94934283045 1.8728690577 -0.74799676171 
20.179118986 3.4632974126 6.7695331246 -20.523517519 9.8389653885 5.8947690335 -3.4911490399 -11.976241577 2.8748569719 
2.1585831065 -20.925188404 -1.2679240196 -19.590924819 22.880326073 -23.415196889 -7.4753717004 4.8017472502 -18.19865346 
-15.585975726 7.1005767887 19.312422996 11.51064132 -3.526236712 -19.738179081 30.398212966 14.76331143 16.304718822 
-7.2267371661 -16.326118238 -34.873662904 -6.6076111762 -8.9632896882 4.568846686 -15.104015038 17.987383051 1.6204645051 
8.7970890048 -8.7160619759 -15.766780814 10.28574882 -5.798355193 -5.7660018311 3.7954971247 21.376421172 -1.6267120108 
-27.876584762 -45.31500912 5.0225801189 4.7051901178 19.096452741 -24.56758607 -18.973440108 -22.053261574 -73.223678552 
-12.751824523 26.366505179 9.9462536781 -21.813066264 8.9022458293 -10.818994044 -15.572552219 -4.1628196377 -12.992942589 
6.8790965764 7.7632942595 -16.347354003 6.0212199352 30.513474411 4.7998382585 4.0964666307 2.3496472276 26.763819091 
4.2131390655 -2.495433829 -3.2689708906 16.044345675 -6.4139255296 -24.55129764 -5.6994106586 28.365008125 -14.133831265 
19.68099734 13.732525236 -20.309590789 -2.3726478258 -7.7434891527 3.4300735809 -11.300963694 -18.564972252 -10.030972828 
-20.598055362 5.6146028256 27.75574693 35.597664285 4.2953772068 -10.939896327 26.791762848 9.3410632577 -20.103100426 
11.816989962 -8.376062318 7.2914779805 -13.398011782 -6.2436570503 4.0274373519 24.128454201 -18.915833011 7.788651651 
9.437121252 10.336202329 12.970682924 22.758657503 -0.68994164165 29.905435353 17.729705309 1.9163493972 25.79037294 
-10.999865474 -61.531617338 -4.7159447015 -16.515360886 9.0277108529 -13.812636618 -45.80927134 -36.405300314 -16.033386016 
31.816808535 -6.3004315549 -23.158611548 32.352118986 10.871207394 13.391495172 -12.810068597 28.977166013 -12.416609835 
18.41175502 -31.815256726 -13.830811083 17.305855864 4.4231265187 4.2051552515 24.132611666 -9.9117306128 -49.860986791 
-60.585336589 -19.256412881 -30.701552382 
