# vtk DataFile Version 4.2
Generated by LIGGGHTS
ASCII
DATASET POLYDATA
POINTS 70 float
0.0142472 -0.0394483 0.0177748 -0.0129313 -0.0221119 0.0245525 -0.00173173 -0.0111614 0.0230522 
0.0269116 -0.0118848 0.0201561 -0.011612 -0.0099865 0.0220588 0.0221916 -0.00402988 0.024158 
-0.0356185 0.00675696 0.0213478 -0.0320268 0.0178046 0.019564 0.00966979 0.0400892 0.0243492 
-0.0263489 -0.0205722 0.0331181 0.0337536 -0.0176895 0.0255988 -0.0305064 -0.000113472 0.0302833 
-0.0070517 -0.00180361 0.0343362 -0.0190822 0.00624949 0.0298419 -0.0102881 0.00325065 0.0261464 
0.0419097 0.00130421 0.0259362 -0.0311435 0.0103228 0.0304477 -0.00414612 0.0152978 0.0261834 
0.0186042 0.0254205 0.0305597 0.00111492 0.0350782 0.0256512 -0.00972633 -0.0408648 0.0397934 
-0.000711016 -0.0419813 0.0441444 0.00765797 -0.0412708 0.0387176 0.000951135 -0.0333351 0.0393708 
0.0243203 -0.0342274 0.0412321 -0.0140477 -0.0203321 0.0382723 -0.00802314 -0.027699 0.0427684 
-0.0309082 -0.0147956 0.0398884 -0.0211277 -0.012927 0.0408061 0.00370118 -0.0124161 0.0428522 
0.0264511 -0.00401263 0.0379898 0.0417272 -0.00454017 0.0450884 0.00967706 0.0185473 0.0431083 
0.0161184 0.0166514 0.0355984 0.0400409 0.0125039 0.0405986 -0.00198223 0.0263626 0.0385829 
0.029607 0.0297518 0.039667 -0.0206287 -0.0312286 0.0525582 0.000738872 -0.0279049 0.0477649 
-0.040027 -0.0126679 0.0540133 -0.0205449 -0.0139425 0.0534383 0.0109407 -0.0189023 0.0451998 
-0.00879258 -0.00531305 0.0477817 -0.0238517 0.0085747 0.0466665 -0.0144264 0.0082601 0.0499924 
0.0257448 0.00489723 0.0471614 0.0355354 0.0070245 0.047647 0.0386345 0.0162549 0.0499258 
-0.0226666 0.0307855 0.0491883 0.0101835 0.0370062 0.0540776 0.0103126 0.0312569 0.0456976 
-0.00693225 -0.035939 0.056332 0.0132156 -0.0307861 0.0578449 0.0279755 -0.0301156 0.0561799 
-0.0231794 -0.0206997 0.060323 -0.00529045 -0.0268493 0.0601637 0.00445213 -0.0214369 0.058577 
-0.00514914 -0.0168799 0.0593961 0.00492516 -0.0115591 0.0600618 -0.0304793 -0.00462234 0.0600501 
0.0358 -0.00386213 0.0566186 -0.03545 0.00312002 0.0554685 -0.0365602 0.0124505 0.0600607 
-0.0190425 0.0175359 0.0554212 -0.00398071 0.0146114 0.0575237 0.0110632 0.0149191 0.0581592 
-0.00167078 0.024409 0.0614043 0.0287749 0.023157 0.058253 -0.0142445 0.0394348 0.0558865 
-0.00322499 0.0418245 0.0587638 
VERTICES 70 140
1 0 
1 1 
1 2 
1 3 
1 4 
1 5 
1 6 
1 7 
1 8 
1 9 
1 10 
1 11 
1 12 
1 13 
1 14 
1 15 
1 16 
1 17 
1 18 
1 19 
1 20 
1 21 
1 22 
1 23 
1 24 
1 25 
1 26 
1 27 
1 28 
1 29 
1 30 
1 31 
1 32 
1 33 
1 34 
1 35 
1 36 
1 37 
1 38 
1 39 
1 40 
1 41 
1 42 
1 43 
1 44 
1 45 
1 46 
1 47 
1 48 
1 49 
1 50 
1 51 
1 52 
1 53 
1 54 
1 55 
1 56 
1 57 
1 58 
1 59 
1 60 
1 61 
1 62 
1 63 
1 64 
1 65 
1 66 
1 67 
1 68 
1 69 

POINT_DATA 70
FIELD FieldData 7
id 1 70 int
44 732 912 837 385 663 467 208 595 
1606 398 1986 2166 1438 1371 720 895 936 
1782 1157 2710 2454 2509 1464 3102 2267 2996 
2873 2640 2252 2790 2566 2117 1929 3228 1751 
2149 3932 2782 3857 4179 3841 3057 3206 3265 
3510 3364 3475 3770 3724 3209 4006 4989 4280 
5103 5377 4708 5397 5509 4181 4482 4052 5353 
4796 4610 5050 5420 4362 3909 5402 
type 1 70 int
2 2 2 2 2 2 2 2 2 
2 2 2 2 2 2 2 2 2 
2 2 2 2 2 2 2 2 2 
2 2 2 2 2 2 2 2 2 
2 2 2 2 2 2 2 2 2 
2 2 2 2 2 2 2 2 2 
2 2 2 2 2 2 2 2 2 
2 2 2 2 2 2 2 
i 3 70 int
0 0 0 0 0 0 0 0 0 
0 0 0 0 0 0 0 0 0 
0 0 0 0 0 0 0 0 0 
0 0 0 0 0 0 0 0 0 
0 0 0 0 0 0 0 0 0 
0 0 0 0 0 0 0 0 0 
0 0 0 0 0 0 0 0 0 
0 0 0 0 0 0 0 0 0 
0 0 0 0 0 0 0 0 0 
0 0 0 0 0 0 0 0 0 
0 0 0 0 0 0 0 0 0 
0 0 0 0 0 0 0 0 0 
0 0 0 0 0 0 0 0 0 
0 0 0 0 0 0 0 0 0 
0 0 0 0 0 0 0 0 0 
0 0 0 0 0 0 0 0 0 
0 0 0 0 0 0 0 0 0 
0 0 0 0 0 0 0 0 0 
0 0 0 0 0 0 0 0 0 
0 0 0 0 0 0 0 0 0 
0 0 0 0 0 0 0 0 0 
0 0 0 0 0 0 0 0 0 
0 0 0 0 0 0 0 0 0 
0 0 0 
v 3 70 double
-2.7080771441e-06 9.3998661617e-07 -1.0391574483e-06 5.1518969832e-06 -4.3935174594e-06 -1.3623835339e-05 -2.1959560365e-06 4.4714961112e-06 8.623263017e-06 
1.2820600823e-06 5.8897085655e-06 -3.9029618216e-07 4.0531967749e-06 -8.9014460887e-07 -6.281820292e-06 -1.0703508479e-06 4.0262084137e-06 1.2918274432e-06 
-8.238391444e-06 -2.259042853e-06 3.0441266496e-06 1.4885315569e-06 2.1333294284e-06 -5.7836656463e-06 1.7275494479e-06 1.0749790969e-06 8.7914561828e-07 
-6.5171760407e-06 1.4944661419e-06 -1.6890281775e-05 -2.033045679e-06 1.8168976882e-05 1.2138706638e-05 2.0074829303e-06 1.9521625261e-06 -2.4455658734e-05 
1.4515882299e-05 4.5264512436e-06 -3.0723137525e-06 5.6893731593e-07 3.7163799855e-06 3.7131823383e-06 3.3614087158e-06 -3.812183444e-06 -4.7743313979e-07 
1.3613270997e-05 -2.2367026234e-05 2.1748865797e-05 2.9351908178e-06 8.05348187e-06 -5.8666170954e-06 -4.6543703668e-06 -1.7031581262e-06 7.4258689883e-07 
2.5496309807e-07 1.8954192519e-06 -1.4603479015e-06 9.2923737128e-06 2.3350335786e-05 -9.323906487e-06 4.8661466561e-06 3.587070881e-06 -9.7725523021e-06 
4.3770347737e-06 -4.7192150622e-06 -5.5562797901e-06 -1.6148511724e-06 2.9583012953e-07 -8.0570989893e-07 2.3472343151e-06 3.1868075576e-06 1.5925343699e-06 
2.7165635757e-06 -4.231771255e-06 3.0373261841e-07 3.1003437561e-06 -1.0257012477e-06 -3.8123166e-07 -1.4268038607e-06 1.5209494642e-06 3.8279353775e-06 
4.2612217716e-06 3.8958350641e-07 -6.7794645104e-06 -2.5610882531e-06 4.1209040589e-07 6.3365741027e-06 -2.9929151722e-06 2.8497974968e-06 3.7817642783e-07 
6.6309512957e-07 1.9183832614e-06 6.1611881429e-07 -3.6905209295e-06 1.0760762026e-06 4.5667532019e-09 3.1407098002e-06 -8.0067204807e-07 2.4060800142e-06 
-1.9328105782e-06 -2.5983681383e-06 -1.1568710294e-06 -1.1611533712e-07 9.5033686819e-07 6.621871344e-07 1.18952423e-06 -1.4884357927e-07 6.5043625753e-06 
5.6474350646e-06 -2.3807561965e-06 5.469401401e-06 -1.6990968728e-07 1.3089028966e-07 4.826193415e-07 -1.2717314284e-07 -9.1078659079e-07 6.624337779e-08 
8.9978246881e-08 6.6191520267e-07 1.6606154875e-07 -3.0758750145e-07 6.0995583874e-07 5.4770504682e-07 3.1040579622e-06 -7.7401274782e-06 -1.3751303546e-06 
-6.7678842173e-07 9.4233871727e-08 -2.2471089334e-06 3.4757604029e-07 -1.174847412e-07 7.5646312025e-07 -1.8922922309e-06 1.029941394e-06 9.1724282398e-07 
-6.8089993854e-07 1.3297205926e-06 4.5418962002e-07 -1.0617853109e-06 1.3521231728e-06 -2.1088893964e-06 -1.1988704627e-06 -4.1422388974e-06 1.217532086e-06 
-2.3467058215e-07 3.4914057552e-08 1.3993723142e-06 2.6211075422e-06 5.3918049061e-07 2.7258964623e-06 3.0100059587e-06 -8.5407750839e-07 5.6812411088e-06 
6.0054469806e-07 -1.0327187902e-07 -8.0995097841e-07 9.6097585728e-07 9.2055239096e-07 1.3799665572e-06 7.1355016529e-07 -1.6516950652e-07 -1.1041942996e-06 
1.0552080845e-06 -5.3242661862e-07 1.1779600148e-07 2.7303959554e-07 -9.4908584666e-07 -9.791146837e-07 6.6399794914e-07 -1.2110696393e-06 4.823442798e-07 
1.804645922e-07 -1.5329746368e-06 -1.401754053e-07 3.6444686401e-07 1.3106702959e-07 4.3599259524e-07 -1.4009737688e-07 -1.0944498286e-06 -1.384622898e-06 
3.9533001003e-07 3.3539097463e-08 -3.9197773379e-07 5.2011885116e-07 2.7888518969e-07 2.3398429477e-07 -1.0675810298e-07 -1.8044342519e-07 8.9765431175e-08 
1.9904863898e-08 -5.0148974645e-07 -1.9913540145e-07 1.2151086651e-06 6.3705613364e-07 4.2267122996e-08 -6.5302888305e-08 1.050326989e-07 -2.6222162758e-07 
-4.8825732799e-07 -5.9369391559e-08 8.6213240334e-07 3.0955940157e-07 1.204289261e-07 5.3411813796e-07 -7.2773519848e-07 5.1337148358e-07 4.8911690896e-07 
1.5064670807e-06 -2.5328639677e-06 -2.6026317548e-06 
f 3 70 double
2.6545745184e-05 -4.3013082053e-05 -5.7285640421e-06 7.1912231657e-06 -2.5219438974e-05 -7.3753691077e-05 -0.00011224392513 6.7496357363e-05 -4.5631429581e-05 
1.8185234123e-05 -4.5629467966e-05 2.6322048888e-05 9.9314613958e-06 -7.8811909667e-05 4.6395416545e-05 2.0711831323e-05 -2.9621677063e-05 3.7922532974e-05 
1.3688054999e-05 4.3813058681e-05 -0.00010280335986 -6.5136932856e-05 1.6977813301e-05 8.3839092815e-05 -0.00015049256283 -0.00013097495225 -6.1311886265e-05 
9.6267882346e-05 -3.6520158532e-05 -3.8884867291e-05 8.0136585832e-05 -9.9275981658e-06 -5.7112786782e-05 6.8944636121e-05 8.6672585265e-05 -4.1971669802e-05 
-1.629713069e-05 -3.8130247667e-05 -1.3371312644e-05 -2.0491008161e-05 -5.4539488972e-06 -1.8888729614e-05 -0.00010234469391 7.0111052256e-06 -3.7806799219e-05 
-8.4280296e-05 0.0001031601433 -7.8266776365e-05 -0.00022532360959 6.8359510773e-05 0.0001477233071 0.00015918969054 9.34297671e-05 -6.9983916352e-05 
-6.8951088366e-06 -1.8480368532e-05 -2.6451625594e-05 0.00035865131081 0.0002078071018 1.1577099934e-05 3.8457986796e-05 1.6820318854e-05 -9.3157986125e-05 
2.9679324885e-05 -1.2357529231e-05 3.0053619023e-05 -2.087043733e-05 -8.4983919921e-06 -4.3008033288e-05 -9.205708028e-06 4.5583936901e-05 5.7300614583e-06 
1.4975881957e-05 -3.4321644523e-05 -1.0010903003e-05 -1.4028938271e-05 -1.5658638238e-05 -6.9652373961e-06 4.024759631e-05 -1.0694003217e-05 7.2162331564e-06 
-5.4566566866e-06 -0.00012456738949 -7.0304360994e-05 -2.8052166789e-05 -3.9766426013e-05 1.2269762104e-05 -7.8910525198e-06 -5.3033314048e-06 3.5149468767e-05 
5.107830451e-06 3.2228334638e-06 6.1394783882e-05 3.8216635126e-05 -1.879841215e-05 2.1992499349e-05 2.3485606273e-05 7.1252298899e-06 4.274530294e-06 
-3.7593882259e-05 1.1093073619e-05 -7.0543170818e-06 -1.2996944396e-05 2.7288526759e-06 6.685470861e-06 1.9331854652e-05 2.5553288509e-05 -2.2593065525e-05 
0.00013144022964 0.00038727635834 0.00021291760307 -1.0068274443e-06 2.4264656941e-06 1.3368942524e-07 -6.2562308185e-07 2.9994607939e-06 -3.5675601537e-06 
-5.0767242678e-07 -2.6967027889e-06 -1.5786153611e-06 1.1101414664e-06 1.6405970452e-06 1.5831762617e-06 1.1482747961e-05 -3.491129868e-05 -1.6143682465e-05 
1.1357855012e-06 -1.4101633394e-05 -1.9069912524e-06 -8.2644785838e-06 8.846202527e-06 1.5367669202e-05 -5.0955651191e-06 -7.8974451272e-06 -1.1632392815e-05 
8.2595409083e-06 1.050608936e-05 2.3516541102e-06 -3.2282369905e-06 -2.2899594519e-07 1.6190935439e-05 1.003345786e-05 1.8180697176e-05 1.1707894918e-05 
5.8737499099e-06 -9.0601163376e-07 -9.9346429654e-06 8.1387049045e-06 -2.7635953564e-06 -1.2709293594e-05 -2.3387665376e-05 -1.3717273945e-05 -4.3245357361e-05 
2.1151835652e-06 4.6567722169e-07 -2.9477377431e-06 3.6337023766e-07 -1.1309071764e-06 -4.2780176003e-08 -1.675446783e-06 -2.9765284311e-06 3.9015896911e-06 
-1.1675610609e-06 1.1525356154e-06 5.7458851487e-07 -2.903904751e-06 1.2715464551e-06 3.8312822401e-07 -4.6986024727e-07 3.5092514515e-07 4.7584711912e-07 
-2.765240036e-07 1.5022273276e-06 -1.5358451224e-06 4.1993253585e-07 -1.439885648e-06 -1.2992268142e-07 6.2976863848e-07 -1.937402114e-06 8.5737646889e-07 
1.1503530636e-07 -5.6631983876e-07 -2.0045224601e-06 1.1917631419e-06 -1.691865808e-06 8.4813226815e-07 2.524324124e-07 5.1524593634e-07 -9.8227153747e-07 
-2.831268525e-07 -1.8438100254e-06 9.9091368138e-07 2.5430045408e-07 3.883175747e-06 1.2166331232e-06 -7.4142200089e-07 -4.5685894141e-08 -6.878352165e-07 
4.4745664551e-06 -9.4501628303e-08 8.0171560694e-07 5.657303364e-07 -7.1806941155e-07 -1.5167411144e-06 -1.2138735988e-06 1.0938743428e-06 1.4378471008e-06 
-1.5083068759e-06 -5.2943190854e-06 -2.1043484437e-06 
radius 1 70 double
0.005 0.005 0.005 0.005 0.005 0.005 0.005 0.005 0.005 
0.005 0.005 0.005 0.005 0.005 0.005 0.005 0.005 0.005 
0.005 0.005 0.005 0.005 0.005 0.005 0.005 0.005 0.005 
0.005 0.005 0.005 0.005 0.005 0.005 0.005 0.005 0.005 
0.005 0.005 0.005 0.005 0.005 0.005 0.005 0.005 0.005 
0.005 0.005 0.005 0.005 0.005 0.005 0.005 0.005 0.005 
0.005 0.005 0.005 0.005 0.005 0.005 0.005 0.005 0.005 
0.005 0.005 0.005 0.005 0.005 0.005 0.005 
omega 3 70 double
4.9227398065e-05 -0.00046612465605 6.0179993947e-05 -0.0031665778787 -0.00027973903104 -0.00038984040155 0.0013343788455 0.0032088263592 0.001358597169 
-0.0031661097597 0.0005341068669 -0.0030858955501 -0.00042387320688 -0.001234984401 0.00093500655792 -0.0035936861044 0.0021513750197 -0.0017240207909 
-0.00041718605264 0.00077847959343 -0.00072399333076 0.0014788695758 -0.0019485962298 -0.00096938338026 -0.0040184476281 0.0017611048421 -0.0009215484407 
-0.00063877187249 0.00054197479711 -0.00078474378172 -0.01425272559 -0.0024303781248 -0.0018742222776 -0.0010429076453 -0.00014873433173 -0.0013317174752 
0.00109333812 -0.00085312194829 9.2717710615e-05 0.00056180142234 9.8460192208e-05 -0.00070050506909 0.00083251775675 0.00046042355045 -0.00031103414007 
-0.00011895782426 -0.00093051706451 0.00068276686373 -0.00068052183146 -0.00040828826307 -0.00045437463173 0.0052565223685 -0.0048918592935 -0.0048969130144 
-0.00012932763936 0.00058592170786 -0.0013109944843 0.003311682011 -0.00026852280993 -0.001011147584 -0.001180230322 -0.0015606219614 -0.0003531918073 
0.00043227767692 -0.00076357374902 0.00010168168992 0.0012144331015 0.00051130859636 -0.00012034443298 0.00021814622973 7.0492130193e-05 2.2026010206e-05 
0.00039901376324 -9.6895348421e-05 -0.00091821699324 -0.00014430802443 0.00021800143869 0.00061840093738 -0.00069454628126 0.0015722614318 0.00033668470311 
0.00024305670487 0.0011188624898 -0.00053830783696 0.00056603308785 -0.00018036186787 0.00076691224839 -0.0006582465224 0.00059837796521 8.9990992046e-05 
-0.0017604930458 0.00088782316798 0.00032951441739 -0.00018698926964 -0.00085095752729 -0.00034929159703 6.5029176346e-06 6.1811635432e-06 1.429186791e-05 
-0.00012350920483 -0.00031526569611 -0.00029836425348 0.0003806432836 -0.00060906676126 -0.0023066249659 0.0010534897419 -0.00026060774192 -0.00038820809491 
0.0067293101357 0.0051477567226 -0.0017495354136 0.00012184447843 0.0003032356684 -0.00012049180631 0.00011905326167 2.2026867114e-05 -6.4589870557e-05 
2.2626175933e-05 -6.3999581731e-05 0.00028640442136 0.00021302895735 0.00034231825887 -0.00016758577508 0.0016677936666 0.00060381826369 8.0294445559e-06 
0.00020673488452 0.00053797270064 0.00012800104866 -0.0005370641176 -0.00029141239278 -0.00046259413627 -8.2372443892e-06 -0.00040543763609 -7.4277791099e-05 
0.00036627712198 0.00018335636365 -7.3234474786e-05 -0.00036212756424 -0.00034559022816 0.000726295236 -0.00028060522864 9.1650975134e-05 0.00080713331272 
0.00041948695799 -0.00075546634249 0.00043643851991 -0.00061665388729 0.00010476714634 -0.00043488579825 0.001909460313 0.00095259271331 0.0009571005289 
-0.00013893525952 0.00024063318968 0.00068741345257 0.00046008798171 -0.00016195741602 -0.00042912784441 1.0737379569e-05 -4.0308664341e-05 6.2430534067e-05 
0.000271368023 0.00020640425588 6.973450751e-05 0.00014464727326 0.000206179368 -0.00023950449894 0.00013350036277 -9.2587815708e-05 8.0987485224e-05 
3.8788882166e-05 -0.00010820044848 -0.00012970626205 3.0660138209e-05 6.9259662933e-05 8.9454019287e-05 -4.0611793765e-05 0.00026426932706 0.00023910726834 
-5.7993000412e-06 -0.00031099964645 0.00027087909329 0.00022025356439 0.00024487636385 -4.8958940885e-05 0.0001015845349 9.1248866408e-07 3.33710738e-05 
-0.00010867235558 2.3588366361e-05 -0.00017841452823 0.0004480688821 0.00015111127924 0.00014806510509 0.00015661524763 9.5797685773e-05 0.00018107564937 
-8.9000240885e-05 0.00046874177949 -0.0004457165571 6.9235465304e-05 -0.00011053698422 -0.00010092773739 -0.00014787869898 -2.6156771325e-06 3.0512626168e-05 
-0.00024230137593 -0.00052953549965 3.3922584556e-05 
