# vtk DataFile Version 4.2
Generated by LIGGGHTS
ASCII
DATASET POLYDATA
POINTS 70 float
0.00164411 -0.0261567 0.0111954 -0.0251534 -0.0120152 0.013943 0.00362588 0.00274021 0.0140618 
0.0134232 0.00422722 0.0154623 -0.00122233 0.0272618 0.0115532 -0.0140823 0.0326631 0.0113562 
-0.0229521 -0.0202814 0.0194074 0.017113 -0.029533 0.0195211 0.0200644 -0.0196539 0.0192451 
-0.0369433 -0.00558661 0.0206855 0.00383525 -0.00951727 0.0185288 -0.0239693 0.00831525 0.0219699 
-0.00220531 0.00285852 0.0232194 0.00266808 0.0157439 0.0168427 -0.012362 -0.0039415 0.0305144 
-0.0370189 0.00656462 0.0260008 -0.0218556 0.0197473 0.0266598 0.0236479 0.029003 0.03161 
-0.0198734 -0.0221927 0.037669 0.030965 -0.0193795 0.0389013 -0.0392354 -0.00632047 0.0380653 
-0.025859 -0.000538125 0.0383798 -0.00199256 -0.0042592 0.0388777 0.0141842 -0.0020365 0.0431251 
0.0273787 -0.00996761 0.0361802 0.0393929 0.00610061 0.037651 0.0115691 0.013543 0.0364167 
0.0238469 0.0176078 0.034617 -0.00456005 0.0223015 0.0379194 0.00686723 0.025047 0.040795 
0.000520986 0.037698 0.0422984 0.0113477 -0.0397589 0.0446726 -0.0207982 -0.0339593 0.0441981 
0.00369214 -0.031733 0.0442885 0.022014 -0.0335111 0.0495786 -0.0253551 -0.0250615 0.0489565 
0.00885999 -0.0231361 0.0437083 -0.0346079 -0.0166494 0.0483707 -0.0144355 -0.0123991 0.0504334 
-0.00576559 -0.0182817 0.0449972 0.00625143 -0.0125957 0.0490739 -0.0406367 -0.00844108 0.0477573 
-0.0282854 -0.00817206 0.0490953 0.0395096 -0.00311724 0.0454437 -0.00284074 0.00952446 0.0442284 
0.0249039 0.00442461 0.044291 -0.0211447 0.0113443 0.0447509 -0.0278956 0.0193373 0.0454446 
-0.017083 0.0187729 0.0542616 0.038162 0.0173059 0.045933 -0.00379552 0.027675 0.0541118 
0.0200665 0.0215733 0.046664 -0.0105549 0.0326226 0.0435806 0.00268411 0.040361 0.0537316 
0.0156785 0.0332684 0.0481012 0.00119931 -0.0412655 0.0542054 -0.0130522 -0.0389532 0.055897 
0.0127807 -0.0328152 0.0540517 -0.00776643 -0.0253615 0.054152 -0.0271767 -0.0128993 0.0583175 
-0.0134849 -0.012894 0.0647793 0.0368858 -0.00104053 0.0549898 -0.00598933 0.00294313 0.0587661 
0.00336703 0.0083204 0.0643521 -0.0333195 0.0196906 0.0584841 0.00841803 0.0284032 0.0604134 
-0.0173749 0.0359441 0.06471 0.0277627 -0.0166093 0.0711714 -0.0387117 0.00908657 0.0676349 
-0.0063862 0.0382552 0.0659465 
VERTICES 70 140
1 0 
1 1 
1 2 
1 3 
1 4 
1 5 
1 6 
1 7 
1 8 
1 9 
1 10 
1 11 
1 12 
1 13 
1 14 
1 15 
1 16 
1 17 
1 18 
1 19 
1 20 
1 21 
1 22 
1 23 
1 24 
1 25 
1 26 
1 27 
1 28 
1 29 
1 30 
1 31 
1 32 
1 33 
1 34 
1 35 
1 36 
1 37 
1 38 
1 39 
1 40 
1 41 
1 42 
1 43 
1 44 
1 45 
1 46 
1 47 
1 48 
1 49 
1 50 
1 51 
1 52 
1 53 
1 54 
1 55 
1 56 
1 57 
1 58 
1 59 
1 60 
1 61 
1 62 
1 63 
1 64 
1 65 
1 66 
1 67 
1 68 
1 69 

POINT_DATA 70
FIELD FieldData 7
id 1 70 int
22 599 257 148 224 82 1010 318 281 
348 355 522 739 447 1100 153 183 668 
1478 1936 1605 1176 2092 810 1546 1192 2095 
722 364 1286 1646 1230 858 1038 286 821 
962 1335 2126 1515 1231 1857 982 2101 1350 
1510 1489 1822 1240 1780 1685 801 1435 535 
1068 936 1064 546 1148 1562 1721 2083 851 
657 1450 1983 2075 1606 1962 1258 
type 1 70 int
2 2 2 2 2 2 2 2 2 
2 2 2 2 2 2 2 2 2 
2 2 2 2 2 2 2 2 2 
2 2 2 2 2 2 2 2 2 
2 2 2 2 2 2 2 2 2 
2 2 2 2 2 2 2 2 2 
2 2 2 2 2 2 2 2 2 
2 2 2 2 2 2 2 
i 3 70 int
0 0 0 0 0 0 0 0 0 
0 0 0 0 0 0 0 0 0 
0 0 0 0 0 0 0 0 0 
0 0 0 0 0 0 0 0 0 
0 0 0 0 0 0 0 0 0 
0 0 0 0 0 0 0 0 0 
0 0 0 0 0 0 0 0 0 
0 0 0 0 0 0 0 0 0 
0 0 0 0 0 0 0 0 0 
0 0 0 0 0 0 0 0 0 
0 0 0 0 0 0 0 0 0 
0 0 0 0 0 0 0 0 0 
0 0 0 0 0 0 0 0 0 
0 0 0 0 0 0 0 0 0 
0 0 0 0 0 0 0 0 0 
0 0 0 0 0 0 0 0 0 
0 0 0 0 0 0 0 0 0 
0 0 0 0 0 0 0 0 0 
0 0 0 0 0 0 0 0 0 
0 0 0 0 0 0 0 0 0 
0 0 0 0 0 0 0 0 0 
0 0 0 0 0 0 0 0 0 
0 0 0 0 0 0 0 0 0 
0 0 0 
v 3 70 double
0.036781875909 -0.072804507853 0.2813113629 -0.093040837751 -0.10233883904 0.2493464709 0.084322269129 -0.078806343028 0.39364371999 
0.070768015813 -0.028721855604 0.39621474267 0.019871552058 -0.069689650763 0.38437782457 -0.010237366136 -0.04083571436 0.19386524961 
0.10223402134 -0.068241446269 0.23074442835 -0.027181425904 0.013690384883 0.4275361029 -0.003740211833 -0.022016237778 0.35584241361 
-0.019521323634 -0.28087394702 0.39531494107 0.066639345394 -0.16857122146 0.3794115839 0.012250173989 0.04660828093 0.36471228883 
0.081054659985 -0.13349434734 0.36386895385 0.2336441407 -0.046799257797 0.35784069765 0.20973444239 0.34403943007 0.023336021356 
0.01335476798 -0.25884995808 0.50540247309 0.043688562528 -0.1261396351 0.47737365348 -0.00025443485298 0.32257108373 0.26710046735 
-0.054504515542 0.045176069486 -0.44508387432 -0.0064927706225 -0.085393630693 -0.3485885596 -0.01431783335 0.050102880092 -0.44644652503 
0.040394045509 0.089273900335 -0.49053363513 -0.18138500368 0.088651986355 -0.47313606723 0.0076859210326 -0.011707968716 -0.30667917424 
-0.077272851152 0.023319308095 -0.45392599532 0.012423894472 -0.072424959036 -0.48740919007 -0.077404527544 -0.022920278949 -0.41927274529 
0.081749634988 -0.079405404422 0.58029881677 -0.075641998901 0.017561346584 -0.38580211769 -0.0086004924003 -0.077430292811 -0.38788459151 
-0.027841269532 0.062732107895 -0.23684785049 0.0032160052848 0.074807364464 -0.31838606826 -0.044247789866 -0.039001202282 -0.38602384938 
-0.08224234781 -0.031934717264 -0.3219287184 0.087656309784 -0.0045023674296 -0.195602394 -0.10254772732 -0.14102849272 -0.4065828096 
-0.060661767149 0.06194652089 -0.37892262038 -0.12414104338 -0.085405638924 -0.421104587 -0.092581495679 0.074946384426 -0.34790728544 
-0.046076289064 -0.087835131276 -0.3858436439 -0.12697642234 0.045293585982 -0.27143676108 -0.084689240838 0.058056627571 -0.34099995136 
-0.092380036335 0.2690551822 -0.48789297674 0.051511248129 0.050923467764 -0.2893627122 0.092814117974 0.069342728275 -0.34076502424 
-0.046196645498 0.070513791886 -0.31737842328 0.054529299438 0.0017720566553 -0.30585430577 0.0098293070294 0.17570672072 -0.31796453458 
-0.051824860431 0.14010012185 -0.17431689967 -0.047950905433 -0.021789174946 -0.31918075827 0.14149786695 -0.06090962535 -0.21963842609 
-0.00070612500454 0.072577828738 -0.32459918115 -0.027947811294 0.16552507374 -0.394007344 -0.1573498811 0.07432129678 -0.25690312992 
-0.0068839850647 0.01932578443 -0.25528456011 -0.075589006634 0.10741593374 -0.32294789037 -0.063891642396 0.036754884656 -0.23360279228 
0.049707928322 -0.067084696299 -0.35032434566 -0.066665148854 0.060443047519 -0.2929271892 -0.22245421166 0.16305771045 -0.34032884232 
-0.057899164359 -0.16174689191 -0.15407711455 0.053648990165 -0.17768456548 -0.26038164809 -0.22213331561 0.18952694898 -0.24419769956 
-0.2314842866 -0.07070078993 -0.11785979331 0.005516993679 -0.16828964423 -0.20293215315 0.096527321287 -0.021582430531 -0.17693437414 
0.14956553139 0.053422127977 -0.08956848347 0.07778068684 -0.30897051991 -0.1671451115 0.054818724561 -0.01854716061 -0.12973163765 
-0.076712719575 -0.13040909424 -0.098665798735 
f 3 70 double
-0.020828650109 -0.077098081049 -0.58395673979 -0.0020441924825 -0.001378640112 -0.00084994475549 0.11399343118 -0.21358988818 -0.22664679811 
0 0 -0.0012841259972 0.028999223548 0.01511330081 -0.005557653798 0.16173149661 -0.1488745137 0.44025022566 
1.1723546084 -0.4286145717 -0.16424871547 0 0 -0.0012841259972 0.015208500036 -0.019636448198 0.01481067805 
0 0 -0.0012841259972 0.045943684437 -0.028701663471 -0.041779877892 -0.042731721561 -0.29675931894 -0.051519069302 
0 0 -0.0012841259972 0.070441080155 -0.085357756728 0.13084636754 0 0 -0.0012841259972 
0 0 -0.0012841259972 0 0 -0.0012841259972 0 0 -0.0012841259972 
0 0 -0.0012841259972 0 0 -0.0012841259972 0 0 -0.0012841259972 
0 0 -0.0012841259972 0 0 -0.0012841259972 0 0 -0.0012841259972 
0 0 -0.0012841259972 0 0 -0.0012841259972 0 0 -0.0012841259972 
0 0 -0.0012841259972 0 0 -0.0012841259972 0 0 -0.0012841259972 
0 0 -0.0012841259972 0 0 -0.0012841259972 0 0 -0.0012841259972 
0 0 -0.0012841259972 0 0 -0.0012841259972 0 0 -0.0012841259972 
0 0 -0.0012841259972 0 0 -0.0012841259972 0 0 -0.0012841259972 
0 0 -0.0012841259972 0 0 -0.0012841259972 0 0 -0.0012841259972 
0 0 -0.0012841259972 0 0 -0.0012841259972 0 0 -0.0012841259972 
0 0 -0.0012841259972 0 0 -0.0012841259972 0 0 -0.0012841259972 
0 0 -0.0012841259972 0 0 -0.0012841259972 0 0 -0.0012841259972 
0 0 -0.0012841259972 0 0 -0.0012841259972 0 0 -0.0012841259972 
0 0 -0.0012841259972 0 0 -0.0012841259972 0 0 -0.0012841259972 
0 0 -0.0012841259972 0 0 -0.0012841259972 0 0 -0.0012841259972 
0 0 -0.0012841259972 0 0 -0.0012841259972 0 0 -0.0012841259972 
0 0 -0.0012841259972 0 0 -0.0012841259972 0 0 -0.0012841259972 
0 0 -0.0012841259972 0 0 -0.0012841259972 0 0 -0.0012841259972 
0 0 -0.0012841259972 
radius 1 70 double
0.005 0.005 0.005 0.005 0.005 0.005 0.005 0.005 0.005 
0.005 0.005 0.005 0.005 0.005 0.005 0.005 0.005 0.005 
0.005 0.005 0.005 0.005 0.005 0.005 0.005 0.005 0.005 
0.005 0.005 0.005 0.005 0.005 0.005 0.005 0.005 0.005 
0.005 0.005 0.005 0.005 0.005 0.005 0.005 0.005 0.005 
0.005 0.005 0.005 0.005 0.005 0.005 0.005 0.005 0.005 
0.005 0.005 0.005 0.005 0.005 0.005 0.005 0.005 0.005 
0.005 0.005 0.005 0.005 0.005 0.005 0.005 
omega 3 70 double
-4.6766968351 -13.17848465 10.095403352 -30.453550647 -16.044723583 7.8237455173 -15.530094233 -0.90620262175 0.740137426 
-6.2950793564 13.881761243 -5.8511534676 1.3585553449 -5.1542516296 -3.1728897948 18.319503435 4.4191236077 -8.4907296486 
-18.635651931 -31.805804928 -3.0594590854 8.8703025678 -32.42062246 -10.057431582 0.49212383286 17.630783332 -9.3709554518 
21.856813759 25.584239535 5.6452948007 -11.287947775 -13.67184267 23.264484123 -34.095427594 5.7242474956 -11.350164623 
-15.740861176 -20.781066386 11.359740959 4.8872815223 -1.3907359426 -5.2971796183 8.600927517 -36.36132928 2.9994345664 
-16.268455955 -5.3852261406 30.850247317 3.1071394246 -6.5139876877 5.3966106135 -8.774869541 -3.1916527008 27.107862759 
9.2602658872 -8.6340997742 8.5315054956 -15.639848879 -4.484714723 4.4717263063 1.2513232699 0.98901901057 -7.0799191119 
9.6666135585 -21.57700706 -3.9682796421 -2.3893279331 -20.507580299 1.857420799 7.1933576986 -4.55882359 2.4364035995 
5.2535569025 -10.673219563 5.8689709043 2.7099381552 6.0398271515 10.011375177 -16.392244601 11.99834694 -7.7581895398 
-29.460582735 -25.998954191 27.495786038 12.987709271 5.8553095362 -0.82504770337 -24.03452703 14.576782079 -17.286548066 
18.919702656 4.8614003198 -0.026877520695 -0.56984890683 3.0958707841 -0.15602069983 -9.4632212989 -36.304059384 9.0947781002 
-7.3171562567 11.451673801 -2.697607367 -22.434875943 -8.1505671493 -13.470893402 -22.169725187 -3.3208949867 21.514679976 
3.5493775109 23.919021116 6.3717363637 1.5891316496 -12.734958321 -11.17977107 -39.06994269 23.446996709 18.424566909 
-8.2424973393 6.2559660195 -31.101367058 11.041316074 -1.7410110501 -8.0095525803 -4.3516206314 -7.8914062088 -12.656172825 
-6.6987976218 -1.8101924448 9.5912463264 -6.6544885882 13.972148172 14.464972909 34.326433094 -41.338204464 -27.766465435 
10.968849234 -15.282789349 -10.860573404 3.1288581601 -6.6309787456 -4.975320432 -6.7694051926 8.3430693359 -8.6537197647 
26.666878592 -4.0696470517 35.023063449 -25.879803442 35.702982764 22.844411372 -1.0750538287 -3.8865396153 9.3433161836 
8.044934298 -3.2378285124 -9.9104894502 -4.7526382119 -16.14261576 -15.35991547 2.9067387119 12.611531194 23.444093592 
13.238573235 -1.8916015257 11.847142934 4.5127005112 22.344159215 -9.5626404896 1.1833295921 -13.190790611 -16.490117584 
5.8680829491 7.9021825447 -10.772381644 -3.1208634511 -31.274438577 -0.9260384121 -51.440874548 4.4455004932 18.439930607 
-1.8079942168 -14.070244417 -9.777629906 13.73177014 -29.290951287 33.186743121 -28.449598772 9.3322644349 -7.0606850453 
-19.454596086 49.957257713 17.326086768 5.9426474104 6.1971607624 -14.37208373 4.5263448637 56.240443571 9.2935840784 
29.361186464 6.4736372809 2.0927949452 37.892113286 -3.1770748175 6.8952017945 1.145703228 24.171634324 11.908823377 
-3.0239781389 -22.51666705 -9.132912509 
