# vtk DataFile Version 4.2
Generated by LIGGGHTS
ASCII
DATASET POLYDATA
POINTS 70 float
0.000862586 -0.028544 0.0182662 0.0234391 -0.0214138 0.0243651 -0.025603 -0.0105674 0.0220751 
0.00488233 0.00087893 0.0214678 0.0148511 0.0013138 0.022313 0.00544637 0.0135879 0.0224873 
0.00192407 0.0256536 0.0174097 -0.0109947 0.0339441 0.0178553 -0.0227189 -0.0208907 0.0250702 
-0.000467056 -0.0216327 0.0319808 0.0167546 -0.029831 0.0260714 0.00424854 -0.0125638 0.0252648 
-0.0377925 -0.00464655 0.0272104 -0.0151639 -0.00999922 0.0298356 -0.000254994 -0.00458245 0.029358 
0.0130221 -0.00996996 0.0300518 -0.0361899 0.00864436 0.0291476 -0.0204793 0.00768482 0.0284366 
0.000549904 0.00960006 0.0305851 -0.0186114 0.021357 0.0273724 0.0266152 0.0257813 0.0327475 
0.0194602 0.0327241 0.0314004 0.00870287 0.0410178 0.0312689 -0.000636027 -0.0288061 0.0394327 
0.0336741 -0.0102213 0.0438398 -0.00678679 -0.00258741 0.0382159 -0.0138454 0.00498864 0.036851 
-0.0258285 0.0197212 0.0361618 -0.0166151 0.0155405 0.0369019 0.0066786 0.0217017 0.0364491 
0.0345757 0.0231987 0.0382884 -0.0102955 -0.0401856 0.0529245 0.0264381 -0.0318887 0.0476399 
-0.0205522 -0.0243886 0.0486885 -0.00667291 -0.0285745 0.0478315 0.00808212 -0.022905 0.0499111 
0.0168066 -0.0280719 0.0493501 0.0237616 -0.0200604 0.0540364 -0.00903547 -0.0177723 0.0505078 
0.00637721 -0.0103848 0.0525141 0.0183013 -0.0102295 0.0499967 -0.0347614 -0.00951477 0.049153 
-0.0163616 -0.00684892 0.0536104 0.0406829 -0.00365973 0.0498835 -0.0337255 0.00442803 0.0484932 
-0.0194837 0.0047709 0.0502877 -0.00695317 0.00155107 0.0474475 0.0043854 0.000800347 0.0523147 
0.015976 0.00128314 0.0515182 0.0283926 0.00382625 0.0487407 0.0374916 0.00821483 0.0520523 
-0.0117893 0.01475 0.0500879 -0.00192294 0.0169159 0.0523579 0.0127498 0.0135543 0.0496803 
0.00341158 0.0255603 0.0546656 0.0116335 0.0339217 0.0524678 0.0231235 0.0305279 0.0513639 
0.000200598 0.0416309 0.0457151 -0.0218764 -0.027374 0.0581931 0.024829 -0.0290291 0.058539 
0.0357343 -0.0206689 0.056557 -0.0205786 -0.0149126 0.0581103 0.00152063 -0.0192489 0.056582 
-0.00120218 -0.00766246 0.0593748 -0.00763084 0.00681247 0.0568414 -0.0373998 0.0117526 0.055419 
0.0242386 0.0154413 0.0582501 -0.00779775 0.0257908 0.0555633 0.00471799 0.0373441 0.0594447 
-0.00893494 0.0402428 0.0587051 
VERTICES 70 140
1 0 
1 1 
1 2 
1 3 
1 4 
1 5 
1 6 
1 7 
1 8 
1 9 
1 10 
1 11 
1 12 
1 13 
1 14 
1 15 
1 16 
1 17 
1 18 
1 19 
1 20 
1 21 
1 22 
1 23 
1 24 
1 25 
1 26 
1 27 
1 28 
1 29 
1 30 
1 31 
1 32 
1 33 
1 34 
1 35 
1 36 
1 37 
1 38 
1 39 
1 40 
1 41 
1 42 
1 43 
1 44 
1 45 
1 46 
1 47 
1 48 
1 49 
1 50 
1 51 
1 52 
1 53 
1 54 
1 55 
1 56 
1 57 
1 58 
1 59 
1 60 
1 61 
1 62 
1 63 
1 64 
1 65 
1 66 
1 67 
1 68 
1 69 

POINT_DATA 70
FIELD FieldData 7
id 1 70 int
22 281 599 257 148 447 224 82 1010 
1038 318 355 348 1100 739 810 153 522 
364 183 1240 668 535 936 982 1350 821 
1258 657 801 722 2083 1231 1605 286 858 
546 1192 1478 2101 851 2126 1176 1068 1857 
1562 1685 2092 1546 1721 1606 1962 1148 1780 
1450 1510 1286 1435 1646 1230 962 1335 1064 
1936 2095 1489 1515 2075 1983 1822 
type 1 70 int
2 2 2 2 2 2 2 2 2 
2 2 2 2 2 2 2 2 2 
2 2 2 2 2 2 2 2 2 
2 2 2 2 2 2 2 2 2 
2 2 2 2 2 2 2 2 2 
2 2 2 2 2 2 2 2 2 
2 2 2 2 2 2 2 2 2 
2 2 2 2 2 2 2 
i 3 70 int
0 0 0 0 0 0 0 0 0 
0 0 0 0 0 0 0 0 0 
0 0 0 0 0 0 0 0 0 
0 0 0 0 0 0 0 0 0 
0 0 0 0 0 0 0 0 0 
0 0 0 0 0 0 0 0 0 
0 0 0 0 0 0 0 0 0 
0 0 0 0 0 0 0 0 0 
0 0 0 0 0 0 0 0 0 
0 0 0 0 0 0 0 0 0 
0 0 0 0 0 0 0 0 0 
0 0 0 0 0 0 0 0 0 
0 0 0 0 0 0 0 0 0 
0 0 0 0 0 0 0 0 0 
0 0 0 0 0 0 0 0 0 
0 0 0 0 0 0 0 0 0 
0 0 0 0 0 0 0 0 0 
0 0 0 0 0 0 0 0 0 
0 0 0 0 0 0 0 0 0 
0 0 0 0 0 0 0 0 0 
0 0 0 0 0 0 0 0 0 
0 0 0 0 0 0 0 0 0 
0 0 0 0 0 0 0 0 0 
0 0 0 
v 3 70 double
0.0067436012281 -0.020280209558 -0.013331962161 0.016670336907 -0.031468634014 -0.0053098011017 -0.0026765309143 -0.01408117996 -0.02066414785 
-0.0090134775066 -0.033557124366 -0.003611113134 -0.0075323074756 -0.03188904474 -0.0087842809193 -0.012137309404 -0.052404498098 -0.026208502805 
0.017582902469 -0.024904220838 -0.056017509185 -0.010815543057 -0.015214108029 -0.051234519131 0.007956047096 0.0058507111517 0.0065529107297 
-0.015279790421 0.023388478223 0.044820946983 0.0075211577073 -0.0079369249759 -0.0032043689227 -0.015868519261 -0.031961626724 -0.01605096362 
0.01732859068 0.045630331305 -0.012350890578 -0.0081374490588 -0.028831551465 0.034941242072 0.02403621098 -0.014005054452 0.04029437918 
0.0019220657898 -0.010445570145 0.010858327814 0.023572974042 -0.02221644802 0.0149036689 0.021006508598 -0.01179397337 0.019338267958 
0.014159889471 -0.082329040185 0.032062530647 -0.018729453332 -0.036242818316 0.012616880946 -0.024739354553 -0.00015847049631 0.0049475959236 
-0.010766580664 -0.028437167292 -0.018404826011 0.00024590416873 0.015135461886 -0.0010511504729 0.099719333773 -0.013540794416 0.12546404136 
-0.0028889601198 0.0099275020202 0.19135547796 -0.025343573478 -0.063304651712 0.12102982495 -0.04787720759 -0.0089890144354 0.053037000358 
-0.037813311429 -0.018094331133 0.067149950184 -0.00085218494207 -0.094308195016 0.065634501443 -0.15768885739 -0.085950736174 0.068544912882 
0.070690377147 0.061660969283 0.012407925913 0.11044858033 0.039444054102 0.15277089385 0.098558916268 0.058811105147 0.074259254721 
-0.035736844033 -0.10485637326 0.10842956817 -0.046917638601 0.21766637261 0.11368401486 -0.056782237052 0.043495141799 0.13728691143 
0.13197483966 0.063418485576 0.26252853506 0.052760507417 -0.058497937001 0.28797288949 -0.27364029501 -0.093470129135 0.17347461251 
0.0018848895293 0.14455787709 0.13103608605 0.088101291677 -0.037519712265 0.20142234726 0.10466243938 0.10887733347 -0.25100451846 
-0.062717307237 -0.027536715799 0.38098727803 -0.31299102979 0.088322173874 -0.096018624152 0.14953703108 -0.15344920859 0.28497726752 
-0.094440981277 -0.16685634415 0.22800569805 -0.01116044494 -0.15230071933 0.15830504015 -0.083299665638 -0.12264575033 0.30830949446 
-0.096996954614 0.10248706766 -0.061491181459 -0.10293968997 -0.066249266851 0.15097073744 0.11807082656 -0.1452899444 0.29351225323 
-0.073214868779 0.092680997439 0.16878658507 0.21081603746 0.21474951442 0.084277930451 0.074862028751 -0.20015647027 0.21824087965 
-0.15459768837 0.22120081291 0.063615225852 0.24547772729 -0.14042705891 -0.21036640956 -0.0015761091309 0.0072057699746 0.33010340431 
-0.13936711052 -0.069519037384 0.043590470861 -0.23223695136 -0.10673755963 0.17421734195 0.22144539908 0.14763263872 0.45739781822 
-0.026151785696 -0.009046468062 0.60186273778 -0.22108239073 -0.058828917038 0.37878344076 -0.2377192446 0.071782906971 0.24096428318 
0.00026627292444 -0.10772293912 0.20022970429 0.22576805818 -0.0061904800711 0.072479259093 -0.039683396327 0.050051255564 -0.22915507003 
-0.10404449158 0.30539547736 0.14753868251 0.13581532305 0.28524418328 0.13442265897 -0.27315828795 0.20739121888 -0.0057150492106 
-0.26712540001 -0.003397102528 0.064957110109 
f 3 70 double
0 0 -0.0012841259972 0 0 -0.0012841259972 0 0 -0.0012841259972 
0 0 -0.0012841259972 0 0 -0.0012841259972 0 0 -0.0012841259972 
-0.030280710448 0.0083532180662 -0.010978946276 0 0 -0.0012841259972 0 0 -0.0012841259972 
0 0 -0.0012841259972 0 0 -0.0012841259972 0 0 -0.0012841259972 
0 0 -0.0012841259972 -0.03883239626 0.0059682976124 0.0092669929717 0 0 -0.0012841259972 
0 0 -0.0012841259972 0.0016876794449 -0.0052587002322 0.0072441638051 0 0 -0.0012841259972 
0 0 -0.0012841259972 0 0 -0.0012841259972 0 0 -0.0012841259972 
0 0 -0.0012841259972 0 0 -0.0012841259972 0 0 -0.0012841259972 
0 0 -0.0012841259972 0 0 -0.0012841259972 -0.43820485823 0.002845696719 -0.045345652835 
0 0 -0.0012841259972 0 0 -0.0012841259972 0 0 -0.0012841259972 
0 0 -0.0012841259972 0 0 -0.0012841259972 0 0 -0.0012841259972 
0 0 -0.0012841259972 0 0 -0.0012841259972 0 0 -0.0012841259972 
0 0 -0.0012841259972 0 0 -0.0012841259972 0 0 -0.0012841259972 
0 0 -0.0012841259972 0 0 -0.0012841259972 0 0 -0.0012841259972 
0 0 -0.0012841259972 0 0 -0.0012841259972 0 0 -0.0012841259972 
-0.20855720862 -0.020411777126 -0.18245394352 0 0 -0.0012841259972 0 0 -0.0012841259972 
0 0 -0.0012841259972 0 0 -0.0012841259972 0 0 -0.0012841259972 
0 0 -0.0012841259972 0 0 -0.0012841259972 0 0 -0.0012841259972 
0 0 -0.0012841259972 0 0 -0.0012841259972 0 0 -0.0012841259972 
0 0 -0.0012841259972 0 0 -0.0012841259972 0 0 -0.0012841259972 
0 0 -0.0012841259972 0 0 -0.0012841259972 0 0 -0.0012841259972 
0 0 -0.0012841259972 0 0 -0.0012841259972 0 0 -0.0012841259972 
0 0 -0.0012841259972 0 0 -0.0012841259972 0 0 -0.0012841259972 
0 0 -0.0012841259972 
radius 1 70 double
0.005 0.005 0.005 0.005 0.005 0.005 0.005 0.005 0.005 
0.005 0.005 0.005 0.005 0.005 0.005 0.005 0.005 0.005 
0.005 0.005 0.005 0.005 0.005 0.005 0.005 0.005 0.005 
0.005 0.005 0.005 0.005 0.005 0.005 0.005 0.005 0.005 
0.005 0.005 0.005 0.005 0.005 0.005 0.005 0.005 0.005 
0.005 0.005 0.005 0.005 0.005 0.005 0.005 0.005 0.005 
0.005 0.005 0.005 0.005 0.005 0.005 0.005 0.005 0.005 
0.005 0.005 0.005 0.005 0.005 0.005 0.005 
omega 3 70 double
-0.80026858951 0.37225346806 -0.74753702163 -2.0990022954 -1.3191773994 -0.37341574438 10.237472769 -2.353737173 -3.8626479578 
0.88205037739 -3.4890815703 -3.7362034656 1.2493812573 1.0107735927 -2.0143701219 -2.7952083147 -4.0816200606 3.1907519006 
-0.2026235284 1.7772652764 0.28859887161 -2.868678542 1.5076554782 2.254116955 -3.4347438583 -3.6963642154 2.4554503742 
0.47756718402 0.8847695849 -8.730681766 4.1962970819 -2.6130488371 0.85636843947 3.4781951725 2.7601108499 5.3463820459 
-2.4028326903 -2.7571410816 9.6969655677 0.26676860313 -1.0031993047 -1.4359130055 -0.37919225797 5.7437421174 -2.0018153423 
2.312577326 -14.930974284 2.6777036639 -1.3006607479 -7.9595381828 3.031735392 4.1951337856 0.41008259051 -0.57869148653 
-0.53879207701 -8.0159200631 -4.9959674827 1.0282427963 1.9012403023 -0.35910679439 -4.2770835453 -10.17778863 6.2400388226 
-4.4160254735 -1.4269995219 2.5459715742 -0.80049279942 5.0698653633 6.3845824398 -16.449419652 17.716202134 1.9636931154 
0.73414265284 -12.680955194 9.436132613 2.8387913 0.77521531189 -4.3679302347 -0.8658227508 -7.7828847193 -2.7061056977 
24.55056013 0.47716514265 6.9781152214 -10.915670302 -0.33860625256 0.6085279146 6.2974044443 7.6398725377 14.204563693 
-19.368060227 6.2127373993 3.9083656839 47.403426634 -26.641886529 3.8768328887 25.919826386 31.827609339 -12.485818029 
6.1508464935 -39.298494721 -7.4739606109 10.615283935 -22.103873295 -30.84223226 6.6141040462 -9.6657199012 22.35855936 
13.59233624 9.0521111537 10.066017469 4.9801463625 -2.7798387874 15.371212259 28.769185449 6.6918462974 17.578368662 
30.438737832 -12.788507031 6.6761291878 -3.0499992449 -30.544651583 5.543896867 -32.336606335 9.0194009553 -27.104366418 
23.722588114 14.747454714 -9.9930199323 -15.558904521 12.663738388 19.229370595 38.491480813 -8.3297599159 -27.702129213 
13.940390358 -15.997110391 -21.982768491 -1.9641191086 -6.8633437694 1.7031622079 -10.028971604 -22.244339573 6.0557577942 
-37.882073162 13.499608071 28.720493202 9.3088218592 -5.6070266182 -40.963037643 5.8177990105 -4.4635463539 2.0222891445 
9.4159932787 24.96311577 31.429745143 -33.713538578 14.782443198 3.6546558701 14.903413491 15.286021225 12.226009793 
-22.901111846 2.1257033274 30.787744884 -32.513847234 -34.556997818 6.722250453 -5.2726618678 -3.827687679 -38.213204032 
-7.6768211798 -24.915664496 -5.121896461 -15.891774006 -12.039551157 24.253795847 17.96290603 40.108537765 -29.564949021 
26.775829585 -1.2269192738 -39.581731301 -19.826826147 -2.4816035916 -24.357578968 -5.7774313652 25.602545128 -2.559102869 
24.037463169 -44.124414009 -25.136235684 63.062628707 -6.6484419553 21.931092441 -0.93869848026 43.302762155 -22.321661676 
-67.994425562 26.933149918 -13.73654717 -38.268678005 10.579885182 16.545312184 -8.8837559741 -41.880176262 -13.06481783 
0.21402766464 -1.2449651069 -6.6429522162 
