# vtk DataFile Version 4.2
Generated by LIGGGHTS
ASCII
DATASET POLYDATA
POINTS 70 float
-0.0134919 -0.0387976 0.0450747 0.0124145 -0.0294897 0.0447724 0.021899 -0.0250249 0.042589 
-0.0292344 -0.0100491 0.0442235 -0.0144693 -0.011792 0.0439624 0.00930503 -0.0126072 0.0454566 
-0.0228441 -0.00189529 0.0404487 -0.00597626 -0.00550413 0.0427376 -0.00139035 0.0197231 0.0430447 
-0.0202821 0.0273077 0.0439392 -0.0106211 0.0244367 0.0435559 0.0133046 0.0259918 0.0408782 
0.0283484 0.0299842 0.0443596 -0.017985 0.037891 0.0431196 0.00876098 0.0358321 0.043448 
0.00468687 -0.0415768 0.0455988 -0.0190633 -0.0302006 0.0509572 0.020631 -0.0349528 0.046409 
-0.0361961 -0.0209428 0.045329 -0.0175046 -0.0216666 0.045568 -0.0055787 -0.0299122 0.0473138 
-0.0089902 -0.0241174 0.0553725 0.0292145 -0.0295771 0.0477056 -0.0389835 -0.0126121 0.0503624 
0.000126465 -0.0199131 0.0476143 0.0151964 -0.0176284 0.0532325 0.0250933 -0.0160795 0.0511178 
0.0393813 -0.0142723 0.0495475 -0.0124343 -0.00422265 0.0533913 0.00339607 -0.000140968 0.0504318 
0.0255285 -0.00739135 0.0460643 0.0372225 -0.0042619 0.0479971 -0.0414467 0.00163794 0.0464564 
-0.0289537 0.00833405 0.0457602 -0.0100463 0.00463421 0.0469175 -0.0193941 0.00781094 0.0525565 
0.0147182 0.00334227 0.0520451 -0.0392963 0.0136825 0.0457974 -0.0299583 0.0193872 0.0487862 
-0.0208777 0.0165536 0.0453768 -8.5476e-05 0.0102448 0.0459396 0.00333261 0.0161656 0.0536831 
0.0299753 0.0098916 0.0483137 -0.0037927 0.0257727 0.0518106 0.012563 0.0212985 0.0499001 
0.0216212 0.0202512 0.0458139 0.0272728 0.0247763 0.0534879 -0.0233664 0.0330947 0.0522396 
-0.0123755 0.0320757 0.0509882 -0.00303051 0.0378318 0.0516963 0.0167699 0.0316476 0.049463 
-0.00197681 -0.0320506 0.0579106 0.0229231 -0.0343028 0.0572029 -0.0356621 -0.0200192 0.0563041 
0.0116372 -0.025587 0.0587337 0.0358668 -0.0215278 0.056384 -0.0180626 -0.0172409 0.0557895 
0.00702602 -0.0159942 0.0606264 -0.0293596 -0.00583827 0.0574237 0.00655217 -0.00592928 0.0613941 
0.0308872 -0.0047011 0.0647758 -0.0394405 0.006272 0.0568179 -0.00439831 0.000731268 0.0585043 
-0.0294208 0.0143887 0.0596516 -0.00612054 0.012651 0.0580766 0.019776 0.0149335 0.0564596 
-0.0235891 0.0218167 0.0561153 -0.0122417 0.0232959 0.0576134 0.00530935 0.0290335 0.0572431 
-0.0115325 0.0369734 0.0601579 
VERTICES 70 140
1 0 
1 1 
1 2 
1 3 
1 4 
1 5 
1 6 
1 7 
1 8 
1 9 
1 10 
1 11 
1 12 
1 13 
1 14 
1 15 
1 16 
1 17 
1 18 
1 19 
1 20 
1 21 
1 22 
1 23 
1 24 
1 25 
1 26 
1 27 
1 28 
1 29 
1 30 
1 31 
1 32 
1 33 
1 34 
1 35 
1 36 
1 37 
1 38 
1 39 
1 40 
1 41 
1 42 
1 43 
1 44 
1 45 
1 46 
1 47 
1 48 
1 49 
1 50 
1 51 
1 52 
1 53 
1 54 
1 55 
1 56 
1 57 
1 58 
1 59 
1 60 
1 61 
1 62 
1 63 
1 64 
1 65 
1 66 
1 67 
1 68 
1 69 

POINT_DATA 70
FIELD FieldData 7
id 1 70 int
1240 1230 1606 801 348 739 982 355 224 
2092 82 1450 1335 1231 599 318 22 2101 
1038 858 1721 286 1605 1068 2075 722 1780 
657 2095 1562 1258 1857 668 535 546 1176 
1478 1489 1100 1646 364 153 1148 1435 257 
2083 1546 1515 1685 1822 1064 1962 851 821 
810 1010 1936 1983 1510 1192 183 2126 522 
1350 1286 281 447 962 148 936 
type 1 70 int
2 2 2 2 2 2 2 2 2 
2 2 2 2 2 2 2 2 2 
2 2 2 2 2 2 2 2 2 
2 2 2 2 2 2 2 2 2 
2 2 2 2 2 2 2 2 2 
2 2 2 2 2 2 2 2 2 
2 2 2 2 2 2 2 2 2 
2 2 2 2 2 2 2 
i 3 70 int
0 0 0 0 0 0 0 0 0 
0 0 0 0 0 0 0 0 0 
0 0 0 0 0 0 0 0 0 
0 0 0 0 0 0 0 0 0 
0 0 0 0 0 0 0 0 0 
0 0 0 0 0 0 0 0 0 
0 0 0 0 0 0 0 0 0 
0 0 0 0 0 0 0 0 0 
0 0 0 0 0 0 0 0 0 
0 0 0 0 0 0 0 0 0 
0 0 0 0 0 0 0 0 0 
0 0 0 0 0 0 0 0 0 
0 0 0 0 0 0 0 0 0 
0 0 0 0 0 0 0 0 0 
0 0 0 0 0 0 0 0 0 
0 0 0 0 0 0 0 0 0 
0 0 0 0 0 0 0 0 0 
0 0 0 0 0 0 0 0 0 
0 0 0 0 0 0 0 0 0 
0 0 0 0 0 0 0 0 0 
0 0 0 0 0 0 0 0 0 
0 0 0 0 0 0 0 0 0 
0 0 0 0 0 0 0 0 0 
0 0 0 
v 3 70 double
-0.009979827225 0.054288307518 0.084458571811 0.069383568828 -0.10189999514 0.20669651253 -0.14897705224 -0.19843430788 0.21021824311 
0.058814396924 0.15851101823 0.2015490874 -0.084802013745 0.048278624859 0.067190174844 0.1104904188 -0.034757080679 0.37387782718 
-0.06986010132 0.00094019250219 0.098372029306 -0.098145821795 0.065054551768 0.018498502312 -0.11727425055 -0.010785042587 0.14297482432 
-0.082394334489 0.0045338037171 0.084257118984 0.033562379118 0.036465869718 0.15129560462 0.016218033227 -0.11260016545 0.11181999294 
0.15815115037 0.18073767422 -0.35262865381 0.015113333862 -0.081100050784 0.1150681209 -0.038903971032 -0.16792000796 0.14306669128 
0.2372506887 -0.11807988817 0.084814157789 -0.14716677893 0.21351418987 0.038651987884 0.14726658447 -0.018562341812 0.34841375676 
-0.11502395843 0.22569493455 -0.040034116961 0.04610402192 -0.070156072308 0.094372196356 -0.063773695156 -0.19913158625 0.13398169017 
-0.27392111766 0.22647465173 0.073742583847 -0.13864299615 -0.061038725308 0.099673905084 -0.017020910522 0.50209267623 -0.12653575196 
-0.12193968643 -0.15241075698 0.2462036011 -0.044427718575 0.13188363256 0.23010273131 -0.11803056462 -0.041369429039 0.36105823031 
0.093696834717 -0.039318641207 0.17255694542 0.016206236644 0.026358458838 0.20186238851 -0.050404878349 0.014933209152 0.19626501516 
0.04244442106 -0.076611170277 0.18720420476 -0.031499219217 0.046188399358 0.27866013878 -0.042415651578 0.13662205398 0.19382007191 
-0.071278022872 -0.012474818268 0.081006667037 0.14113454915 0.15390102333 0.24336520155 -0.071809505578 0.012258871894 0.18826530248 
-0.12618669778 -0.26166555347 0.12380571936 0.18890973093 0.27324164383 0.08264086324 -0.031711579228 -0.090253702956 0.052944362599 
-0.066638321715 0.013168788514 0.076083443794 0.071685673508 -0.052859129825 0.056746850011 0.099279086535 0.062769878702 0.16123676137 
-0.10106777223 -0.096676828111 0.31197071538 0.26789463441 0.14856012048 0.056162786183 0.070136633205 0.18757191071 -0.026438848982 
-0.0317048498 0.086247698709 0.022607847927 0.12953859207 -0.27161229002 -0.016414536722 0.038793889581 -0.024130586127 0.23988637444 
-0.09223151104 -0.009527689563 0.3224605341 0.05245782033 -0.14387114407 0.3405160572 0.090720683818 -0.31176040992 0.04486552211 
-0.21042236833 0.050316098162 0.093621494155 -0.045469786525 0.10429576829 0.31173769678 -0.01799077129 -0.12159701197 -0.19001220344 
0.14449372104 -0.13069692426 0.493202455 0.060123438826 -0.061019165492 0.33021723276 -0.015341860139 0.45775187036 -0.17785284384 
-0.065346166694 -0.026145674129 0.37529635649 -0.45594490358 -0.032915735487 -0.09457886583 -0.11504638105 0.19930798207 0.52241334528 
0.10100429214 -0.10798625224 0.57747949184 -0.092110368413 -0.59584403926 -0.053373239685 0.12526735786 -0.062124942319 -0.097337100224 
0.10393145774 -0.43506762169 0.12670662093 0.17964574865 0.20789265892 -0.055626400785 0.10530915971 0.31483776126 0.34692711219 
0.33538533449 0.066874286628 0.045483220079 0.079370991997 -0.330855142 0.25807222241 -0.30927503824 -0.28393413981 0.07845420624 
-0.14376368051 0.098966400242 -0.23833944014 
f 3 70 double
0 0 -0.0012841259972 0 0 -0.0012841259972 0 0 -0.0012841259972 
0 0 -0.0012841259972 0 0 -0.0012841259972 0 0 -0.0012841259972 
0 0 -0.0012841259972 0 0 -0.0012841259972 -0.03950169889 0.27253589371 -0.17813946256 
0 0 -0.0012841259972 0 0 -0.0012841259972 0 0 -0.0012841259972 
0 0 -0.0012841259972 0 0 -0.0012841259972 0 0 -0.0012841259972 
0 0 -0.0012841259972 0 0 -0.0012841259972 0 0 -0.0012841259972 
0 0 -0.0012841259972 0 0 -0.0012841259972 0 0 -0.0012841259972 
0 0 -0.0012841259972 0 0 -0.0012841259972 0 0 -0.0012841259972 
0 0 -0.0012841259972 0 0 -0.0012841259972 0 0 -0.0012841259972 
0 0 -0.0012841259972 0 0 -0.0012841259972 0 0 -0.0012841259972 
0 0 -0.0012841259972 0 0 -0.0012841259972 0 0 -0.0012841259972 
0 0 -0.0012841259972 0 0 -0.0012841259972 0 0 -0.0012841259972 
0 0 -0.0012841259972 0 0 -0.0012841259972 0 0 -0.0012841259972 
0 0 -0.0012841259972 0.03950169889 -0.27253589371 0.17557121056 0 0 -0.0012841259972 
0 0 -0.0012841259972 0 0 -0.0012841259972 -0.77780685916 0.19803688823 0.38351108254 
0.77780685916 -0.19803688823 -0.38607933453 0 0 -0.0012841259972 0 0 -0.0012841259972 
0 0 -0.0012841259972 0 0 -0.0012841259972 0 0 -0.0012841259972 
0 0 -0.0012841259972 0 0 -0.0012841259972 0 0 -0.0012841259972 
0 0 -0.0012841259972 0 0 -0.0012841259972 0 0 -0.0012841259972 
0 0 -0.0012841259972 0 0 -0.0012841259972 0 0 -0.0012841259972 
0 0 -0.0012841259972 0 0 -0.0012841259972 0 0 -0.0012841259972 
0 0 -0.0012841259972 0 0 -0.0012841259972 0 0 -0.0012841259972 
0 0 -0.0012841259972 0 0 -0.0012841259972 0 0 -0.0012841259972 
0 0 -0.0012841259972 
radius 1 70 double
0.005 0.005 0.005 0.005 0.005 0.005 0.005 0.005 0.005 
0.005 0.005 0.005 0.005 0.005 0.005 0.005 0.005 0.005 
0.005 0.005 0.005 0.005 0.005 0.005 0.005 0.005 0.005 
0.005 0.005 0.005 0.005 0.005 0.005 0.005 0.005 0.005 
0.005 0.005 0.005 0.005 0.005 0.005 0.005 0.005 0.005 
0.005 0.005 0.005 0.005 0.005 0.005 0.005 0.005 0.005 
0.005 0.005 0.005 0.005 0.005 0.005 0.005 0.005 0.005 
0.005 0.005 0.005 0.005 0.005 0.005 0.005 
omega 3 70 double
10.294887039 2.6012190151 9.921373302 21.401850908 -18.539420213 0.59840699056 -5.2504844176 1.6997832681 9.7578264904 
24.438635846 20.966899758 1.7042270802 -28.740795309 -16.863643932 2.9317928814 2.6734574016 -37.220482753 35.541819945 
5.7994551772 -1.1037387106 5.7672378266 -6.4370359275 8.5239985738 -15.120108759 -2.8391783565 40.698952686 24.486139424 
28.288803412 -3.2555501114 11.62512725 -15.920650236 -4.4374022391 -1.1237630677 20.810388277 8.4915716515 25.030666718 
26.576709009 3.0412232698 5.6556705041 -12.39492665 -7.0084790337 2.6261183145 27.969790774 7.4321226157 14.159297301 
18.631547748 -57.475017065 36.302718886 -9.4805777675 -8.2316087417 -16.490432745 -27.83903071 -4.205333099 23.439749491 
36.909149386 14.505702774 -32.877503979 6.1765154404 -24.881533407 -7.0480502408 -9.3863516397 15.346779821 -42.660348319 
16.706806898 -25.871643525 -14.080701758 -28.60101821 -0.97660691403 1.379852865 59.82569793 21.654155583 -38.329912559 
27.196071773 1.1100035267 -26.851979009 -50.107164009 35.198516942 17.187651574 -13.927421858 -13.609670467 -8.5373368082 
-9.1980242386 2.1506305192 7.9485929158 -22.572818162 -26.94439071 44.504066035 -6.4384295702 10.395223851 -2.561016491 
2.0626807972 -15.108166725 -10.494986322 38.485532536 21.110719405 18.522980367 -21.133634337 -24.672998678 8.4057334622 
56.589384048 -25.545480442 36.005244325 8.6817649012 1.2450361743 1.2621124983 1.1258616135 23.242923055 -8.0085159208 
14.203560392 -4.2023277041 -18.563855692 -31.595159223 -15.323217668 9.6246381529 0.12785946201 30.988115774 13.366842414 
17.550431733 -23.390734508 -8.9566157105 40.184228884 -12.588800409 6.0696802713 9.1258207807 -1.0247309319 15.270463262 
-35.422291602 0.23189926298 24.589051351 9.1317058855 2.1780653875 63.317833169 45.972263708 20.453792773 -24.577691694 
-19.606651757 -28.369284077 2.4412241722 36.940196175 -3.5407972238 -6.8517228278 39.677385568 -15.311246284 -5.329815987 
26.570665142 -55.300433013 -23.776995398 -24.850911712 -19.182858029 -33.501997906 7.9306122914 -1.5088046924 -7.9301357125 
-17.839469744 32.297529855 -5.5787038575 -6.3271070582 10.319213474 10.931423467 54.059353879 27.949220946 -45.949431209 
18.018944207 -6.3104409335 47.237167651 -1.5691187558 29.111635475 6.3219126424 -14.629284867 7.4182544789 -2.9037207599 
14.816858938 6.9246105801 -13.648389207 3.4258618418 -49.533832491 -22.814994747 13.389624636 40.402595665 -13.464513919 
3.9397625308 -18.788818614 -17.734928144 -5.997124364 0.41470125144 2.0419590255 -8.701728269 3.0763219851 -30.04734724 
8.749372614 15.97200881 10.027641606 15.736768613 4.1835963243 -26.734189964 -3.2605351505 -30.72253976 4.2553542178 
-0.066592024765 21.99069355 12.110581868 25.996975505 11.638685601 26.740218353 96.929289473 -26.246953772 -9.3241774493 
-45.939402094 15.128629334 52.361711322 
