# vtk DataFile Version 4.2
Generated by LIGGGHTS
ASCII
DATASET POLYDATA
POINTS 70 float
0.016052 -0.0388132 0.0257493 -0.0116952 -0.0230721 0.033119 -0.00924545 -0.010834 0.0316261 
0.000647411 -0.0119592 0.0325735 0.0273883 -0.0114118 0.0293407 0.0348615 -0.0161402 0.0340283 
0.0230337 -0.003232 0.0333945 -0.0343975 0.00524752 0.0297301 0.0419198 0.00133362 0.0325262 
-0.0347856 0.0149682 0.0273814 -0.00470086 0.0141549 0.0343606 0.000350153 0.034664 0.0314805 
0.00881363 0.0410724 0.0292215 -0.0244707 -0.0207255 0.0439198 -0.0301155 -0.00178687 0.0380213 
-0.00627071 -0.00202898 0.0445365 -0.0313413 0.00813256 0.0388247 -0.0182659 0.00459511 0.0380189 
-0.00884682 0.00206937 0.0357508 0.0152963 0.0176455 0.0447927 -0.00297863 0.027998 0.0434972 
0.0190799 0.0262919 0.0401904 -0.00768777 -0.0412591 0.0492249 0.00582072 -0.0415497 0.048302 
0.00113734 -0.0343326 0.0537314 -0.0315781 -0.0147733 0.0484313 -0.0125483 -0.0198133 0.0502686 
0.0295604 -0.00307339 0.0479431 0.00927537 0.0344754 0.0528595 0.0288541 0.030329 0.0507908 
-0.0242038 -0.0326852 0.0711595 0.0101884 -0.033663 0.0733019 -0.0144173 -0.0273852 0.0729934 
0.0109804 -0.0233987 0.0717728 0.0209396 -0.0204263 0.0718162 -0.0336458 -0.0180147 0.076074 
-0.00432605 -0.0152333 0.07225 -0.0278781 -0.00968816 0.0772831 -0.0368379 0.00684566 0.0723678 
-0.010747 0.00655768 0.0759915 0.00987955 0.000375819 0.0765037 0.0340959 0.00858971 0.072364 
-0.0274773 0.0113659 0.073558 -0.0177065 0.0146635 0.0752754 -0.00211363 0.014751 0.0739252 
0.0188023 0.0145364 0.0742283 -0.0294398 0.0275013 0.0692962 0.0128397 0.0291814 0.073835 
0.00123205 0.0310185 0.0767455 0.0284435 0.029545 0.0704588 -0.0214173 -0.0330315 0.0825729 
-0.00558117 -0.0350702 0.0784452 0.0229774 -0.0331087 0.077729 -0.000696697 -0.0250078 0.0815678 
0.0309835 -0.0255094 0.0805714 -0.0150873 -0.0175073 0.0768459 0.0168923 -0.0107546 0.0800199 
-0.0115513 -0.00790193 0.0777049 -0.0403549 0.00150604 0.0803396 -0.0254029 0.000242028 0.0787788 
-0.00401524 0.0132172 0.0843638 0.00991947 0.0204353 0.0793138 0.0223469 0.0135983 0.0835958 
0.0362382 0.0156404 0.0814094 -0.00754246 0.023828 0.0819064 0.00712088 0.040514 0.0839878 
0.0272522 0.0296977 0.0833382 -0.00121716 -0.0406587 0.0868631 -0.0108411 -0.00341309 0.0891864 
0.0134804 0.0186768 0.0944925 
VERTICES 70 140
1 0 
1 1 
1 2 
1 3 
1 4 
1 5 
1 6 
1 7 
1 8 
1 9 
1 10 
1 11 
1 12 
1 13 
1 14 
1 15 
1 16 
1 17 
1 18 
1 19 
1 20 
1 21 
1 22 
1 23 
1 24 
1 25 
1 26 
1 27 
1 28 
1 29 
1 30 
1 31 
1 32 
1 33 
1 34 
1 35 
1 36 
1 37 
1 38 
1 39 
1 40 
1 41 
1 42 
1 43 
1 44 
1 45 
1 46 
1 47 
1 48 
1 49 
1 50 
1 51 
1 52 
1 53 
1 54 
1 55 
1 56 
1 57 
1 58 
1 59 
1 60 
1 61 
1 62 
1 63 
1 64 
1 65 
1 66 
1 67 
1 68 
1 69 

POINT_DATA 70
FIELD FieldData 7
id 1 70 int
44 732 385 912 837 398 663 467 720 
208 936 1157 595 1606 1986 2166 895 1438 
1371 1929 1751 1782 2710 2509 1464 2873 2267 
2790 3209 2149 5103 5509 3206 4006 4610 2454 
5420 3510 2782 3932 5397 3724 4179 3057 3364 
3228 3857 4796 5050 3909 4482 2996 3475 5353 
4989 3841 4052 3102 3770 5377 4708 4181 4280 
4362 2566 5402 2252 2640 3265 2117 
type 1 70 int
2 2 2 2 2 2 2 2 2 
2 2 2 2 2 2 2 2 2 
2 2 2 2 2 2 2 2 2 
2 2 2 2 2 2 2 2 2 
2 2 2 2 2 2 2 2 2 
2 2 2 2 2 2 2 2 2 
2 2 2 2 2 2 2 2 2 
2 2 2 2 2 2 2 
i 3 70 int
0 0 0 0 0 0 0 0 0 
0 0 0 0 0 0 0 0 0 
0 0 0 0 0 0 0 0 0 
0 0 0 0 0 0 0 0 0 
0 0 0 0 0 0 0 0 0 
0 0 0 0 0 0 0 0 0 
0 0 0 0 0 0 0 0 0 
0 0 0 0 0 0 0 0 0 
0 0 0 0 0 0 0 0 0 
0 0 0 0 0 0 0 0 0 
0 0 0 0 0 0 0 0 0 
0 0 0 0 0 0 0 0 0 
0 0 0 0 0 0 0 0 0 
0 0 0 0 0 0 0 0 0 
0 0 0 0 0 0 0 0 0 
0 0 0 0 0 0 0 0 0 
0 0 0 0 0 0 0 0 0 
0 0 0 0 0 0 0 0 0 
0 0 0 0 0 0 0 0 0 
0 0 0 0 0 0 0 0 0 
0 0 0 0 0 0 0 0 0 
0 0 0 0 0 0 0 0 0 
0 0 0 0 0 0 0 0 0 
0 0 0 
v 3 70 double
-0.0025706708406 0.0006366535128 0.0041575213417 -0.0013452541373 0.0066636138118 0.00056326760428 -8.081539978e-05 0.0012840716175 -0.0056344930804 
0.002644233551 0.0058197376636 -0.012959802421 0.002858831797 -0.00071058438715 -0.0022788993915 -0.0063568568743 -0.0022966671457 -0.0027675566367 
-0.00071892475579 -0.0047710142046 -0.0053575350103 0.00078907843333 -0.0015006043085 -0.0012739038206 0.0019265442951 -0.0069627622159 -0.0041184850352 
0.00086198369894 0.0016465720742 -0.0012747485864 0.0033982855396 0.00086110286804 0.0029004988096 0.0081169067807 0.0010348808915 0.0028838383946 
0.0091201975653 -0.0015378533216 0.00055443021384 0.0018005552029 0.003120630564 0.012537641692 -0.0050040764068 0.00093524783994 -0.0067491735346 
0.018406760972 -0.00081182637431 -0.0060606399427 0.0041772707127 0.0011795280306 -0.0036580240666 0.0027247991813 -0.0043449586339 -0.0058558015544 
-0.0039868488187 0.00079741789915 -0.0059889316321 -0.015969142678 -0.011066420444 0.0098123101494 0.005193476707 0.010275964921 0.0051257613795 
0.0065596796744 -9.6723654753e-05 0.00086830561538 -0.0002732260655 -0.026290146355 0.036258065241 0.0061777880264 0.00012930175599 0.027266282216 
0.0063784120517 0.0458770054 0.021262483512 0.0080700928018 -0.0015637133283 0.02125724417 -0.0027403289931 -0.0049982092314 0.020091631189 
-0.00075659684478 -0.015827196373 0.00048536384348 0.016492256152 0.0057324927175 0.020743426598 -0.0013995009661 0.02767720094 0.0091801336347 
-0.13850679417 0.30653827221 0.23470202327 -0.18485828164 0.093803544764 0.23950341611 -0.25059483463 0.16024348494 0.06901596339 
0.060255111282 0.066920527794 0.20930737125 0.010309493716 0.07465296593 0.26163961326 -0.19932770129 -0.080964154111 0.29642238932 
0.15637410115 0.11137053951 0.11907855363 0.10674540419 -0.26753478284 0.2550788347 0.18443097241 0.19357652608 0.23646223667 
-0.021917147228 0.0077005574134 0.31782506164 0.037363779451 -0.092951146192 0.3815798921 0.057260858702 0.07544037732 0.29297087278 
0.037929692381 0.065857523149 0.33893773439 0.00089797639419 -0.12289140174 0.26187367826 0.14181838339 0.072134797831 0.1520328421 
-0.010406802291 0.14197987816 0.30915770841 0.018128138886 0.14085874033 0.17041134636 0.075535573135 0.057435909373 0.20736974929 
0.26987228488 -0.078143085218 0.40170002133 0.17066055252 -0.081592353446 0.20589116689 -0.18487595889 0.43105478498 -0.21759710418 
-0.085908111607 0.17272693647 0.23138799451 -0.18565427476 0.23285791195 0.12405920314 -0.26443794818 -0.017562815395 0.35790037526 
-0.029999593652 -0.12336812543 0.38781335466 -0.20997025702 -0.23596152769 0.13522912423 -0.060018682155 0.14279519079 0.012235477572 
0.083906673746 0.24141567263 0.077107953583 0.16476030572 -0.15306505362 0.13009531084 0.060505536566 -0.20774190277 0.026002866532 
0.061838744916 -0.2609176215 0.36732553 0.042881855307 -0.019971991824 0.46835926555 0.065185247825 0.23686920732 0.27579358008 
0.12592695254 -0.0344925654 0.18759506332 -0.10190591694 0.20899328718 0.30244596534 0.066768927865 0.29110203794 0.089624592809 
-0.030416844473 -0.14290906355 0.29667179833 0.15497473583 0.038780146382 0.13502234763 0.022110335438 0.011655514481 0.2790000438 
0.05484104907 0.14628650218 -0.34118974262 
f 3 70 double
0.002658221161 -0.0015676050486 -0.0018517006328 0 0 -0.0012841259972 0 0 -0.0012841259972 
0 0 -0.0012841259972 0 0 -0.0012841259972 -0.0043276829114 -0.013509671 -0.012880306808 
0 0 -0.0012841259972 0.00067130667256 0.0016598326656 -0.0029080482797 0 0 -0.0012841259972 
-0.004452779587 0.0035390577618 -0.0059587798565 0.0011007795504 0.0057116601849 -0.0020903215462 0 0 -0.0012841259972 
0 0 -0.0012841259972 0 0 -0.0012841259972 0 0 -0.0012841259972 
0 0 -0.0012841259972 -0.020417040356 -0.0065662354395 -0.0029919001753 0.013255534048 -0.002304325725 -0.0095984156094 
-0.0066794486064 0.0025276360156 -0.00012363944935 0 0 -0.0012841259972 0 0 -0.0012841259972 
0 0 -0.0012841259972 0 0 -0.0012841259972 0 0 -0.0012841259972 
-0.004843083881 -0.015439622686 0.00994448321 0 0 -0.0012841259972 -0.050429741262 0.060161713366 -0.029718568825 
0 0 -0.0012841259972 -0.00040185505379 0.0069806786686 -0.0014805504051 0 0 -0.0012841259972 
0 0 -0.0012841259972 0 0 -0.0012841259972 0 0 -0.0012841259972 
0 0 -0.0012841259972 0 0 -0.0012841259972 0 0 -0.0012841259972 
0 0 -0.0012841259972 0 0 -0.0012841259972 0 0 -0.0012841259972 
0 0 -0.0012841259972 0 0 -0.0012841259972 0 0 -0.0012841259972 
0 0 -0.0012841259972 0 0 -0.0012841259972 0 0 -0.0012841259972 
0 0 -0.0012841259972 0 0 -0.0012841259972 0 0 -0.0012841259972 
0 0 -0.0012841259972 0 0 -0.0012841259972 0 0 -0.0012841259972 
0 0 -0.0012841259972 0 0 -0.0012841259972 0 0 -0.0012841259972 
0 0 -0.0012841259972 0 0 -0.0012841259972 0 0 -0.0012841259972 
0 0 -0.0012841259972 0 0 -0.0012841259972 0 0 -0.0012841259972 
0 0 -0.0012841259972 0 0 -0.0012841259972 0 0 -0.0012841259972 
0 0 -0.0012841259972 0 0 -0.0012841259972 0 0 -0.0012841259972 
0 0 -0.0012841259972 0 0 -0.0012841259972 0 0 -0.0012841259972 
0 0 -0.0012841259972 
radius 1 70 double
0.005 0.005 0.005 0.005 0.005 0.005 0.005 0.005 0.005 
0.005 0.005 0.005 0.005 0.005 0.005 0.005 0.005 0.005 
0.005 0.005 0.005 0.005 0.005 0.005 0.005 0.005 0.005 
0.005 0.005 0.005 0.005 0.005 0.005 0.005 0.005 0.005 
0.005 0.005 0.005 0.005 0.005 0.005 0.005 0.005 0.005 
0.005 0.005 0.005 0.005 0.005 0.005 0.005 0.005 0.005 
0.005 0.005 0.005 0.005 0.005 0.005 0.005 0.005 0.005 
0.005 0.005 0.005 0.005 0.005 0.005 0.005 
omega 3 70 double
-0.044368757264 0.010076115097 -0.21499751238 0.10098944827 -0.76489409415 0.019287909148 -0.59894024359 0.34577511512 0.17912421415 
-1.0102307891 0.67516648074 0.091689464254 -0.29543716505 -0.22651664908 -0.25631272424 -0.3437376087 1.1887811076 1.3912630082 
0.47011137398 -0.09478450469 -0.17788295005 0.40178637481 -0.22224846825 0.18122944994 0.61009059193 -0.12286110535 -0.79419934651 
0.056398819781 -0.66162752986 -0.90076905273 0.74552619301 -0.4225577473 0.31521112817 0.34724243521 -0.41162929124 -0.37899942642 
0.38803957056 -0.62680380207 -0.1166586286 -1.7801435329 1.1947224503 0.45690918006 -0.71203005417 -2.1572686017 -1.1151505113 
0.05419964109 2.84562668 -2.2635553047 0.18842232497 1.1543142796 -0.45990291696 -0.079874837413 -1.7337587049 0.098291673173 
0.064462712872 -0.78139118117 0.51571643246 -0.58261926271 -2.523570728 1.501283343 3.5636231577 -1.302345683 -2.2887043456 
-0.20398408359 -1.7120599302 -0.37689083234 -1.5394260303 -5.8318085903 -4.3097756516 -1.6655864975 -4.0056336258 0.40672068254 
-1.9651155448 1.1388908337 2.6325247735 -0.2182817997 -2.7787463459 1.8364017134 -5.4592249915 1.2683902719 3.445387732 
-1.0511793626 -3.706723223 0.3389597881 -6.4428377281 2.064295419 3.9810074029 6.2210576128 1.9799059447 2.3476191881 
-10.991673898 -18.537646087 -4.0828265534 -50.484289372 -20.572844437 20.051293338 2.798708535 -16.659205615 20.878271308 
14.631620654 -7.732129306 21.13681231 -7.4828869674 5.4010942629 5.3501999668 -44.862701562 -19.85120303 -14.678459642 
10.174766805 24.688952123 25.228807562 8.1563767127 -3.4063053975 27.767241697 44.983045074 10.641452029 -18.528562339 
-25.660775582 -12.878402163 -5.8192819282 -12.876192216 -48.0670424 25.561441651 -9.1080237411 19.541819804 -1.4740160811 
34.247960219 -28.698609986 -18.405030038 -15.607247652 10.289489709 43.585403756 -6.8891523581 1.077965531 5.3224578731 
-21.541818133 79.62427793 37.852776356 -15.734859548 -7.9472358715 -9.5784048829 -47.638196385 25.681508134 -0.33600304202 
-23.671915869 -12.158530288 24.547665812 36.228401428 -9.2105320054 -13.02767924 12.090429785 -14.784853801 -16.957043341 
-19.061001459 -16.617697275 -4.768452131 8.414987232 -9.5734204262 -1.6632595141 -54.620026719 -5.2703335862 20.464734756 
40.192586678 -22.558487152 -23.465663085 0.78123324417 -35.969446803 -49.207722666 -11.910569952 -31.076425516 -41.193621442 
14.840591771 -30.130916816 -1.7744019243 17.701435199 -27.099887895 35.326632083 21.616250957 9.3515544408 3.56333114 
52.932249304 -0.30414902699 32.858994202 -36.183843163 22.523984297 3.8149563243 -44.957206199 -1.5347637802 25.312863458 
-15.642933269 28.569327977 -23.103454831 76.626466497 28.279614991 -2.0607853331 15.037460284 17.750054751 -6.8335990464 
11.685794522 18.464284874 5.191177497 -1.8362542152 11.129847069 -20.681221058 4.3713945604 15.055688323 -49.763934169 
45.25498437 -21.339313028 -54.648954338 
