# vtk DataFile Version 4.2
Generated by LIGGGHTS
ASCII
DATASET POLYDATA
POINTS 6000 float
-0.016769 -0.0169796 0.0122731 -0.0112132 -0.0179032 0.0120873 -0.0153475 -0.01839 0.0121737 
-0.013702 -0.0195267 0.012077 -0.00963451 -0.019199 0.0122021 -0.0120166 -0.0206476 0.0121011 
-0.0128172 -0.0180794 0.0132944 -0.0108171 -0.0169404 0.0139704 -0.0144323 -0.016888 0.0132057 
-0.0160721 -0.0177099 0.0140008 -0.0109936 -0.0191412 0.0136698 -0.0145081 -0.0189805 0.0139991 
-0.00901786 -0.0171363 0.0121528 -0.0101734 -0.0215775 0.0124256 -0.0128194 -0.0200527 0.0138714 
-0.00936524 -0.0203089 0.0138663 -0.00360765 -0.0187699 0.0120945 -0.00601991 -0.0194633 0.0122337 
-0.00389948 -0.0235291 0.0122082 -0.00833704 -0.0207696 0.012129 -0.00163064 -0.0180373 0.0123219 
-0.00711583 -0.0227409 0.0120622 -0.00699463 -0.0174336 0.0122529 -0.00269887 -0.0218461 0.0121628 
-0.0018682 -0.0237441 0.0120426 -0.00119609 -0.0204865 0.012194 -0.00517712 -0.0214519 0.0122494 
-0.00235176 -0.0195066 0.0135584 -0.00512987 -0.0178536 0.0131076 -0.00326266 -0.0168827 0.0127237 
-0.00865351 -0.0222056 0.0135746 -0.00778614 -0.0192123 0.0132608 -0.00562312 -0.0232014 0.0134183 
-0.00455367 -0.0197592 0.0137119 -0.00386523 -0.0217154 0.0137828 -0.00101911 -0.0221313 0.0134975 
-0.00682752 -0.0212352 0.0133922 0.000133719 -0.0238203 0.0120939 0.000155017 -0.0171708 0.012895 
0.00545574 -0.0211052 0.0121351 0.00208438 -0.017518 0.0122488 0.00195468 -0.0202835 0.0121975 
0.00317405 -0.021874 0.0121271 0.00750068 -0.0205433 0.0121909 0.00658918 -0.0228708 0.012334 
0.00799793 -0.0185779 0.012134 0.000287282 -0.0190235 0.0120815 0.000625502 -0.0218108 0.0122414 
0.00602804 -0.0181348 0.0122434 0.00793245 -0.0170672 0.0134506 0.00391786 -0.0199197 0.0126652 
0.00373737 -0.0180093 0.0132905 0.00459383 -0.023426 0.0123737 0.00238421 -0.0236901 0.0125672 
0.00543583 -0.019168 0.0138787 0.00577292 -0.0169893 0.0138698 0.00664736 -0.0213715 0.0138028 
0.00444626 -0.0217837 0.0137232 0.000684846 -0.0204662 0.0138768 0.00191963 -0.018845 0.0139162 
0.00868761 -0.0221679 0.0125285 0.00943712 -0.0198804 0.012631 0.011954 -0.0173714 0.0121838 
0.00963148 -0.0174479 0.0123814 0.0132637 -0.0198672 0.01225 0.0112974 -0.0192696 0.0122263 
0.0108502 -0.0212426 0.0122338 0.015035 -0.0186273 0.0123969 0.0136143 -0.0175217 0.0133536 
0.0109058 -0.0179471 0.0138574 0.0122177 -0.0194462 0.0140364 0.0168708 -0.0169264 0.0122549 
-0.0173577 -0.0161451 0.014023 -0.0181331 -0.015514 0.0121912 -0.0204055 -0.0122847 0.0121276 
-0.0183662 -0.0122278 0.0121839 -0.0215147 -0.0104761 0.0122047 -0.022339 -0.00863903 0.0122893 
-0.0185323 -0.00859031 0.0123082 -0.0193339 -0.0139516 0.0125568 -0.0200478 -0.0094572 0.0133562 
-0.0189359 -0.0110871 0.0137421 -0.0209172 -0.0114731 0.0139611 -0.0219387 -0.00964415 0.0139809 
-0.0175718 -0.0103646 0.0122436 -0.0175549 -0.00924652 0.0139243 -0.017115 -0.013789 0.0122042 
-0.0127773 -0.0163754 0.0121977 -0.0107025 -0.0159581 0.0122137 -0.0154611 -0.015452 0.0122122 
-0.0151316 -0.0134657 0.0121672 -0.0133043 -0.0126311 0.0122732 -0.0105706 -0.0100743 0.0121903 
-0.0104735 -0.0120784 0.0121783 -0.0104392 -0.0140276 0.0126694 -0.0155351 -0.0105606 0.012273 
-0.0136791 -0.00981844 0.012206 -0.0163891 -0.0087397 0.01238 -0.0162917 -0.0121869 0.0131968 
-0.0122139 -0.0110442 0.0128613 -0.0126347 -0.0144607 0.0128594 -0.0119769 -0.00865621 0.0123416 
-0.0142228 -0.0111583 0.0136758 -0.0117281 -0.0128282 0.0136594 -0.00915762 -0.00966334 0.0137019 
-0.0143638 -0.00846127 0.0135065 -0.00962064 -0.0083128 0.0122837 -0.0161294 -0.0142739 0.0139292 
-0.0108618 -0.0086493 0.0140128 -0.00875821 -0.0109597 0.0121799 -0.00871929 -0.0131005 0.0122137 
-0.00878571 -0.0151031 0.0121399 -0.00847478 -0.0120078 0.0138727 -0.00538217 -0.0155315 0.0121563 
-0.00728747 -0.0158208 0.0135019 -0.00698215 -0.0142106 0.0122083 -0.0012761 -0.0158721 0.0122021 
-0.00241827 -0.0129881 0.012439 -0.00516869 -0.0111406 0.012195 -0.00501691 -0.0134476 0.0121063 
-0.000657793 -0.0119176 0.012209 -0.00130356 -0.0100127 0.0123042 -0.00304708 -0.0109962 0.0122562 
-0.00423267 -0.00935738 0.0122866 -0.00613297 -0.00831744 0.0122455 -0.00697391 -0.0120929 0.0121413 
-0.00696321 -0.0101566 0.0127043 -0.000605502 -0.0139588 0.0121987 -0.00330115 -0.0149551 0.0121178 
-0.00404827 -0.0122717 0.01345 -0.00259819 -0.00901154 0.0134578 -0.00804103 -0.0139565 0.0140262 
-0.00191022 -0.0147495 0.0137307 -0.00620522 -0.0131731 0.0137405 -0.007499 -0.00849592 0.0138326 
-0.00427298 -0.0142807 0.0139117 -0.0011528 -0.0128087 0.0139914 0.00465799 -0.0165191 0.0122493 
0.000289678 -0.00997289 0.0135898 0.00669863 -0.0160826 0.0121974 0.000556988 -0.0143855 0.0139663 
0.000908142 -0.015431 0.0121347 0.000759202 -0.0122419 0.0136494 0.00736308 -0.0141948 0.0123138 
0.0046263 -0.0145191 0.0123197 0.00376305 -0.0126812 0.0123421 0.00740113 -0.0121928 0.012278 
0.00188449 -0.0136697 0.0121918 0.00282187 -0.0156773 0.012664 0.00563356 -0.0111943 0.0122685 
0.00204201 -0.0116386 0.0122353 0.00725605 -0.0100036 0.0122378 0.00353889 -0.00854093 0.0122503 
0.00186793 -0.00963954 0.0123146 0.00373817 -0.0105347 0.0122273 0.00540943 -0.00921619 0.0125068 
0.00610689 -0.0148958 0.0137099 0.00575019 -0.0130178 0.0130916 0.00444486 -0.0114935 0.0138553 
0.00827539 -0.00990106 0.0139812 0.00836651 -0.0119029 0.0140243 0.00258287 -0.0141699 0.014004 
0.00403218 -0.00953569 0.0139381 0.0149212 -0.016456 0.0122022 0.0120983 -0.0163324 0.0139147 
0.00876978 -0.0156184 0.0123496 0.0140219 -0.0155906 0.0137837 0.00917199 -0.0131178 0.0121903 
0.00904084 -0.0110193 0.0122979 0.0118769 -0.0136225 0.0122703 0.01275 -0.0154303 0.0122264 
0.0107627 -0.0154307 0.0124456 0.0151461 -0.0125458 0.0123572 0.0131878 -0.0120759 0.0123369 
0.0144914 -0.0144337 0.0122054 0.0111794 -0.0113766 0.0122428 0.0127699 -0.0100917 0.0122961 
0.0163318 -0.0150503 0.0127701 0.00899069 -0.00900424 0.0123429 0.0144116 -0.00857622 0.0123819 
0.0166265 -0.0111996 0.0122716 0.0147089 -0.0105883 0.0123143 0.0162436 -0.00946387 0.0132915 
0.0108926 -0.00948017 0.0128216 0.0106097 -0.0127688 0.013566 0.0150758 -0.0137079 0.0139884 
0.0142646 -0.011826 0.0140141 0.0123119 -0.0112046 0.0139452 0.0162653 -0.0120709 0.0140419 
0.0132468 -0.00901865 0.0139781 0.0100874 -0.0108843 0.0140149 0.0171494 -0.0132293 0.0126392 
0.0183054 -0.0154126 0.0122683 0.0206721 -0.0121255 0.0123236 0.0186282 -0.0119033 0.0123971 
0.0195272 -0.013779 0.0123774 0.018115 -0.0099719 0.0128007 0.0200613 -0.0101326 0.0123671 
0.0219696 -0.00953626 0.0122876 0.0213684 -0.0108444 0.0137029 0.0194024 -0.0110757 0.0140606 
-0.0204482 -0.00782465 0.0122479 -0.0227704 -0.00746621 0.0138538 -0.0176602 -0.00727411 0.013575 
-0.023058 -0.00608429 0.0124241 -0.0180303 -0.00274767 0.0122473 -0.0198186 -0.00432618 0.0122955 
-0.0190334 -0.00628942 0.0124736 -0.0219054 -0.00410761 0.012321 -0.0238457 -0.00255834 0.0124776 
-0.017309 -0.000653324 0.0124661 -0.0238494 -1.2964e-06 0.0123415 -0.0210547 -0.00591988 0.0123843 
-0.0207072 -0.00249014 0.0123444 -0.0192538 -0.00111761 0.0123899 -0.0223099 -0.00127804 0.0123713 
-0.0180938 -0.00459701 0.0132897 -0.0234899 -0.0042372 0.0135384 -0.0208651 0.000102496 0.0122795 
-0.0192735 -0.00269079 0.0138953 -0.0221405 9.05813e-05 0.0138229 -0.0169857 -0.00591218 0.012261 
-0.016978 -0.00305687 0.013948 -0.0133242 -0.00717705 0.012379 -0.0153458 -0.00703145 0.0125061 
-0.00912486 -0.00730532 0.0139808 -0.0124092 -0.00253077 0.0123035 -0.0142167 -0.00338303 0.0123791 
-0.00980806 -0.00630224 0.0123392 -0.0118997 -0.00519031 0.0123072 -0.00908136 -0.00257869 0.0123823 
-0.0159906 -0.00243773 0.0123206 -0.010728 -0.00144685 0.0122844 -0.0142357 -0.00138151 0.0123596 
-0.00891239 -0.000586162 0.0123402 -0.0158787 -0.00436644 0.012911 -0.014209 -0.00538286 0.0124793 
-0.0100901 -0.00432129 0.0123349 -0.0124864 -0.00061774 0.0129577 -0.011527 -0.00691748 0.013248 
-0.0108522 -0.00296252 0.0135884 -0.0127611 -0.00399319 0.0136593 -0.0159082 -0.00104234 0.0138531 
-0.00969779 -0.00137351 0.0140267 -0.000594287 -0.0081419 0.0122967 -0.00807509 -0.00529639 0.0123211 
-0.00125545 -0.00266174 0.0122967 -0.00238781 -0.00713267 0.0123806 -0.0020053 -0.00464779 0.0122517 
-0.0036573 -0.00347192 0.012348 -0.00550146 -0.00439196 0.0122858 -0.00128895 -0.000661364 0.0122815 
-0.00496028 -0.000438894 0.0122607 -0.00790132 -0.00729037 0.0122778 -0.000652867 -0.00611684 0.0124624 
-0.00615556 -0.00629269 0.0122739 -0.0030708 -0.00156144 0.012397 -0.00711202 -0.00146294 0.012318 
-0.00728202 -0.00345943 0.0124023 -0.00383119 -0.00544798 0.0126732 -0.00437971 -0.00737035 0.0126118 
-0.00534417 -0.0023958 0.0124201 -0.000707948 -0.00405909 0.0136683 -0.00814621 -0.00426029 0.0140643 
-0.00748934 -0.00615264 0.0140341 -0.00251489 -0.00281012 0.0138636 -0.00584761 -0.00729836 0.0139757 
-0.00789391 -0.00227638 0.01397 -0.00617482 -0.00336644 0.0140663 -0.00396808 -0.000426202 0.0140016 
-8.92846e-05 -0.000375994 0.0139616 -0.00778807 -1.5801e-05 0.0139611 0.00725246 -0.00785524 0.0123502 
0.00262156 -0.00807173 0.0139648 0.0083349 -0.00742629 0.014012 0.00535612 -0.00722625 0.0122625 
0.000460667 -0.00163721 0.0125013 0.000745057 -0.00372652 0.0122902 0.00482706 -0.00522134 0.0123202 
0.00769036 -0.0024192 0.0122862 0.00622069 -0.0037826 0.0123093 0.00228593 -0.00244896 0.012312 
0.00142441 -0.00561562 0.0121827 0.00428712 -0.00317325 0.0122842 0.00813701 -0.00437456 0.0123519 
0.00385996 -0.00121053 0.0122747 0.00724555 -0.000468653 0.012314 0.00192941 -0.00027049 0.0123255 
0.00153631 -0.00763382 0.0123418 0.00332953 -0.00654673 0.0122868 0.00576354 -0.00182209 0.0123192 
0.00680124 -0.00588633 0.0126042 0.00275928 -0.00430036 0.0129422 0.00469305 -0.00635347 0.013964 
0.00739072 -0.00345211 0.013987 0.00543648 -0.00293746 0.0139476 0.0010851 -0.00278021 0.0140274 
0.0124035 -0.00810335 0.0123169 0.0162284 -0.00773616 0.0122808 0.0104039 -0.00758095 0.0123893 
0.00856055 -0.00183067 0.0140373 0.00872983 -0.0063994 0.012338 0.011471 -0.00227109 0.0123055 
[...]
POINT_DATA 6000
FIELD FieldData 7
id 1 6000 int
1048 837 1265 561 587 14 391 393 708 
727 547 618 186 49 630 83 179 108 
1655 944 980 1455 195 631 1737 533 556 
412 889 158 789 1789 68 1416 719 1176 
367 222 639 1242 300 192 297 1540 986 
117 1081 591 419 256 714 298 305 37 
717 483 216 1543 227 287 326 955 1908 
1136 605 876 1810 833 578 230 331 371 
1169 1130 1212 588 595 1226 1793 197 493 
701 40 723 1203 1673 569 204 224 874 
1106 1017 151 383 441 372 142 816 1278 
961 534 549 1154 632 131 344 456 260 
846 1132 12 1300 223 1464 1095 1053 123 
1070 67 584 946 500 1360 455 259 663 
741 700 712 61 497 781 904 558 404 
373 81 279 1064 1255 115 348 550 2293 
1367 219 867 1716 620 2113 56 989 1219 
1429 581 1658 1978 199 797 1248 360 129 
1103 1380 1390 13 1772 239 323 1096 1038 
1092 1063 1827 273 1938 707 691 919 1868 
105 3250 2105 174 3170 1313 268 3188 2142 
998 1100 2852 1098 784 966 2669 1460 590 
1131 711 593 1662 628 840 908 1640 909 
1034 8 4358 1651 1921 1400 5020 4536 3853 
1569 2931 5931 1107 5773 565 514 1089 650 
1004 15 426 1317 552 810 716 143 832 
4001 21 501 392 1986 102 954 154 1586 
511 1395 399 611 772 607 1001 551 1349 
1040 301 762 1332 385 258 451 1031 479 
825 988 97 615 540 829 1447 678 469 
673 526 171 4 571 495 658 362 1205 
604 351 805 253 692 88 345 1123 359 
532 132 1718 30 646 238 774 856 315 
1764 474 594 82 1104 226 415 1458 215 
187 731 516 773 674 1481 1146 934 95 
636 1442 841 202 1159 478 530 208 765 
623 269 188 1125 826 686 3 440 446 
423 267 1005 167 918 566 181 1445 938 
414 266 802 379 2011 4880 1615 4497 3467 
6070 5556 5774 2595 4470 6014 2424 5068 4671 
5904 5775 1247 3090 2549 5486 3248 5623 693 
2215 4426 1495 189 5610 2720 1530 5740 1072 
5766 4697 2169 124 3349 3713 144 4748 1715 
542 537 499 1356 3131 4248 3524 2154 866 
1352 2923 1468 1126 308 2799 3546 504 1561 
737 340 749 1689 2608 4303 134 2481 264 
58 135 529 651 196 520 669 127 696 
1477 752 303 912 1945 386 140 1117 635 
1392 1670 1286 513 783 450 1149 968 263 
311 321 110 1635 1822 582 427 1027 482 
448 397 824 865 517 1225 389 233 325 
1301 914 1365 1181 1318 282 1478 5 1009 
642 492 1008 421 1500 221 2596 228 505 
1931 2478 5287 5567 5155 3837 5977 4484 4356 
5616 4137 5599 3440 5139 951 1879 5143 5708 
5011 5119 4539 4332 5825 5757 4277 5261 4735 
5171 5980 3492 3517 6002 3345 5714 5910 4616 
5571 5976 4860 4819 5246 168 3996 4101 2618 
2920 2417 4198 1249 5400 3494 4107 3594 4787 
4014 47 254 2642 5360 1333 3080 1350 1076 
1630 6 544 666 3382 4545 4422 2829 2536 
2268 1867 278 960 3447 1617 689 1424 3918 
1133 336 4561 52 1785 76 1011 3410 2245 
1579 3254 198 240 939 74 304 398 3949 
1032 1043 679 776 6008 4912 3478 5411 2708 
5928 5861 4446 5993 4461 4969 6003 5498 5692 
4213 2432 4166 5816 3591 5118 5713 3762 5684 
5650 4541 5600 5808 5491 5886 5403 4895 5248 
5185 4176 4974 3962 5959 4903 5348 5392 5760 
5066 4519 5721 4368 4117 5204 3742 5280 4032 
5195 2458 3632 5344 98 5557 995 3924 5381 
3861 3463 2682 2396 1047 2040 1685 1155 84 
817 803 981 217 896 1704 100 1260 854 
104 1015 1797 364 1643 1143 466 1314 1243 
2204 1457 10 1128 905 1829 1057 800 2022 
370 1844 1414 1025 1355 1013 1174 1572 608 
1202 234 1119 1473 477 73 443 1504 624 
957 1605 206 349 296 1674 687 1988 790 
2220 2081 1680 99 1733 214 2261 458 1147 
1633 1273 435 148 976 2233 1690 1766 1369 
2136 193 585 2184 828 1552 1018 1152 2163 
2423 2418 152 1145 1808 2617 2328 619 1892 
1215 2697 2653 2447 1597 1701 11 1628 553 
1022 314 2072 2542 2237 3735 1312 3322 2016 
2234 1291 2348 2078 1439 17 4351 1188 1428 
1153 428 289 172 525 438 26 794 1914 
722 1555 1231 2123 1201 33 2616 1319 4375 
3073 2076 3149 4281 4792 3346 1554 1486 3535 
1357 1840 4712 1121 1729 3331 4121 3774 1942 
332 293 2264 2456 2267 2678 2416 3897 2919 
2519 4687 1854 2612 1636 3370 1389 2474 1866 
1792 46 2793 4285 3168 2013 596 1023 637 
1553 878 334 2673 1102 4502 3104 2997 1221 
3275 3911 2115 1928 4271 2935 4103 3765 2747 
2977 3966 1705 2402 3359 2393 4808 4861 4390 
3126 3788 2533 3118 2886 4730 3444 3857 3529 
2399 271 1576 1006 1574 494 735 1463 1310 
1753 1329 1747 1426 1890 1288 69 990 750 
2341 682 1371 769 2129 378 114 1707 1093 
460 1425 857 1362 1075 2007 2345 1026 1679 
509 1751 2274 2721 2376 2457 231 1652 453 
1167 2160 2497 508 1714 713 285 429 598 
888 468 941 685 94 764 353 562 210 
347 275 407 901 237 1452 242 1141 1274 
2097 309 1253 913 1523 368 1021 2092 1703 
225 1120 1575 1611 72 320 160 775 155 
250 1592 1498 1246 510 563 1224 999 276 
1184 2159 1222 1462 241 576 337 884 1421 
1992 1508 1077 2075 463 1091 1336 519 1932 
1991 2185 557 2111 1531 1513 970 1041 86 
923 873 572 498 724 1180 785 777 318 
570 64 1549 1087 1158 1110 1266 207 1045 
850 522 1739 1309 244 2 738 1060 885 
1517 1012 656 949 156 1869 523 48 891 
792 235 710 947 1884 974 975 2006 1951 
1510 718 18 2384 302 1799 1223 39 437 
406 680 1538 1083 1144 1571 417 1638 1999 
1995 66 734 422 133 1759 1054 1937 2960 
1603 1980 2192 1518 879 2093 725 5048 1723 
1698 1363 1228 352 1562 1584 1906 2413 177 
394 715 758 3592 1948 1475 1557 1692 2083 
342 3262 1813 2329 1476 1407 1241 1436 1065 
1016 3187 1964 2561 2157 1208 2540 1843 864 
2252 2119 2773 779 3011 488 1901 1499 201 
1512 2270 1157 3928 1800 358 1007 1904 1139 
1263 1654 1220 3706 2238 1368 2020 327 1950 
3121 42 1374 2141 2443 910 2601 768 3397 
1308 2978 2620 1936 2711 125 257 729 1624 
3150 902 130 1683 2520 2882 2008 1996 1601 
2588 1608 548 2710 2253 3627 1190 3332 2582 
648 2049 2545 1987 1757 2087 1749 1375 45 
1052 767 1645 1197 71 1886 671 953 2606 
1406 307 1968 1725 675 531 546 3223 2339 
147 1947 2751 2166 78 77 106 555 1172 
288 1819 1621 3536 870 554 893 985 759 
1489 633 926 1277 3319 2400 967 796 1812 
899 736 745 1604 232 868 1963 599 1435 
1307 1593 814 20 603 1235 629 1940 1585 
161 1138 541 778 1860 2147 894 2470 2171 
5293 87 617 2188 1343 706 1750 1370 3526 
1422 1814 1199 1820 978 1342 2674 1564 3062 
395 1251 2224 1449 1339 640 1804 2243 137 
2082 1877 1982 1037 2834 1491 1213 1828 1283 
330 760 1229 1173 1480 2742 2804 5012 2186 
3324 2462 2969 2514 1084 1334 380 539 793 
333 2061 1405 1502 191 616 1527 1535 1609 
176 1443 1028 704 872 521 141 1388 2194 
162 431 992 418 688 695 1280 925 2010 
1233 871 295 627 1588 139 606 32 416 
1434 931 795 859 782 1612 1175 1994 459 
757 574 402 2246 655 1254 1142 356 726 
43 146 1397 1620 182 118 1682 1411 1044 
811 1484 1878 1993 63 382 1150 229 2605 
983 753 211 166 1671 638 265 721 664 
545 973 834 366 175 808 150 819 1151 
34 683 457 7 763 1108 248 220 375 
559 449 205 410 690 958 465 153 1770 
1275 312 173 16 1024 1913 1787 369 481 
1331 994 90 852 165 756 1051 932 1080 
387 1323 93 703 272 1293 649 1664 1695 
462 1111 1348 892 1385 180 1311 1354 1438 
350 23 1193 1148 190 2156 2429 1036 1376 
1731 489 1566 897 1105 447 274 959 357 
634 681 564 728 1539 59 613 433 1441 
92 101 860 461 341 863 1118 113 159 
38 676 1186 1377 1074 411 823 1506 1189 
1479 1086 2045 1085 906 1494 138 524 771 
1713 62 471 1851 54 838 969 1786 409 
567 720 1519 560 791 1889 788 527 496 
467 698 476 1565 355 1919 916 1417 1949 
70 1474 1595 1881 1544 27 1137 665 1623 
1842 185 1450 280 338 1029 405 1379 1285 
1925 1207 396 1039 921 270 935 245 942 
1801 25 1259 1240 1537 491 812 855 473 
390 281 1720 1211 1528 1408 1050 660 452 
420 1 746 512 844 1019 157 1483 699 
1501 2282 1520 1090 1341 1959 31 937 1451 
1591 730 1394 1748 1691 645 963 1895 475 
787 1497 1002 1985 251 503 1423 1629 365 
1287 1818 900 1790 577 1974 1306 120 80 
1696 434 1580 1272 2131 51 490 464 445 
987 486 1046 1752 246 1926 2165 29 1846 
1216 236 361 600 1721 1191 1010 1979 1509 
3234 1101 1340 2219 2197 2324 2752 22 2687 
2904 1503 835 262 984 1756 1967 2038 2138 
1693 2263 1893 1533 53 3114 1891 1646 3943 
1071 1470 1433 2465 2070 1708 2526 2206 1296 
3046 2510 4221 5743 3342 3180 5508 1492 4443 
647 818 6001 3083 5833 3422 5850 5793 122 
2658 5334 3295 5281 454 4056 3117 5324 5891 
4335 4473 5353 5018 6064 4160 5581 5882 4843 
4388 5901 5824 4055 3997 5805 5930 5464 4421 
5987 5799 5926 3607 5946 5472 5231 1823 5635 
4909 5131 5794 4674 3792 5229 3648 5539 2395 
2102 5073 5554 5266 4728 5214 5576 3176 5125 
5815 5569 3258 5900 5095 1127 1069 4036 4639 
4628 1809 614 3538 3152 4191 4073 2802 2104 
4222 5047 5568 5563 4207 6017 2625 322 2167 
5430 1454 3642 5027 3894 5292 3302 4679 213 
2647 2535 3078 1957 4408 4848 4807 761 3822 
1187 6038 5196 5150 3193 1850 5310 2240 3922 
2551 5029 3892 2569 4757 3348 3160 4534 4522 
3462 4758 354 3477 1399 3027 652 2358 65 
4430 515 1217 1299 2532 119 799 751 1099 
3108 849 2504 4019 3259 200 2098 3191 3652 
3838 1290 1387 543 2262 2179 335 2500 845 
1989 1717 2307 116 2152 929 2847 3401 1166 
1420 2492 668 2516 1627 2249 2117 2621 2405 
400 377 1923 2828 2094 1613 2043 1761 1337 
2177 2677 1372 3578 936 2463 1541 2761 1466 
1678 2666 3053 3623 1315 2553 1665 2703 1650 
4400 869 346 622 770 1647 743 754 1058 
1330 1347 1066 164 1250 1097 1427 1594 853 
1214 821 626 807 1269 813 880 1412 2772 
1728 1059 2954 583 1547 1782 1109 1876 659 
877 145 1003 2132 2501 1281 1773 861 316 
1916 3424 1929 2202 2453 28 1409 2127 2879 
667 1983 2300 2336 430 2116 1915 943 597 
580 1784 111 1116 1386 1378 376 485 2291 
1496 684 306 733 381 1668 1872 178 1614 
1453 575 1952 2172 1192 1094 1847 96 1796 
1162 798 915 621 1735 149 2449 2107 2137 
2055 528 2029 1897 1706 1068 1710 1661 945 
1204 75 2100 1758 1875 1160 1736 1622 917 
1653 2573 2866 1419 2162 1780 2649 2632 2056 
1688 1769 2484 2373 2925 3220 1556 506 1582 
439 996 809 424 1014 1179 2306 1834 907 
363 109 971 847 1056 487 24 480 1981 
2071 2433 2375 277 1322 1033 2679 2893 747 
2120 1403 839 2831 670 2915 2228 2494 1573 
2112 1446 1771 2851 1467 4453 2471 3400 1583 
3369 1734 3019 875 2499 890 1649 2652 2347 
2629 3003 3893 2109 2746 3521 2409 2548 2718 
3725 4133 3905 2126 3471 2538 3379 2421 3380 
5052 5951 4659 5966 5709 5779 4965 5957 4367 
5677 5722 4571 4209 6000 3730 5141 4201 6031 
5466 5339 5199 5419 5537 5788 4976 5538 4959 
5356 5919 5758 4152 5105 5685 5737 3696 4920 
4343 5622 5040 4894 5135 5039 4023 5271 4887 
5938 5082 5492 5235 5670 5398 3388 4720 5663 
4557 5660 5178 4157 5836 6058 5288 5967 5252 
5213 5335 5521 3881 5932 4900 4428 5847 5432 
5994 4299 6007 5839 4727 4617 4310 6024 5420 
5520 6040 4677 5674 4769 4319 4459 3045 5803 
5939 5724 5590 6026 5409 5638 5256 5308 5728 
5470 5817 4229 5519 5028 4341 5208 5090 4028 
5565 5669 5321 5877 5227 5501 4681 5578 4922 
6006 4702 5475 4747 5701 5619 5223 5236 2430 
2941 4525 5138 5424 4063 3064 5741 6023 1871 
5612 4675 5301 3649 6065 4991 5474 3681 5046 
5527 3186 4110 5585 4833 5535 5154 4910 4150 
3736 5435 4172 4759 4598 2064 6022 3731 3219 
4938 5870 2146 4939 5099 5405 4119 5745 4661 
5647 4665 4719 4049 4178 4986 5471 4338 5342 
4568 4954 4977 4512 2486 1848 2391 313 2583 
3402 1234 2313 3836 3606 5703 2308 1381 2684 
107 2867 2735 3225 1927 3563 4917 2351 2099 
5311 2912 5394 2335 1600 3862 4489 2789 2995 
3960 3740 5158 4118 470 4924 4602 3863 2281 
4610 2223 3373 4167 3603 4901 4436 2714 4514 
4656 4100 4413 4726 3539 3249 4188 3151 3963 
3047 2933 4711 4523 4546 3572 4389 3709 3865 
2724 3504 4021 2947 4405 1836 786 2041 979 
2297 3611 79 19 184 57 702 169 2633 
2524 2290 1383 2242 1524 2661 612 2436 41 
1883 2993 91 2288 2354 881 2018 2103 2786 
3635 3122 2880 3655 2284 2050 2522 4006 4158 
3361 2699 3227 3437 4531 3127 3084 3626 4145 
2325 4657 4486 4268 4313 3799 3771 1185 2080 
317 2643 1965 343 1182 35 2296 425 2164 
2640 830 112 255 2074 3431 1656 291 804 
2379 780 2004 2729 328 1806 2865 3106 1984 
2381 3134 3434 3051 3859 2657 2121 3775 2158 
3274 3469 3549 3567 1742 2110 3614 3787 4850 
5112 5359 5002 6050 5604 4417 5792 5515 6048 
4851 5999 5100 5241 6068 5806 5608 5731 4037 
5813 5975 4129 5177 5875 5203 5461 5739 5898 
5549 4650 6037 4513 5153 4770 5883 4952 5079 
4635 5864 5968 5506 4501 4043 5245 4246 4214 
5869 5460 4950 5719 3819 4907 2570 4852 3778 
5699 5828 5730 5736 5389 5075 5923 5707 5383 
4972 5300 5351 5410 5414 6051 5712 6049 5522 
5984 5948 5189 5469 4585 5587 4346 5888 5206 
5449 5845 5627 5458 5015 5523 4997 5207 4732 
4383 5366 5468 4432 4165 5485 5336 4987 5643 
5996 5550 5960 4788 5425 4846 5390 4439 5404 
3267 4521 5908 5907 4913 5863 5717 4387 5094 
5312 5106 5686 3266 5624 5936 3101 5844 5767 
5704 5630 5800 5896 5818 6020 5786 4723 243 
4058 5667 6018 5998 4369 5514 5110 3279 5879 
3981 5763 4407 4874 5222 5140 5168 4494 4701 
4698 4330 3542 4821 5379 5355 4261 5961 5345 
5322 4812 5317 3936 5941 5927 5762 4393 5614 
5526 5917 4575 5422 4837 4856 4683 5083 5782 
5166 5013 1258 3377 3873 4323 5006 5037 5764 
3022 3395 1156 3672 3043 3812 3957 3566 4147 
4580 3845 4070 1073 6045 5307 4937 5142 4076 
3537 4582 3604 3766 1115 4120 3684 6039 5852 
3576 6055 3945 5369 4463 2585 2411 1865 2389 
662 1953 2250 2189 3548 2987 3944 3016 1261 
1316 1382 1514 3693 5232 2906 1905 4066 4517 
2148 128 5034 4457 3835 1570 4648 3092 4695 
3977 4294 5942 3123 1440 2211 4797 5702 1962 
5350 3733 1859 2046 5559 962 2431 2144 60 
965 2332 2725 5194 2663 4647 589 2962 4236 
4420 3002 2059 2541 3020 1997 5117 2614 2683 
3584 1909 4412 4361 4983 1888 2732 3017 5399 
4934 4394 4840 5375 4474 1778 4958 3784 3338 
3290 3281 2928 3951 3432 5061 5831 3676 2005 
5093 2190 4477 3159 3297 4264 3486 5562 2537 
2932 3317 5395 6063 2490 3102 3065 3597 2450 
4868 4020 2963 4385 1346 1578 2459 1939 2000 
1788 1432 4591 2031 374 2378 3590 4784 1943 
2891 2592 5771 4829 2839 3291 2701 2513 3289 
2862 2715 3714 2475 2999 3613 2568 4520 4916 
4282 2872 4867 4254 4173 2822 3658 3376 3464 
3087 3703 1140 3189 4025 4098 5661 3651 1532 
4857 4811 3177 4892 2555 2323 4506 3470 4205 
3315 2750 2584 5579 3570 2564 4090 3472 3908 
3461 4083 4287 3303 2444 4673 3195 4655 2970 
3230 2442 5001 3622 2767 3425 5043 5628 4134 
4478 3232 5504 3268 5978 4366 4143 4262 4135 
5533 5943 4526 4560 2645 4881 3358 3057 5500 
1482 384 1030 2455 2491 2028 5443 89 2009 
2850 3091 183 4169 2203 2309 1863 3638 3931 
3794 2951 2644 5778 3133 5555 2814 2988 2744 
2386 4597 3550 4601 3336 2971 2801 4745 4185 
2217 2737 4691 4322 4955 3339 2464 3930 6056 
1078 2023 1954 2940 1295 1525 284 1917 1194 
3785 5373 2680 1515 1732 2366 1529 3224 2765 
50 694 3596 5662 5074 3129 1805 3988 1577 
2622 3474 3328 2212 2201 5841 2946 3677 3482 
2057 1754 4174 4296 5954 2337 2502 3809 1960 
1542 4218 5680 2370 2143 4760 3005 3824 4778 
3721 4283 2790 5820 3418 2200 3175 1684 2091 
927 2118 1000 1164 502 1134 1548 2280 218 
55 653 579 815 283 1413 294 1775 432 
2260 1042 1113 1719 1900 1327 1590 1681 329 
1232 2452 2406 1488 661 1227 203 2321 2315 
247 740 2155 1493 1536 2350 2229 2609 2610 
1198 1526 1430 1568 2425 3075 249 1082 1686 
2531 2738 5021 1648 2058 1161 4224 4886 3357 
1587 3667 3805 2372 2333 1268 3015 982 1676 
2320 4836 2635 1870 5658 4717 5639 1444 1853 
609 1297 948 2025 2651 1237 1852 3198 2628 
842 654 1049 1398 1918 2285 4805 1841 705 
1020 1657 1471 2488 1894 1922 2226 886 2917 
2756 5302 1210 1973 1741 1487 2559 697 2528 
5437 1270 1359 2419 1606 2700 3902 1238 3801 
1560 1289 1625 2819 2576 2357 3035 3314 1364 
1304 2860 4244 3886 3465 5617 3718 3860 2086 
4796 1245 2095 1740 1602 3932 2636 5640 2974 
5057 4619 5407 1324 3647 3389 1902 3935 1903 
5971 4490 2722 3532 2505 2343 2591 1977 2139 
4381 3878 2810 1276 2230 3917 1858 1835 2322 
2574 1873 1302 2161 2704 5055 4468 3311 3831 
3420 3360 4216 3732 3044 1607 4637 5465 2187 
3256 4621 3505 1469 3448 3708 1709 4507 5922 
3666 3798 3200 3612 5406 4620 5426 4033 5606 
4830 3156 5107 1882 4141 2922 2053 5385 1279 
4949 1284 2286 2303 1361 2634 2437 1298 2289 
2221 5776 5611 2898 827 2589 4069 4354 3060 
3390 2739 2809 2039 3488 625 2855 3888 2777 
3887 4377 3698 2986 5146 4511 2874 4280 3757 
4223 3810 3518 6025 5325 5866 4429 2656 2175 
1930 822 1619 4896 5544 2554 5384 103 5056 
3071 5843 3146 3010 2077 2445 3800 2731 2067 
3340 4918 2876 3501 3196 5341 4841 3986 5790 
2759 2515 3983 1328 2310 739 5004 5257 3351 
2981 3059 4532 3950 5173 4247 4418 4658 2327 
1448 5749 3753 3233 2791 5438 5205 3371 3309 
1239 2482 641 1738 858 163 2209 956 1779 
36 2380 806 848 1744 1035 820 887 126 
2269 1567 1292 1837 2051 1122 507 993 930 
1642 1303 677 1802 1124 2085 1767 2730 2754 
2686 2734 299 1898 3031 1817 643 2807 1791 
1899 1461 4204 5086 4300 2033 3423 2581 5657 
1855 3099 4416 5065 4593 1933 3476 2014 2195 
3724 2873 1631 4588 518 339 2210 261 895 
1437 85 286 1384 408 766 586 1618 1326 
1344 1856 1558 922 836 1321 928 1700 310 
1325 1472 2248 1663 252 1256 898 755 2298 
403 1599 1393 2017 1178 2153 319 1267 1244 
1765 1163 1824 484 538 1639 1666 1114 831 
1794 997 1862 1282 1209 1659 2151 1465 2401 
4491 1990 991 1774 1345 1165 1743 1252 1271 
1305 1598 4267 3205 2032 1781 2733 1934 2001 
1815 1711 2367 2088 1262 194 950 601 940 
1589 2145 1230 882 2052 1079 933 1200 2168 
977 843 1456 1795 2483 1516 1088 1699 1055 
2106 1722 1294 1760 2567 2084 2613 2255 1062 
2254 2460 1845 2024 1776 2331 2377 1961 413 
2346 2388 1825 1129 1641 1697 2557 2365 2359 
1880 2412 2580 2441 5885 2599 2507 1559 1415 
1353 1634 2892 4472 2330 2983 4327 3240 2305 
2660 2479 2771 2547 2276 2670 2266 5601 170 
2205 1257 2352 610 972 2108 1969 536 1803 
121 2782 3070 2073 4007 1861 3534 2239 3088 
862 2961 2901 1839 1826 2334 2571 1358 1911 
3688 3008 2654 2943 3920 2877 3641 2778 4415 
2706 3049 2214 2689 2503 5502 3793 1798 3124 
2709 4180 2685 4705 2955 3664 4535 5609 2868 
5467 4614 3678 3105 3096 4884 3235 4828 3481 
5577 1112 1404 5314 2785 3190 3942 2672 4372 
2779 2047 3199 2527 4161 3629 644 4225 4113 
5418 3978 4708 4480 5238 5104 2727 3722 4676 
1644 4250 3119 2030 3427 4577 4495 4607 2934 
5700 2446 1976 4485 5152 4045 4108 1730 4722 
1672 4783 1351 2355 4505 4704 1966 2349 3167 
2775 4136 5972 3307 1832 3306 2878 4564 4275 
5134 4943 4054 5621 6061 4516 4975 5784 4682 
5285 3026 4492 1849 2272 3272 3763 5744 5239 
5690 4651 3618 5804 2705 3014 2979 5734 5846 
3883 4700 3620 4768 5675 5725 4961 5429 4776 
6052 4801 3980 5129 2929 3455 4312 5220 5442 
3938 5377 5561 4370 4008 5309 5296 5911 3484 
2135 5323 3901 5711 4573 3416 2805 5459 5149 
3097 5511 4324 5081 4237 3820 5234 3577 5524 
4799 3194 3600 3704 5777 5705 4935 2696 4515 
4962 4731 4195 3292 1545 3171 3109 3926 4105 
5631 3507 2518 5163 4425 5446 4862 3870 3586 
2637 4003 5986 1546 4604 4664 4452 5123 4171 
3362 2258 4384 2193 3630 5085 5543 4750 2302 
4612 3004 3940 4111 3442 2695 3074 4527 5019 
4970 3280 4181 4344 3514 4274 5286 4449 2675 
2952 2956 2626 1206 3179 2128 3970 4696 3335 
1135 1366 1830 3021 1687 3050 2438 2191 3192 
1864 2968 4164 3975 4592 2257 2218 2360 2577 
3300 1755 1783 1972 2390 2619 2861 2631 2768 
3181 2414 2496 4256 3394 1521 1183 2627 3645 
2889 2770 2392 3605 1171 3135 2048 2949 2277 
2948 3802 1955 2521 3414 3407 4613 5755 3143 
2385 2468 6041 2926 2326 5654 2723 3574 964 
2604 2760 2183 1402 2784 324 1335 2818 2353 
2899 2063 1831 136 2480 1505 1616 1924 2140 
2476 2911 2815 1702 742 2562 2976 2312 748 
2408 2019 2440 2797 3285 2587 3499 4242 1910 
3419 3598 2090 2896 2292 1626 3209 3790 1857 
1727 2864 2849 3959 3848 2967 2251 2383 3001 
2550 2026 6067 2340 3308 2900 5031 2845 3128 
4985 1724 2624 592 3343 2398 3154 1887 1418 
4130 3520 3353 4334 1712 3347 3294 2953 3132 
2231 3355 2575 3100 2848 1885 2311 2420 3441 
5060 2924 2888 3089 4804 3184 3460 4260 2232 
4738 2509 3082 2530 3844 5574 4074 3617 3583 
2607 4192 6042 4488 2062 4528 3772 4009 5518 
2648 2435 3990 2844 5710 1768 3692 1935 3803 
3386 3041 5756 2615 2265 1218 3446 4112 5262 
3496 4627 3764 3237 3921 2902 1762 4320 3639 
3858 3720 5103 4838 3072 5267 4569 4116 3511 
3350 3468 3866 5365 5374 5253 3038 2984 3473 
3795 3907 3927 3915 3243 4438 3406 4279 2788 
5408 3153 2800 2885 4993 3544 4441 4809 1581 
4971 3879 5541 5331 3438 5109 5772 5455 4092 
3182 3767 4749 5413 4455 5275 5452 6027 5233 
3729 4196 4902 6028 5326 5116 5821 4834 4890 
4360 5358 4739 5656 5644 5872 2921 5080 4177 