# vtk DataFile Version 4.2
Generated by LIGGGHTS
ASCII
DATASET POLYDATA
POINTS 5999 float
-0.0181567 -0.0411783 0.00399803 -0.014401 -0.0425458 0.00406595 -0.0105873 -0.0437428 0.00399936 
-0.00666365 -0.0445096 0.0039995 -0.00272165 -0.0438432 0.0039996 -0.00693504 -0.0405819 0.00470053 
0.00818132 -0.0442235 0.00399918 0.00111286 -0.044975 0.00399885 0.00445316 -0.0427779 0.00399864 
0.00153175 -0.0400428 0.00399979 0.0142794 -0.041527 0.00399835 -0.031267 -0.0323359 0.00400015 
-0.0217595 -0.039307 0.00403136 -0.0251632 -0.0372207 0.00455003 -0.0250318 -0.0331213 0.00399831 
-0.0216795 -0.0352995 0.00399832 -0.0214683 -0.031306 0.00403675 -0.0181513 -0.0371801 0.00404768 
-0.0116212 -0.0396719 0.00399941 -0.0144824 -0.0351994 0.00400006 -0.0179385 -0.0331863 0.00400045 
-0.0142949 -0.0311891 0.00400872 -0.0103502 -0.0319064 0.00399963 -0.00643915 -0.0310692 0.00399797 
-0.00862326 -0.0370255 0.00399857 -0.0024174 -0.0310054 0.00399881 -0.00151492 -0.0372866 0.0041128 
-0.00467343 -0.0346793 0.00399951 0.0063858 -0.0392765 0.00399995 0.00455253 -0.0325881 0.00400281 
0.00339112 -0.0365013 0.00399972 0.0084125 -0.0315317 0.00400657 0.00739114 -0.0354053 0.00400002 
0.000460812 -0.0337808 0.00409948 0.0103851 -0.0392904 0.00399884 0.0179615 -0.0394092 0.00399986 
0.0141939 -0.0375277 0.00399953 0.0167005 -0.0315726 0.00399954 0.0127438 -0.0309901 0.00399936 
0.0113333 -0.0347326 0.0040001 0.0178258 -0.0354109 0.0040008 0.0206979 -0.0314383 0.00399992 
0.0247004 -0.0324969 0.00400109 0.0218236 -0.0352801 0.00399837 0.0282712 -0.0344153 0.00399985 
0.0253543 -0.0371625 0.00400393 0.021958 -0.0392751 0.00414152 0.0281069 -0.0304009 0.00400014 
-0.040139 -0.0203552 0.00399728 -0.030627 -0.0251256 0.00399782 -0.0331005 -0.0287816 0.00399874 
-0.0363651 -0.0264711 0.00399936 -0.033255 -0.0210852 0.00436331 -0.0369303 -0.0225963 0.00481145 
-0.0292821 -0.0213603 0.00399876 -0.0253077 -0.0209283 0.00399839 -0.0215423 -0.0273079 0.00399839 
-0.0291015 -0.0288229 0.00399954 -0.0221278 -0.0233525 0.00399857 -0.0259189 -0.0251862 0.00399932 
-0.025112 -0.0291157 0.00400883 -0.0188741 -0.0209852 0.00399905 -0.0146175 -0.0270724 0.00399981 
-0.0183137 -0.0249456 0.00399985 -0.0114202 -0.0246696 0.00399962 -0.0150008 -0.0226359 0.00399898 
-0.0180122 -0.0291876 0.0039995 -0.011409 -0.0206421 0.00399951 -0.00911859 -0.0279465 0.00399998 
-0.00456374 -0.0235619 0.00399932 -0.0074064 -0.0205574 0.00400461 -0.000574945 -0.0232671 0.00399956 
-0.00124587 -0.0271708 0.0048935 -0.00523907 -0.0273815 0.00497318 0.00628186 -0.0247767 0.00399966 
0.00925196 -0.0275464 0.00399952 0.00333179 -0.0220762 0.00399923 0.00541742 -0.0286823 0.00400335 
0.00246763 -0.0259812 0.00400111 0.00160376 -0.0298864 0.00399845 0.0168521 -0.0275759 0.00399738 
0.0133528 -0.025639 0.0039998 0.0131207 -0.0216462 0.00399956 0.0167685 -0.0232873 0.00400547 
0.019915 -0.0204936 0.00399789 0.0241949 -0.0244527 0.0039981 0.0232165 -0.0283304 0.00399953 
0.0277614 -0.0215722 0.0039993 0.0202701 -0.0252201 0.00400008 0.0240015 -0.0201974 0.00401262 
0.0298117 -0.025006 0.00400011 0.0378016 -0.0242459 0.0040028 0.0336932 -0.0239244 0.00399913 
0.0355536 -0.027578 0.00403225 0.0316572 -0.0285547 0.00399917 0.0360114 -0.0206652 0.00400012 
0.0317675 -0.0203268 0.00399898 0.0400114 -0.0206079 0.00403733 -0.0436904 -0.0106802 0.00399849 
-0.0423379 -0.0151632 0.00441341 -0.0360433 -0.0136072 0.00399812 -0.0397611 -0.0121331 0.00399878 
-0.0347119 -0.0173785 0.00399917 -0.0386435 -0.016646 0.003999 -0.0305917 -0.0175821 0.00399939 
-0.0338105 -0.0102895 0.00400216 -0.0319012 -0.0138034 0.00399945 -0.0266155 -0.01715 0.00399871 
-0.024423 -0.0109008 0.00400007 -0.0233793 -0.0148016 0.00399949 -0.0220704 -0.0185812 0.00399988 
-0.0276444 -0.0132891 0.00413496 -0.0161999 -0.0179738 0.00400128 -0.0123746 -0.0162444 0.00399859 
-0.0194524 -0.0155589 0.00399964 -0.0121747 -0.0122505 0.00400743 -0.0189645 -0.0115999 0.00429403 
-0.0157732 -0.0139933 0.00399985 -0.00320899 -0.019799 0.00400089 -0.00458433 -0.012931 0.00399976 
-0.00848815 -0.0137993 0.00399939 -0.00590093 -0.0168451 0.004153 -0.00196889 -0.0159901 0.0040001 
0.00484919 -0.0183753 0.00399968 0.0063803 -0.0109267 0.00400322 0.000717382 -0.0190393 0.0039992 
0.00981623 -0.0154802 0.00399974 0.00282753 -0.0127925 0.00399998 0.00926719 -0.0195811 0.00402385 
0.0182744 -0.0133962 0.00400015 0.0130668 -0.0124909 0.00399757 0.0131776 -0.0176474 0.00399926 
0.0171902 -0.0175681 0.00404399 0.020993 -0.0163291 0.00399879 0.0271212 -0.0133553 0.00399717 
0.0231231 -0.0129439 0.0039991 0.0288665 -0.01757 0.00400021 0.0311283 -0.0142705 0.00400134 
0.0379211 -0.0171508 0.00399937 0.0391884 -0.0118802 0.00399984 0.0356137 -0.013875 0.0039987 
0.0331048 -0.0107535 0.00414514 0.0418543 -0.0164224 0.00399758 0.043275 -0.0117258 0.00400112 
-0.0411303 -0.00704697 0.0040018 -0.0406692 -0.00283359 0.00399943 -0.0446873 -0.00515465 0.00403169 
-0.0446789 -0.0011195 0.00447135 -0.0370098 -0.0046776 0.00399806 -0.0329802 -0.00161 0.00399964 
-0.0327287 -0.00643747 0.00401041 -0.0375294 -0.00880547 0.00405678 -0.0298263 -0.00994172 0.00399853 
-0.0273504 -0.00244557 0.00399906 -0.0220925 -0.0042635 0.00399903 -0.0279787 -0.00639489 0.00399968 
-0.0207606 -0.00803849 0.00399968 -0.0173296 -0.00598257 0.0039988 -0.0107976 -0.00849698 0.00399949 
-0.0186583 -0.00220946 0.00399989 -0.0147554 -0.00919491 0.00399859 -0.0133742 -0.00545099 0.00425872 
-0.0146934 -0.00168562 0.00399921 -0.0109949 -7.4038e-05 0.00400282 -0.00698905 -0.00971364 0.00399805 
-0.00298575 -0.00926512 0.00411961 -0.00566755 -0.00581699 0.00399921 -0.00338235 -0.00253462 0.00400095 
-0.00103526 -0.00577376 0.00404171 -0.00726182 -0.0015583 0.0040004 -0.0094599 -0.00480862 0.0047724 
0.00676792 -0.00685627 0.00399889 0.00103577 -0.00921651 0.00399883 0.00296272 -0.00562288 0.00400853 
0.000835158 -0.00223376 0.00404975 0.0180397 -0.00863438 0.00399896 0.0139756 -0.00859619 0.00399887 
0.0182916 -0.0046436 0.00399942 0.010009 -0.00919918 0.00399843 0.010428 -0.00522215 0.00399765 
0.0143109 -0.00426383 0.00399934 0.0128812 -0.000528791 0.00399984 0.0168622 -0.000908721 0.00404819 
0.027809 -0.00578981 0.00399945 0.0287114 -0.00968622 0.00401119 0.0247069 -0.00209346 0.00400649 
0.0247509 -0.00931519 0.0044225 0.0216578 -0.00679971 0.00410926 0.0346568 -0.00433739 0.00399725 
0.0316507 -0.00697487 0.0039984 0.03709 -0.00841151 0.00399979 0.0376884 -0.00172862 0.00399789 
0.030871 -0.00305053 0.00399927 0.0339158 -0.000402746 0.00399972 0.0411292 -0.00417107 0.0040018 
0.0410918 -0.00836077 0.00400115 0.0448758 -0.00231491 0.00403066 0.0445248 -0.00631911 0.00421307 
0.041482 -0.000141732 0.00400149 -0.0444497 0.00688942 0.00399959 -0.0408395 0.00515858 0.00399966 
-0.0409135 0.0011591 0.00400079 -0.0447631 0.0028933 0.00403417 -0.0366066 0.000110137 0.00399921 
-0.0379415 0.00830392 0.00399929 -0.0369422 0.00425568 0.00399885 -0.0333692 0.00245782 0.00399934 
-0.033456 0.00645564 0.00400382 -0.0242142 0.000103099 0.00403702 -0.0298372 0.00474931 0.00402229 
-0.0297527 0.00075109 0.00399892 -0.0201058 0.0015284 0.00399923 -0.0205349 0.00550503 0.00399965 
-0.0215718 0.0093678 0.00401895 -0.0251522 0.00583147 0.00400377 -0.0288184 0.00861737 0.00399978 
-0.0165355 0.00555474 0.0040043 -0.0142314 0.00228596 0.00399969 -0.0175729 0.00941722 0.00399917 
-0.0124 0.00584079 0.00400035 -0.0124082 0.00983979 0.00399943 -0.00539582 0.00197865 0.00399841 
-0.00122605 0.00499244 0.00399998 -0.00891235 0.00388341 0.00399957 -0.00151714 0.00100345 0.00401497 
-0.00533431 0.00653337 0.004036 -0.00903418 0.00779133 0.00493038 0.00612713 0.000116458 0.00399941 
9.54872e-05 0.00876739 0.00399805 0.00635965 0.0041083 0.00399958 0.00720531 0.00801596 0.0040699 
0.0097057 0.00190214 0.00399964 0.0024307 0.00164337 0.00399947 0.00270843 0.00573973 0.00404568 
0.00381466 0.010016 0.00477275 0.0178647 0.00296335 0.00399947 0.0113587 0.00554416 0.00399906 
0.0185574 0.00690208 0.00399924 0.0146638 0.00778461 0.00422417 0.0109097 0.00951958 0.00399956 
0.0284446 0.000128566 0.00399941 0.021494 0.00034716 0.00399864 0.0217232 0.00445946 0.0039994 
0.0250386 0.00222367 0.00399984 0.0252091 0.00643667 0.00399902 0.022036 0.00887573 0.003999 
0.0285558 0.00412899 0.00399966 0.0379332 0.00263574 0.00403441 0.035991 0.0062013 0.00406651 
0.0312688 0.00726245 0.00400279 0.0325498 0.00342312 0.00409093 0.0406147 0.00653843 0.00415955 
0.0449434 0.00195897 0.00399786 0.0446139 0.005944 0.00399815 0.0438167 0.00995243 0.00399924 
-0.0436206 0.0108197 0.00400137 -0.0425005 0.0147244 0.00399955 -0.0344874 0.0103192 0.00399773 
-0.0374076 0.0177838 0.00399939 -0.0396497 0.0119198 0.00399939 -0.0319971 0.0134504 0.00400002 
-0.035957 0.0140378 0.00399925 -0.0298406 0.016826 0.00399892 -0.0276326 0.0124372 0.00399967 
-0.0259112 0.0160826 0.00399973 -0.0216893 0.0163113 0.00399933 -0.0234539 0.0199048 0.00400016 
-0.0236482 0.0127855 0.003999 -0.0176306 0.016413 0.00399998 -0.0136231 0.0163715 0.00399817 
-0.015621 0.0129075 0.00399915 -0.0108296 0.0135129 0.00407796 -0.0196322 0.0128725 0.00402335 
-0.0107582 0.019958 0.00399995 -0.00363667 0.0102029 0.00400513 -0.00266436 0.0178921 0.00399946 
-0.000498508 0.0127222 0.00399968 -0.00746704 0.0113513 0.00399894 -0.00820363 0.0168744 0.00400073 
-0.00425553 0.014222 0.00414782 0.00105251 0.0164078 0.00399839 0.00418381 0.0139214 0.00399899 
0.00442378 0.018564 0.00400128 0.00773233 0.0119817 0.00400466 0.00748783 0.0160742 0.00466098 
0.0170254 0.0146089 0.00399808 0.0182013 0.019125 0.00399874 0.0144402 0.0177656 0.00399921 
0.0185213 0.010901 0.00399947 0.0105265 0.0185884 0.00399899 0.0110034 0.0142858 0.00399949 
0.014226 0.0117534 0.00399951 0.0207783 0.0160677 0.00399941 0.0261843 0.0103155 0.00399936 
0.0230139 0.0127529 0.00399797 0.0269193 0.0142542 0.00400181 0.0284873 0.0181562 0.00404675 
0.0245205 0.0174283 0.00444096 0.0301213 0.0110972 0.00404708 0.0348503 0.0141113 0.00399902 
[...]
POINT_DATA 5999
FIELD FieldData 7
id 1 5999 int
544 514 482 144 333 828 1092 856 1037 
589 307 1045 862 924 120 97 520 52 
107 135 145 379 228 263 53 1095 158 
426 408 501 476 706 336 1008 203 230 
246 992 364 41 404 608 46 247 760 
245 690 397 1316 115 966 557 274 440 
1019 344 378 434 816 623 874 294 669 
946 11 724 63 502 704 546 1015 174 
424 199 469 365 504 952 684 776 114 
276 149 8 396 310 614 876 1042 630 
112 516 210 509 401 350 528 423 861 
136 437 349 787 348 1107 659 57 131 
360 281 550 650 311 664 84 374 345 
487 296 429 99 113 42 616 66 1126 
168 205 293 1144 1494 317 875 39 117 
848 1077 461 962 1035 231 788 86 142 
372 1214 1262 853 1503 802 686 417 163 
1096 20 783 126 1071 731 447 485 354 
906 1269 175 221 821 58 584 612 1101 
1105 931 903 342 489 427 627 441 1481 
1486 1027 710 967 784 322 1142 900 73 
410 393 421 1161 935 1032 458 48 108 
128 241 367 914 418 134 604 1014 292 
105 558 781 12 813 857 224 766 755 
16 5 463 23 971 998 1254 1128 77 
352 594 1460 229 206 346 1277 78 563 
334 170 886 763 1106 273 305 498 375 
384 734 560 517 1478 81 432 286 712 
320 473 159 88 380 673 155 1073 313 
1613 182 586 847 745 288 1066 1024 535 
387 915 214 657 592 394 836 165 244 
298 436 287 519 868 691 631 640 191 
260 721 996 64 98 579 671 80 79 
225 910 356 3 1040 266 576 337 944 
524 75 522 361 1124 103 197 347 316 
954 104 21 1016 1097 212 1072 736 1220 
146 660 715 556 91 839 880 425 521 
76 160 290 121 152 628 332 28 569 
406 177 1103 235 478 1611 929 312 748 
116 428 226 1368 227 928 1899 1084 705 
220 255 96 851 304 513 1134 118 409 
629 1703 133 1484 181 259 642 299 140 
1117 529 15 6 636 45 173 289 213 
769 916 507 327 129 475 1025 899 141 
497 207 904 111 701 395 530 217 268 
1489 477 215 124 474 532 780 162 909 
27 454 161 414 625 218 866 40 1461 
328 882 2618 1 877 18 455 250 122 
885 1119 1323 67 995 1765 178 26 864 
901 495 430 1350 531 1792 19 1213 598 
1044 271 505 680 1171 100 1270 390 1098 
1477 282 997 1392 969 200 551 450 407 
1506 153 1328 1575 1164 1828 1995 1620 647 
1861 795 566 1326 2364 1079 2621 1299 257 
242 515 194 209 10 1286 981 1650 452 
1289 1834 1589 65 1846 1774 1602 1882 1690 
138 773 596 400 185 83 892 1232 233 
1446 2165 665 772 883 1999 1498 1878 777 
567 338 109 1033 391 1067 1632 907 696 
707 1580 1471 852 1677 1688 1411 47 1358 
605 1387 1176 968 1284 1608 1434 147 449 
1850 1543 1365 1421 1251 1169 154 340 1485 
1187 512 285 1280 675 580 764 443 750 
1188 1013 323 889 2027 411 662 1341 33 
1005 713 94 254 1162 488 183 198 548 
1563 574 493 1416 279 1017 2300 1785 1275 
302 49 402 1476 119 55 1043 953 1639 
1463 2042 1836 744 2067 1026 2781 2347 1166 
1418 464 1640 1028 711 818 1331 1242 1647 
1023 1605 1059 905 1843 1734 1768 2292 371 
633 1676 1285 758 1179 534 2285 1754 1789 
1855 1159 1944 1283 2065 2092 1210 1883 844 
918 641 392 102 937 2221 943 1697 1862 
1074 1609 938 1274 2109 1550 1170 1691 2345 
54 1036 858 1412 248 2136 442 1330 1217 
1191 1491 785 1406 69 872 1468 2296 1182 
382 90 267 1114 779 22 689 617 643 
652 471 518 800 1047 1652 902 1962 1224 
739 413 249 921 1327 1678 1178 1829 2328 
223 525 803 703 741 639 824 1064 1389 
1113 578 1398 319 961 1265 1592 2228 1680 
68 125 533 1325 243 668 854 1407 1683 
963 977 1345 2129 1561 1844 106 1354 655 
674 1623 1208 1722 1055 697 7 1672 1448 
9 2047 832 1594 1749 2209 2113 1687 2304 
815 190 951 201 808 964 403 747 990 
986 179 1525 888 1201 1555 1597 2093 1587 
1338 38 718 1152 980 1482 994 1404 1174 
1012 2128 1684 1644 1572 1240 1753 1701 1076 
2490 1061 211 1979 353 1185 622 833 1177 
1497 1710 726 270 1366 1377 1913 1960 1628 
1852 1413 1183 1272 256 1083 635 291 1288 
859 1508 819 1931 1383 240 987 1369 2312 
1199 1223 1630 1256 611 1552 806 523 123 
679 1775 43 927 658 1132 1319 834 1243 
2278 1767 1493 1347 1417 1811 1308 314 590 
1180 754 1276 252 805 1057 1355 692 139 
1372 1324 1222 749 506 653 2205 92 1584 
1123 399 1212 562 1961 1679 1118 898 1196 
1329 1385 985 1860 1250 1505 222 1537 72 
1359 1772 25 1233 1830 826 202 613 767 
881 1500 978 318 2014 2194 1318 863 941 
1333 619 884 496 1443 1231 1310 1235 1429 
1548 2307 1472 694 1317 2299 581 1109 1127 
369 1133 545 278 727 1130 1295 1618 376 
1622 508 1099 1822 1081 1536 1374 661 1380 
351 445 543 500 1586 831 1140 1509 869 
2104 575 1003 491 1839 1091 1356 1263 2021 
1479 1340 1588 1088 1569 1876 830 1728 695 
1030 1964 1125 479 1529 483 2038 1809 1425 
1049 1692 855 537 1674 1202 1281 1845 1181 
1444 893 1967 1279 812 1492 2210 1348 714 
2159 2240 896 389 934 933 1120 1100 1145 
1060 1886 1982 1702 1399 1925 2346 959 1332 
1921 842 751 137 1945 1041 1914 1517 1391 
1577 1935 1573 1137 1426 1151 894 693 796 
1011 870 1557 1948 1006 879 2043 1624 1009 
1334 24 615 511 1228 756 873 1221 1038 
1353 835 1122 1719 1002 2200 2037 742 1351 
775 610 890 654 1744 982 1111 1225 983 
110 1842 1357 585 2453 867 330 607 702 
920 499 1131 1567 1522 1928 794 1362 2362 
2001 2139 1804 1435 1252 1496 1158 462 1512 
667 677 682 1871 2018 947 843 1907 237 
743 1975 1615 1361 1821 29 845 840 526 
1395 280 1300 300 355 1226 878 1480 838 
728 717 1455 1260 1720 1787 1342 942 193 
1168 370 678 1238 309 587 1428 792 1320 
1148 570 1305 381 1518 606 761 1895 1750 
1593 127 297 719 189 362 1054 188 565 
1089 431 148 1707 555 1381 1046 814 1129 
956 171 730 975 527 1010 1487 1796 368 
1139 1831 993 723 1445 253 31 1063 1306 
1031 377 564 984 1778 503 1112 1977 1812 
1291 187 1400 1197 1080 1149 1297 1450 1301 
1673 1104 341 295 1516 101 919 1294 1439 
1576 922 2248 632 232 817 366 1940 1370 
2176 2237 1110 716 265 1523 239 1018 1090 
167 1052 1078 2279 2242 2319 789 1553 1312 
1499 2260 1675 1910 949 827 303 988 419 
32 588 778 1344 1255 1884 700 1936 1826 
1870 1714 2398 2034 1556 1997 331 1086 1193 
572 70 1490 1430 1335 737 1879 1972 459 
733 1462 1337 1339 1237 301 36 1020 746 
1153 676 420 2114 453 911 2452 1154 1546 
1721 1664 1314 326 216 1150 180 974 1085 
541 1311 979 930 484 164 809 315 87 
1402 1535 568 822 932 553 1743 283 646 
186 955 130 709 958 609 648 1976 1682 
940 1021 708 2115 2148 1469 192 480 626 
448 765 238 1321 561 554 1069 405 887 
150 74 1236 358 1230 1583 50 1271 1384 
481 1207 1056 1963 991 656 849 573 51 
2 13 740 1532 60 1566 620 1984 1247 
1029 1379 2152 412 923 891 1022 600 688 
1135 1459 841 1604 435 559 1560 2010 2225 
2446 2318 2134 2750 2223 2660 472 93 357 
771 1346 439 925 1343 1349 1617 1449 1726 
790 1257 71 1373 1048 1551 62 1442 258 
1004 603 1394 1819 1001 1897 2406 774 325 
1367 1102 2051 470 926 1248 1246 791 957 
683 793 618 1309 1156 284 1540 681 644 
1510 1934 1669 2039 1841 1625 386 599 35 
272 277 251 725 1436 373 685 846 698 
1859 416 2158 960 456 2090 1227 1670 738 
820 638 583 547 1695 965 752 1582 2035 
1424 1467 2219 1163 1565 799 95 329 976 
1205 571 850 85 34 1273 804 1267 1752 
363 1423 1261 17 2198 1655 151 1959 582 
1053 1136 306 61 383 1165 1296 1875 169 
2460 1764 1873 1388 468 1867 1116 2629 388 
1725 339 275 89 798 14 1287 196 624 
2055 1172 1534 2764 308 1755 2030 1923 1760 
1932 204 1745 1298 1571 2007 1641 1160 2049 
1868 1410 1475 1303 4 2023 1795 2127 2284 
2403 264 973 166 1068 811 649 591 184 
1000 2146 486 1167 538 1631 261 1514 1195 
917 1401 321 438 324 829 666 30 1504 
1108 490 645 1651 1542 759 1591 1610 1724 
651 176 1645 1627 1453 577 433 195 143 
415 59 157 1249 801 466 1336 1713 359 
1579 989 786 1307 1173 999 234 593 1147 
908 1530 1266 132 1290 729 552 510 56 
1495 269 762 156 670 1364 1239 422 451 
1209 621 542 1816 1390 1980 2081 1922 2384 
2327 1657 1211 343 446 1189 768 1570 1143 
1790 735 2690 1717 2680 2122 2843 2554 913 
602 1245 3284 2196 2641 2046 2257 2100 3086 
3465 2999 2528 2911 1386 601 2289 1638 1259 
1598 3160 2845 3808 3564 2713 3155 2254 2633 
2720 2686 1906 1433 2195 2349 2508 797 1194 
2073 1957 1564 1869 699 782 2303 2247 1581 
2847 2102 2250 2977 2512 2341 492 2963 2464 
1547 2275 1856 2245 1603 2987 3013 1783 2421 
2417 1661 2208 2862 3098 3529 1705 219 1649 
2527 2157 2612 2121 1590 2106 1681 2084 2526 
1626 2840 2098 2968 3413 2433 3636 2958 1718 
2031 457 1175 1488 1420 2003 2825 1146 2351 
2383 1800 2959 2833 2975 2761 2506 1519 1614 
1533 2472 2455 2187 2624 2684 2418 2378 3174 
2448 3271 2953 1258 1981 2295 3008 2377 2075 
2355 2932 2517 2606 3464 2545 3215 3734 2871 
3187 2332 1756 2735 1186 2416 1058 687 1952 
2044 1278 1937 465 2560 2611 2689 2538 1802 
2675 2806 1865 2443 1949 2143 1733 2135 1771 
2391 2646 1382 2314 2493 1991 2601 2041 1458 
3193 2645 2556 2483 2145 1633 1470 2185 1779 
3348 2869 2008 2613 1746 2746 3425 3391 3411 
3851 3094 1943 1538 2150 1437 1696 2427 2305 
1253 2009 1619 2291 2812 2767 2396 3297 3027 
3303 2516 2795 2191 1654 1908 970 2470 3082 
2661 2532 2510 1983 1376 1727 1414 2276 2183 
2368 2120 2486 1919 1483 1456 1405 1686 1953 
2511 2015 1978 2765 2522 2468 2111 3079 2048 
2402 1866 3249 1824 2520 2161 1780 1659 540 
2408 1699 1693 2562 1989 2964 1716 3175 2423 
2515 2338 2415 2280 3015 2717 2053 1403 1958 
1954 37 2013 2329 2173 2298 2181 2943 3024 
3124 2105 1737 2025 2450 2361 3063 2776 1093 
1607 2271 1378 2429 2859 2639 3451 2004 1184 
2743 1968 1858 2667 2061 2886 1065 1887 1773 
2491 2385 2359 1700 3252 2576 2389 1955 2066 
2557 1848 2430 2779 2226 2057 2142 2282 2177 
722 3156 2151 2816 2668 2708 2363 3375 2387 
3247 2858 1562 2714 1794 1662 3173 2794 2399 
2103 2674 2457 3072 1781 3338 1917 1595 1814 
2728 1881 807 1408 1636 2190 1988 2916 2944 
2182 2870 3040 1203 1966 1070 939 1671 1668 
2600 1264 2804 2333 1889 1840 2091 1141 1763 
2594 2549 2666 2050 2671 2409 2846 3158 2687 
2432 3211 3690 2534 2519 3208 2277 2301 2652 
1087 2317 2179 2440 2071 2745 2420 1965 2005 
1987 1685 2426 1642 1663 1219 2565 1198 2709 
2370 2322 1531 1293 1863 1905 1658 2116 1803 
2083 2579 2202 1397 2366 1730 1893 1539 2665 
1924 2935 3339 1896 1667 3368 1215 1835 1759 
1776 2787 2774 2163 2141 2688 1969 2773 3258 
2206 2082 2373 3029 2482 1890 3250 3620 1916 
1268 2348 2548 1902 2796 1793 2712 1723 2861 
1807 2875 3455 2772 2251 3039 2444 3892 1806 
1431 1315 1643 1363 1396 2006 1993 1736 1200 
1452 1815 1994 1877 2207 2989 2678 2407 1513 
1155 2478 1507 2172 2577 1704 2392 1568 1558 
2786 2521 1051 2950 3453 2849 2297 1888 1216 
1927 1454 2531 1637 2130 2326 2595 2737 2820 
3012 2573 2863 3214 2323 2536 2309 2676 2112 
865 1634 1838 1206 2449 2607 1694 2215 2603 
2357 1786 2978 1545 3003 3189 2405 2059 2125 
1985 1094 1447 2256 1833 1920 2118 2699 2193 
2192 2885 1629 2395 753 1832 2086 1732 1660 
1689 1941 2584 1900 2220 3257 2798 1901 2749 
536 172 1813 2466 1653 2422 2770 2940 2814 
2451 2036 1616 2290 1805 3499 1735 2939 1946 
3149 3278 3506 3633 2052 860 2852 1440 1769 
2488 2883 2024 2537 1502 2232 2441 1885 1762 
1990 2068 2473 1938 2827 2677 3246 2572 2899 
3121 2169 2941 2379 1992 2258 1808 2154 2762 
871 2026 2079 2077 2439 2424 2752 2070 2647 
2222 2504 2325 2306 2425 2140 1600 2716 2546 
945 2356 1729 1739 1909 1585 1825 2564 2476 
2632 3574 1541 2335 2589 2458 1599 1292 2094 
2830 2630 2132 2657 2217 2164 2969 2844 3112 
3179 3071 3308 1521 1578 1466 1229 2124 2095 
1432 2500 1851 1820 2887 1039 2404 2865 1930 
2724 2854 2649 770 1501 549 1304 1360 1648 
1549 1646 2636 2503 1798 1956 2442 2725 3196 
2218 2249 3485 2382 2264 2074 2400 1244 1911 
2459 1515 1933 1738 2638 1915 1621 2682 2316 
3054 2802 3273 3251 757 2072 1528 1761 1810 
1138 1797 2994 2253 1524 2651 2269 2431 2445 
1874 2462 2017 2985 2934 2011 2615 3006 3390 
3085 2604 2374 1352 1007 2839 2414 1526 2529 
2701 3053 2799 1706 2342 1409 2587 3050 2413 
2789 3700 2890 2471 3489 2592 1419 1998 672 
2367 2123 2386 2178 3047 2902 2923 2352 2214 
2274 1731 3234 2436 1947 2273 3373 2133 1574 
2012 1218 2238 1740 2759 1465 2199 1892 1204 
2543 2480 82 1766 1747 2108 1898 2658 950 
2167 2287 2447 3105 1451 1799 2213 2201 2016 
2608 2162 2961 2908 1302 1241 1415 1970 2324 
2336 2702 2888 2230 2029 1894 2492 2137 3463 
1918 3398 236 1082 2156 1190 1075 1880 2340 
2924 2456 2175 2321 2751 1872 2288 3277 2625 
3304 2045 2730 3756 1115 2375 810 539 1559 
1511 1666 1457 2076 2186 1527 1709 2281 2982 
2654 2261 2655 2933 2153 1847 1441 2768 2020 
2019 2700 3432 2962 2227 1849 1827 2598 2212 
1192 1234 1427 1635 2898 1742 2495 2744 3138 
3070 2605 2734 2681 1665 1748 1656 2622 2265 
2626 2174 2331 1818 2602 2376 2578 3980 2315 
2097 2715 3170 2119 2160 2283 2837 2259 3031 
1939 1853 2900 3307 2547 2810 3232 2691 3280 
2841 2525 2469 3733 4228 3190 2635 3712 2910 
948 2155 2101 2022 1971 1801 1596 3017 2310 
3045 2397 2502 1864 3287 3274 3225 2184 2244 
2496 2062 2729 2561 2203 2583 634 2559 3010 
2063 2089 2494 2078 2727 3153 2644 3301 3219 
3358 3330 1912 2272 444 2040 1375 1698 1712 
2711 1473 2590 2580 2936 2822 3202 2087 2390 
2882 2703 2949 2311 637 2410 1393 2000 2054 
1322 897 1601 2957 2784 2360 3371 2627 3145 
2748 3116 3818 2591 2246 972 494 1121 2138 
460 1757 1544 2188 2903 3270 2988 2401 1784 
2080 3292 2663 2831 3212 2380 2766 2876 2243 
2032 2064 2956 1715 1474 2394 262 2670 2948 
2170 3372 2706 2631 2171 2107 2945 3114 3747 
1612 2434 2234 1788 2236 1791 2033 2513 2942 
2872 3400 2270 2593 2563 3460 2294 3293 3081 
3939 2211 2197 597 2180 2099 2411 2575 2586 
2350 3201 3171 3266 3073 2474 1758 2813 1903 
2992 1926 1034 3004 2758 3442 3752 1050 823 
2497 1891 1313 2302 1770 2229 2369 2692 3561 
3341 2255 3435 2085 2793 3444 1520 2110 1708 
1422 1282 825 2147 2523 2235 2412 2778 2909 
2585 3406 2144 3401 3268 2058 2637 1554 2381 
2060 2662 2372 2126 2501 3172 3738 1062 2542 
1951 1973 1823 2002 2856 1837 2937 3120 2530 
2574 3591 3783 2569 3162 2970 3176 3487 3089 
3538 2514 335 2056 2868 3630 2131 2775 2518 
2866 3718 3580 3509 2938 3002 2069 3106 2685 
3493 2771 3288 2742 2836 3804 3282 3025 3142 
3955 3289 3722 3713 2879 3446 3279 2718 3792 
4166 3834 1996 1777 3703 4216 2507 4464 3056 
3958 2918 2801 3331 3902 2588 3540 3471 3235 
2623 3822 3845 3639 2864 4060 2634 4618 4497 
3972 4124 3404 2851 2262 3319 2096 3677 3255 
2783 2891 3032 3790 3077 4129 3148 3440 3058 
4422 3778 3654 3276 4100 3362 3707 2435 2308 
3844 3334 3194 3723 3405 3302 4149 3632 3523 
3195 3985 3727 3547 3670 3033 3256 3099 2487 
3315 3682 4002 3361 3472 2371 3433 3913 3831 
3763 4139 4326 2955 4388 4310 3618 3060 3095 
3207 3378 2930 3761 3152 3165 4248 3766 3967 
3379 4066 3735 4416 4642 4270 4072 3650 2855 
4051 2499 2747 2467 2616 3768 3350 4439 3623 
4211 3894 3800 4317 3675 2967 3711 4415 2809 
3311 2553 4086 2669 2568 2339 2533 2877 1950 
2596 3048 3500 3437 3578 3708 3811 3868 3717 
3883 4456 2330 3469 2239 3125 2597 3607 3313 
3847 4647 4200 2740 3067 2189 4279 2973 3478 
4170 3111 2929 3037 4255 2834 4389 3833 3662 
3450 2946 4637 3715 4813 4371 4420 4169 3122 
3492 2498 3221 3920 2966 3325 2904 3449 2721 
4000 3052 4480 3512 3516 4007 3993 4632 3264 
2821 2673 3539 2505 3360 3286 3346 2628 2438 
3186 4056 3676 2832 3983 4521 4946 4705 4775 
4361 4366 4742 2824 2739 3553 2808 2088 3078 
3041 3522 2842 3599 2907 3898 3103 3188 3794 
3527 3907 2980 4797 3990 3771 4093 3699 2659 
2848 3028 3721 2365 3572 3769 3751 3226 3353 
3590 3806 3714 2648 4198 3412 5425 3347 4161 
4202 1711 1817 2216 2656 3828 2896 3199 3365 
4113 3096 3370 3534 2769 4559 4068 2976 3298 
2777 2610 3238 3789 2867 3774 3556 3528 2829 
2805 2231 2268 3799 4891 3537 3743 3477 3615 
3476 3826 3753 3482 3409 3642 4065 3754 4646 
4001 2880 2983 3614 3345 3309 3462 3000 3169 
3260 3813 3594 3317 3415 3518 4403 3231 4130 
4560 2581 3005 2477 2168 2696 3388 2354 3651 
3931 3166 4504 3101 3634 3468 3242 3459 3963 
1942 3180 2694 2693 2838 2788 2984 2857 2927 
3020 4259 3829 3624 4019 3773 3344 3681 4205 
3376 3672 4700 2736 2540 3772 3679 3143 3418 
3183 3457 3848 3402 3974 4134 3640 3987 3323 
3204 4466 4328 3944 2461 3090 3616 2895 3306 
3979 3695 3244 2698 3259 3730 3897 4525 4291 
4232 3951 4387 3253 3988 4440 4127 3336 3924 
2732 3508 3542 2241 1741 2954 3825 3504 2726 
4253 3705 4120 3849 3011 3861 4374 4600 4870 
3167 2757 3181 3557 2860 3706 3392 3092 4545 
4359 3377 3474 3185 2286 3227 4281 2558 3655 
3788 3445 4444 3881 2544 4075 3611 3921 4699 
3571 4590 2664 4833 4806 4089 3548 3001 2995 
3100 3427 4306 3649 4133 4597 4046 4754 3886 
3150 3140 3466 3746 4154 3157 3222 3973 3422 
4103 4084 3596 2922 2897 3890 2915 3767 2894 
3563 3237 2993 3136 3399 3236 3926 3191 4099 
3652 4031 3856 4184 2704 2263 2741 2484 2683 
2819 3927 3748 3952 4125 2823 3108 4688 2481 
3326 3327 2567 2541 3941 3545 2998 2617 2914 
3229 3638 2707 3685 3644 4262 3598 3139 3698 
3055 3129 2204 2986 3066 3163 2293 3428 3272 
3107 3030 3837 3424 3613 3127 4506 4753 3586 
3569 2614 3097 3948 3075 2947 2571 3925 4237 
3810 3550 3484 4295 4570 3241 3104 4731 2343 
2835 2539 3333 3498 4454 3393 3408 4112 3356 
3622 3786 3744 4105 3592 4315 2881 3363 3316 
2850 3858 2780 3935 3762 3431 4335 3588 3891 
3200 2951 3757 3981 3877 3568 4233 4069 3324 
4394 4207 4465 4617 5247 5179 4443 3387 3694 
3692 3023 3864 3061 3936 4402 4429 3452 2344 
2912 3530 2653 3007 3819 2928 3230 3243 3558 
3283 3044 2722 3665 3855 4128 3210 4156 3970 
2828 3016 2733 3470 3084 2358 2756 3663 4217 
2760 3946 4114 3332 4246 3022 2738 2465 2393 
2570 2642 2552 2971 3161 2599 3796 2807 2965 
3197 3205 4024 3609 3867 3502 3443 4386 3576 
2991 3009 2313 1857 2990 2337 2320 3109 3617 
2815 2920 3501 4020 3619 3680 3128 4468 3689 
2620 2524 2931 3351 3602 3135 2817 3668 2893 
2926 3601 3544 3198 3130 4176 2974 3184 3144 
2334 3439 2919 2797 3486 2972 3164 3305 4365 
3673 4165 3117 4083 3018 4531 4899 3608 3687 
3380 4235 3776 3312 3666 3582 3795 3146 3088 
4053 3872 4573 2979 3505 2763 3842 3177 2906 
3560 3366 3584 3429 2785 3014 4349 3874 3552 
2643 4081 4203 3686 3479 3850 4062 3513 3750 
4369 3448 3480 3093 3300 3702 4309 4137 3775 
3359 2960 3110 3575 4614 3996 4347 3447 4479 
3337 2697 3213 3087 2803 3239 3827 3945 4193 
3991 4077 3950 3816 4472 3749 3805 4018 4811 
4311 3631 3395 4116 4097 2826 3719 4736 3159 
3779 4102 3600 4158 4551 2535 3403 4017 3123 
3871 3777 2792 3419 3835 2428 3653 3720 3383 
3245 3541 3593 4990 3134 3739 4639 4231 2753 
2555 1854 2609 2723 1974 2997 3491 2463 4187 
4163 3233 3343 3043 3520 3295 2233 3494 2925 
3314 3329 3299 2889 3975 4425 4201 3661 3019 
3262 4256 3488 4412 3168 3852 2679 2437 3741 
3760 3074 1904 3394 3352 2353 3832 3533 4486 
4288 4320 3420 3605 3656 4204 3514 3218 4033 
2705 3151 3182 3068 2224 2754 3904 3441 3178 
3785 3900 2853 3660 4058 4215 3554 3223 3042 
3133 4146 3999 3261 2672 3546 2731 3737 3318 
2800 3732 4252 4250 4174 4219 4591 3865 3965 
3846 4272 4258 3731 3426 3803 3224 4108 3296 
3968 3627 3930 3716 3629 3051 3876 4152 2981 
4047 4598 3693 4341 4999 3740 3893 2952 3745 
3065 2619 3559 2917 5224 3626 3793 3036 3407 
2550 3878 4157 3962 4860 3369 3436 3836 2551 
4041 3969 3354 3597 3643 3697 3917 3291 3782 
3064 2921 4073 4131 3637 4428 2650 3267 2884 
2874 2485 3091 3929 3216 4078 2719 3688 4234 
3725 2475 3367 3248 3736 3269 3901 3240 4107 
3531 4055 3916 3021 4192 4589 3587 4377 4513 
3397 2388 2892 3119 3704 3290 3787 3519 3141 
3389 3382 3217 3515 3461 2901 3780 3131 4238 
3603 3671 4625 2582 3034 3507 2913 3495 3154 
3421 3132 4391 3691 3802 5101 4273 3658 4717 
3384 3062 3937 3357 3059 3562 2791 3069 3521 
4505 3321 3798 3535 4336 4044 3566 4274 4943 
3869 3625 4727 3895 3263 3565 4035 4194 3517 
3342 3355 4578 3322 3430 4300 4023 4135 5232 
4926 3684 3646 3683 2489 4096 3049 3192 4118 
2905 4316 4009 4212 3635 4801 4040 4224 2811 
3467 3823 3843 3934 4087 4459 3080 3503 2878 
3203 3664 3942 4292 3765 4185 4305 4921 3396 
3115 2479 3884 3026 2028 4091 4346 3076 3709 
4043 3543 3340 3604 4447 3982 4079 3386 3038 
4076 3454 2266 3285 3912 4602 2695 3701 3885 
4275 5152 3320 3759 3606 3410 4500 4426 4223 
3254 3583 4314 3511 4902 3994 5115 3525 3641 
3581 3573 3310 3964 4119 4657 4264 4764 3551 
3046 4455 3807 4526 5330 5334 4907 5355 3657 
3532 4584 5136 5617 5399 4039 3118 3335 4788 
6064 5501 3961 4734 4267 4973 6043 4766 5483 
5290 3919 5177 4147 5418 3862 3758 4367 4168 