# vtk DataFile Version 4.2
Generated by LIGGGHTS
ASCII
DATASET POLYDATA
POINTS 6000 float
-0.0166958 -0.0170315 0.0164955 -0.0168914 -0.0168481 0.0203233 -0.01491 -0.0187042 0.0138748 
-0.0128452 -0.0187899 0.013976 -0.0120338 -0.0206284 0.0140066 -0.0102129 -0.0215762 0.0138976 
-0.00888785 -0.0187954 0.0141714 -0.0097153 -0.0169114 0.0140964 -0.0118138 -0.0170695 0.0138426 
-0.0138787 -0.0169132 0.0137456 -0.0109723 -0.0187649 0.0147403 -0.0157037 -0.0170288 0.0147006 
-0.0139246 -0.0193436 0.015595 -0.00958514 -0.0202042 0.0154126 -0.00883705 -0.0220845 0.0152762 
-0.00957159 -0.0179844 0.0161342 -0.0117688 -0.0208121 0.0160406 -0.0129178 -0.0174806 0.015529 
-0.0152953 -0.0184105 0.0168912 -0.0114907 -0.0181453 0.0168157 -0.010166 -0.019669 0.0172621 
-0.0100479 -0.0216543 0.0168321 -0.0083566 -0.0205238 0.0175411 -0.012931 -0.0196206 0.0173301 
-0.0160928 -0.0176646 0.0185889 -0.0144034 -0.0190502 0.0185889 -0.0115224 -0.0209473 0.018067 
-0.00971377 -0.0198792 0.0192279 -0.0114812 -0.01849 0.0187971 -0.00928937 -0.021972 0.0186766 
-0.00967195 -0.0179287 0.0181533 -0.0153232 -0.0184175 0.020303 -0.012817 -0.0201283 0.0193586 
-0.00906547 -0.0182256 0.0201477 -0.010877 -0.0213198 0.0200529 -0.0133033 -0.0173523 0.0186562 
-0.0127437 -0.0183412 0.0203469 -0.0108614 -0.018986 0.0206715 -0.0089361 -0.0220532 0.0206628 
-0.00910889 -0.0201201 0.0211529 -0.0122858 -0.0204767 0.0212634 -0.0105799 -0.0169653 0.0207151 
-0.014097 -0.017131 0.0212219 -0.00801323 -0.0206678 0.0141236 -0.00759019 -0.0170459 0.0141115 
-0.00735386 -0.0227327 0.0138656 -0.00481816 -0.0194535 0.0142404 -0.00390819 -0.0216094 0.014371 
-0.00248212 -0.0201765 0.0141223 -0.00312839 -0.018278 0.0142675 -0.00172787 -0.0220454 0.0142008 
-0.000525209 -0.0238991 0.0142824 -0.000300371 -0.0206039 0.0143496 -0.0067936 -0.0188975 0.0143251 
-0.00608334 -0.0211525 0.0143331 -0.00309267 -0.0236088 0.0143665 -0.00157923 -0.0170048 0.0144071 
-0.00790837 -0.0191362 0.0160706 -0.00797986 -0.0173429 0.0172527 -0.00507754 -0.023338 0.0144547 
-0.00499828 -0.0174826 0.0145497 -0.00120187 -0.0188153 0.0152183 -0.00777079 -0.022553 0.0174487 
-0.00781015 -0.0205508 0.0195612 -0.0078015 -0.0170241 0.0211337 -0.00714127 -0.0211266 0.016042 
-0.00630152 -0.0231367 0.0160868 -0.00651421 -0.0174936 0.015863 -0.0036705 -0.0197944 0.0158643 
-0.0027067 -0.0224456 0.0160811 -0.00257466 -0.0175768 0.0160786 -3.43032e-06 -0.0220393 0.0161615 
-0.00574371 -0.0195986 0.0162751 -0.00154201 -0.0206166 0.0160605 -0.00118872 -0.0238425 0.0163808 
-0.00494932 -0.0215352 0.0161567 -0.00734381 -0.0227267 0.0194064 -0.00692486 -0.0191366 0.0178355 
-0.00434459 -0.0234051 0.0167882 -0.00297424 -0.0209926 0.0174342 -0.00248091 -0.0190343 0.0174823 
-0.00124943 -0.0219915 0.0177594 -0.00443285 -0.0181296 0.0167714 -0.0007144 -0.0181407 0.0170928 
0.000229367 -0.0238652 0.0178302 -0.00468856 -0.0196118 0.0181373 -0.00600261 -0.0172377 0.0177875 
-0.00737751 -0.0189942 0.0210911 -0.00716943 -0.0228115 0.0214016 -0.00736163 -0.0176714 0.0192254 
-0.00638528 -0.0211898 0.0180489 -0.00585382 -0.0231683 0.0180858 -0.0059432 -0.0212723 0.0201418 
-0.00396232 -0.0234892 0.0187697 -0.00192106 -0.0238089 0.0182956 -0.00440248 -0.021523 0.0187409 
-0.0028839 -0.0180595 0.0192207 -0.000933393 -0.0184828 0.0190639 -0.00219853 -0.0201954 0.0191378 
-0.00239892 -0.0221955 0.0193965 -0.00063426 -0.0200653 0.0177654 -0.000529291 -0.0229283 0.0194296 
-0.00603616 -0.0193212 0.0196221 -0.00542316 -0.0232462 0.0202348 -0.0039737 -0.019712 0.0200351 
-0.00493696 -0.0176286 0.0194604 -0.000765918 -0.0210845 0.02025 -0.00314906 -0.0236551 0.0206054 
-0.00359977 -0.0171694 0.0208866 -0.000126786 -0.0192268 0.0207435 -0.00397452 -0.0218291 0.0206833 
-0.0011724 -0.023941 0.0210383 -0.00220555 -0.0191671 0.0208908 -0.00126597 -0.0174032 0.0209842 
-0.00210362 -0.0220443 0.0213922 -0.00587399 -0.0176495 0.0212986 -0.00207432 -0.0167248 0.0179236 
0.00047081 -0.0184536 0.0140689 0.00112704 -0.0221366 0.0142324 0.00235955 -0.0237323 0.0143862 
0.00398259 -0.0201109 0.0144933 0.00384661 -0.018099 0.0144522 0.00564984 -0.0213387 0.0144749 
0.00674239 -0.0174035 0.0143946 0.00607764 -0.0193819 0.0144228 0.00804229 -0.0189236 0.0144738 
0.0022661 -0.0168579 0.0144105 0.000602465 -0.0200703 0.0161199 0.000597734 -0.0167417 0.0178307 
0.00185992 -0.0202234 0.0144681 0.00356827 -0.0221047 0.0145712 0.00517313 -0.0232752 0.014801 
0.00714189 -0.0227427 0.0144856 0.00802524 -0.0209289 0.014489 0.000906503 -0.023831 0.015945 
0.000765007 -0.020197 0.0191972 0.000698974 -0.0175209 0.0214115 0.000814621 -0.0238271 0.021303 
0.00145862 -0.017891 0.0159755 0.00217925 -0.0222909 0.0161112 0.00528722 -0.0176237 0.0157604 
0.0030425 -0.0191343 0.01606 0.00368455 -0.0236215 0.0161201 0.00501032 -0.019584 0.0161332 
0.00696259 -0.0209647 0.0163113 0.00337737 -0.0171081 0.0161457 0.00483437 -0.0218856 0.0163192 
0.00700807 -0.0188377 0.0163042 0.00843695 -0.022358 0.016091 0.00768218 -0.0168348 0.0164198 
0.00657303 -0.0229267 0.0165828 0.00118065 -0.0220633 0.0181982 0.00112795 -0.0181607 0.0195637 
0.00108621 -0.0219976 0.0202301 0.00117493 -0.0189121 0.0176876 0.00220372 -0.0237682 0.0175121 
0.00222101 -0.0205706 0.0172218 0.00253438 -0.0174634 0.0179335 0.00335338 -0.0221447 0.017736 
0.0041173 -0.0202922 0.0178637 0.00492799 -0.0233761 0.0176738 0.00614978 -0.0173889 0.0175822 
0.00601215 -0.0196009 0.0178715 0.00797307 -0.0206678 0.0180223 0.00594827 -0.021595 0.0180294 
0.00149511 -0.0238024 0.0194213 0.0025799 -0.0210729 0.0192496 0.00283494 -0.0190871 0.0190694 
0.00349374 -0.0236536 0.0190802 0.00277549 -0.0235039 0.0209663 0.00258128 -0.0185038 0.0209716 
0.00444005 -0.0218324 0.0193968 0.00450708 -0.0183423 0.0182595 0.007763 -0.0186865 0.0182066 
0.00600412 -0.0230892 0.0193616 0.00356185 -0.0173083 0.019703 0.00527712 -0.0200267 0.0196953 
0.00618862 -0.0182701 0.0193836 0.00716036 -0.0207113 0.0198599 0.00765297 -0.0226304 0.0183002 
0.00781421 -0.0188924 0.0203778 0.00358765 -0.0202403 0.0208755 0.00478466 -0.0234133 0.0209238 
0.00571734 -0.0216078 0.020928 0.00463641 -0.0185374 0.0208831 0.00667319 -0.0174367 0.0211468 
0.00769087 -0.0225822 0.0203398 0.00160381 -0.0202552 0.0211285 0.00965613 -0.0177142 0.0145033 
0.0098624 -0.0197687 0.0144942 0.0116283 -0.0188232 0.0144595 0.0135537 -0.0182803 0.0144335 
0.0114494 -0.0168048 0.0144245 0.00984539 -0.0217586 0.0147673 0.0116339 -0.0208189 0.0145983 
0.0155628 -0.0182575 0.0145345 0.00900909 -0.0203144 0.0163153 0.00914386 -0.0202179 0.0196874 
0.00926998 -0.0180748 0.0164397 0.0123643 -0.0178725 0.0160748 0.0142014 -0.0170412 0.0162334 
0.0108673 -0.0212306 0.0164332 0.0109004 -0.0192302 0.0163093 0.0127805 -0.019925 0.0160196 
0.0146055 -0.0189885 0.0164568 0.0161961 -0.0176109 0.0163487 0.00948428 -0.0219573 0.0177479 
0.00957001 -0.0219215 0.0206944 0.0098092 -0.0192321 0.0179864 0.0121642 -0.0205498 0.0179152 
0.0119678 -0.0185323 0.0179365 0.0138301 -0.0194826 0.0183079 0.0152628 -0.0180898 0.018234 
0.0133273 -0.0168422 0.0180303 0.0107553 -0.0212879 0.0191408 0.0110669 -0.0193532 0.0195775 
0.0113393 -0.0209741 0.0210611 0.0129095 -0.0181128 0.0196584 0.0128499 -0.020125 0.0200594 
0.014685 -0.0189314 0.0200864 0.0161258 -0.0176462 0.0206246 0.0145273 -0.0168531 0.0197108 
0.0133979 -0.0171155 0.0213485 0.0100361 -0.0194163 0.0213016 0.0169697 -0.0168211 0.0146059 
0.0168294 -0.0169652 0.0187851 -0.0209643 -0.0092109 0.0136703 -0.0189822 -0.0145838 0.0141685 
-0.0180389 -0.0110559 0.0136405 -0.0197333 -0.0127287 0.0136081 -0.0172969 -0.0157961 0.0137276 
-0.0188918 -0.00892877 0.0140148 -0.017107 -0.0139036 0.0145063 -0.019852 -0.0106566 0.0145563 
-0.0180458 -0.0155733 0.0158328 -0.0182222 -0.0121295 0.0153314 -0.0203983 -0.0122379 0.0156624 
-0.0173769 -0.00987455 0.0152177 -0.021889 -0.00935116 0.0154945 -0.0191297 -0.00834001 0.0159983 
-0.0193318 -0.0139404 0.0162806 -0.0190507 -0.0106345 0.0164645 -0.0213379 -0.010768 0.0168653 
-0.017001 -0.0109008 0.0170304 -0.0172972 -0.0142567 0.0171526 -0.0181753 -0.0125095 0.0176584 
-0.0202041 -0.0126671 0.0176106 -0.0174811 -0.0161948 0.0181405 -0.0192076 -0.0142789 0.0183228 
-0.0203716 -0.0091657 0.0175896 -0.0223494 -0.0085779 0.0177373 -0.0179077 -0.00903634 0.0174584 
-0.0168998 -0.011539 0.0190349 -0.0192255 -0.0108633 0.0185288 -0.0172975 -0.0136451 0.019072 
-0.0216749 -0.0101627 0.0188157 -0.018313 -0.0153405 0.0198377 -0.0205544 -0.012075 0.0196217 
-0.0178951 -0.00990913 0.0199117 -0.0199701 -0.00981087 0.020148 -0.0185789 -0.0119361 0.0201071 
-0.0194787 -0.0137365 0.0203005 -0.0220334 -0.0092649 0.0205661 -0.0185284 -0.00851669 0.0212015 
-0.0211493 -0.0110494 0.0212575 -0.0132739 -0.0147454 0.014195 -0.0117713 -0.010923 0.0139344 
-0.0152887 -0.0148761 0.0139221 -0.0126835 -0.012798 0.013934 -0.0111691 -0.0150412 0.0140786 
-0.0127388 -0.00915857 0.0144383 -0.0105652 -0.0130815 0.0141953 -0.0137921 -0.0110983 0.0140333 
-0.00901991 -0.0147502 0.0140758 -0.00955185 -0.0113236 0.0142264 -0.00919528 -0.00920184 0.0140979 
-0.0162901 -0.0120291 0.013947 -0.0166273 -0.00841993 0.0194068 -0.0148761 -0.00887864 0.0145629 
-0.0108618 -0.00944701 0.0153114 -0.0144282 -0.0133281 0.0150791 -0.0159181 -0.0152995 0.0158127 
-0.0161547 -0.0129231 0.0160677 -0.0109899 -0.0164744 0.0156823 -0.0139768 -0.0158028 0.0157779 
-0.0121829 -0.0148447 0.0158784 -0.0100994 -0.0145886 0.0159257 -0.0108813 -0.0115289 0.0158788 
-0.0129657 -0.0107566 0.0159839 -0.00928694 -0.0127395 0.0157283 -0.0154438 -0.010526 0.015761 
-0.0086019 -0.016086 0.015576 -0.0126233 -0.012891 0.0161952 -0.0161778 -0.0149157 0.0204118 
-0.014804 -0.016511 0.0175411 -0.0122961 -0.0163343 0.0172402 -0.00974126 -0.0160895 0.0172543 
-0.0145687 -0.0142267 0.0168722 -0.00957651 -0.0103593 0.0169675 -0.0105109 -0.0131165 0.0172911 
-0.0117913 -0.00965456 0.0171761 -0.0154175 -0.00872222 0.0168887 -0.0144027 -0.011573 0.0171486 
-0.00985305 -0.00860347 0.0178999 -0.0161765 -0.0127071 0.0204969 -0.015805 -0.0149281 0.0184237 
[...]
POINT_DATA 6000
FIELD FieldData 7
id 1 6000 int
595 723 1212 941 1169 508 1141 142 231 
552 441 1154 1260 632 534 961 727 569 
817 285 874 1047 708 888 260 1426 104 
1167 84 618 562 1130 1576 468 1128 1106 
210 1703 800 1797 309 764 271 837 456 
561 1017 83 195 1300 1416 14 719 224 
1053 1455 663 393 223 49 1132 12 1048 
1155 347 587 186 353 1473 1704 1095 477 
2497 785 547 896 803 407 391 790 64 
1789 781 1739 789 1180 738 2160 1261 1120 
204 1265 854 2040 630 1685 572 2 1690 
1243 957 217 100 1015 1643 2097 981 364 
1884 1766 1025 828 1174 656 148 1246 1110 
904 944 608 443 1081 192 227 533 298 
980 889 1158 158 108 556 37 986 68 
1674 1510 1988 1464 412 300 287 1655 179 
591 1517 73 1242 687 419 1737 296 1273 
349 234 624 1176 1012 428 289 206 1439 
620 1543 714 367 1605 1504 214 2220 2163 
1914 1202 348 1153 458 1733 525 1201 222 
332 1147 585 193 2078 435 17 2081 1255 
13 230 1136 1367 297 117 955 1540 483 
1054 172 2013 305 256 326 876 3168 1555 
33 717 216 794 46 1553 331 1188 722 
438 2616 637 3104 1810 4351 1942 1319 605 
3346 647 628 909 1585 1753 1651 1714 4536 
539 1203 8 5020 2931 3853 1569 1640 1435 
1307 1226 1535 629 1574 1662 2147 1921 541 
1107 1138 908 1860 1793 706 514 1342 599 
1093 1422 1199 1593 793 143 1890 2061 176 
1502 992 15 404 399 97 21 1828 1615 
1443 954 1278 501 151 701 549 102 872 
191 1317 832 383 1405 1673 588 685 846 
840 418 154 1588 1370 426 295 814 372 
380 650 901 598 232 2010 716 494 32 
1089 1609 161 416 493 563 713 816 1452 
606 344 565 704 1434 782 43 1254 1820 
871 1084 1612 778 242 301 67 479 741 
772 1070 762 500 1360 1395 497 1332 570 
455 521 155 1004 690 259 248 1549 615 
850 753 584 1266 61 207 366 498 522 
131 459 318 1060 545 1275 457 885 558 
166 373 983 275 683 235 244 829 1233 
237 931 891 1309 792 1323 449 949 523 
406 462 465 947 63 1638 975 302 655 
873 718 1083 2384 160 261 133 946 1429 
56 115 879 1103 274 190 279 777 639 
253 532 581 1658 1518 700 99 219 638 
550 1064 1087 1291 703 710 724 712 1045 
664 81 1698 1716 725 394 1428 156 958 
375 352 715 1074 1869 1799 974 48 631 
680 90 2157 1407 559 779 1369 488 2418 
129 239 1096 273 3188 989 26 1562 1813 
123 2113 1827 867 1390 199 1092 360 1038 
578 1007 1908 1228 797 2293 2093 1139 2793 
1603 1904 1723 1978 2238 5048 1363 1221 1100 
1937 4281 1475 2329 4375 3073 2192 1692 334 
1906 758 1065 2413 2393 2443 1436 3706 1380 
691 1052 3275 596 833 1936 2141 1023 1098 
1772 878 371 1621 1928 2673 2399 2997 3911 
2115 2402 4103 4502 4861 4285 1102 3765 2977 
4390 2886 3359 3788 5001 3303 2253 4083 3532 
894 3997 2424 4388 3083 818 2011 2595 5833 
3467 3090 4470 6014 5931 1247 3295 4843 3117 
5464 2658 454 4055 5850 5334 2674 5773 4443 
4880 3607 5930 5882 4497 3526 1564 5508 5926 
4160 4358 2395 5946 5231 5131 5539 5012 3062 
1877 5293 2102 5815 5734 3272 3071 2979 2135 
2462 2082 5581 2969 4700 5690 3763 1213 2470 
1492 431 616 1986 2194 693 392 265 511 
4697 810 141 3713 122 189 4001 20 695 
1028 1586 1447 1069 3152 162 4426 333 795 
574 688 139 322 2171 1809 1127 848 1804 
757 356 2246 858 1388 213 859 4207 2647 
1142 811 402 1397 1878 1993 3302 1738 3171 
182 641 2209 2482 126 2514 163 551 451 
385 607 678 825 611 1031 258 540 808 
627 1044 1850 1001 1040 1671 834 469 382 
819 211 721 526 1024 175 34 515 150 
1151 335 7 220 1399 410 763 1770 312 
756 994 1331 481 1387 165 932 726 892 
173 93 16 272 1080 1613 1293 387 1337 
1111 350 23 2156 180 1385 354 118 1036 
1311 1166 1438 1376 229 489 895 1731 1566 
518 1384 85 286 495 1913 988 673 59 
1219 132 447 362 357 692 805 646 205 
856 658 345 315 1441 1118 1348 897 4 
634 238 860 863 543 1108 1186 153 411 
973 101 613 959 341 138 771 676 2083 
1085 2045 1506 1787 1476 1051 1557 1499 852 
1851 1086 1786 1479 698 1695 496 906 720 
355 1354 649 788 1565 1417 1889 791 567 
471 1148 1137 1450 185 2429 476 27 323 
3170 1980 1104 327 1584 1948 916 268 1205 
174 919 171 1285 351 594 30 2960 1248 
177 461 42 571 433 1377 998 1654 478 
1368 2601 1105 491 855 2020 1539 1263 342 
728 1925 1207 1537 1189 768 746 1208 527 
548 62 113 1494 1713 1 1501 1308 1519 
560 2711 1624 1601 125 730 902 1996 475 
1394 1919 2008 1591 1090 1512 3011 1313 1764 
45 1725 1063 1460 1705 2606 648 1938 707 
1197 2669 966 1868 105 215 784 2852 953 
1950 2520 910 1968 71 1220 2166 593 2142 
3250 78 1645 3536 2105 130 2533 3397 3121 
474 1406 390 77 531 1374 147 675 729 
2545 3150 1608 2588 2339 3319 2437 1259 1451 
1947 2751 767 985 1190 926 633 2400 1284 
1375 893 1819 870 736 3422 5891 4671 6001 
5486 3730 5287 6070 5904 5824 3618 1823 5324 
5623 5774 5556 5353 5793 3792 5018 5901 5052 
4965 6064 5805 4335 4473 5472 5709 5987 5229 
4976 4679 5141 4720 5779 5794 4674 3176 5214 
4421 4728 4909 5799 5900 5554 5073 5576 5569 
5266 3258 5239 4459 5788 6028 5635 5846 4776 
5804 3648 5208 4961 3883 5446 5605 4651 542 
2549 4036 1072 5740 3248 537 1495 1530 5766 
5281 2215 3538 4056 4073 614 4887 5568 1715 
4191 4628 6017 2625 2104 5047 4222 5563 5994 
3892 2535 4534 4848 2167 5430 5292 4408 6038 
3922 1454 3078 5027 5029 5432 5728 5196 761 
2551 4319 5150 4757 3462 3894 4807 3160 5310 
124 4248 2169 845 2500 3193 749 866 308 
2154 2799 504 652 499 3546 1468 1117 737 
2358 1126 1349 1217 1299 144 1356 1099 2532 
751 65 134 1717 1647 3027 340 3108 200 
119 2177 2802 2098 668 1420 2504 2307 1989 
3191 1466 2847 2179 3401 4019 849 116 3259 
2492 1187 1957 2152 2405 2117 2094 2516 1761 
929 1627 1290 377 2249 2262 2828 2761 2703 
2621 1678 1541 936 2043 2569 1477 127 58 
696 359 386 669 140 529 520 264 196 
622 912 564 1058 1330 1250 135 1392 92 
1347 635 799 754 681 346 1059 770 743 
1427 880 1066 853 1214 159 821 164 1097 
583 813 400 659 1109 877 1281 145 838 
969 1412 1547 626 861 1949 2453 2132 467 
1003 1773 28 1929 731 1146 604 773 783 
1286 440 1718 1287 580 88 636 968 1822 
482 25 263 1123 1149 774 1442 823 245 
674 1668 226 1116 935 187 699 841 869 
513 82 943 381 1801 597 512 807 1706 
524 270 1784 1211 942 281 798 1720 1192 
38 660 1050 2282 409 473 452 54 316 
1796 1019 1872 1691 1520 1408 157 149 2107 
1341 528 31 645 1959 1094 202 915 420 
95 1886 307 106 80 590 396 415 208 
1159 765 266 1005 3 1481 711 530 934 
1580 516 188 423 1131 269 181 623 1458 
938 414 1240 120 546 921 434 167 267 
686 1039 486 325 1696 51 826 555 2165 
1172 844 1010 671 2131 1125 1046 812 1752 
445 1509 802 1483 1926 987 1272 1756 2324 
1101 5957 5155 5951 5139 1879 6002 5567 5677 
5538 4137 3440 951 5599 5708 5722 3837 4367 
5966 4659 6031 5737 5663 5199 5466 5339 4201 
5356 5326 4834 3696 5744 5758 4343 4920 5105 
4557 6000 4152 5135 5419 5821 5040 5775 3131 
5977 5757 4639 6058 4900 5068 2417 3349 5825 
5011 5171 5610 2720 1561 4356 5980 3492 5143 
5082 5571 3517 3345 5246 4446 4819 4539 5119 
4748 5910 5714 4209 5670 4277 5976 5701 5492 
4616 5938 5335 3642 5420 4310 3881 5839 5178 
5252 5271 4727 4157 5847 5660 5836 5967 5398 
5674 5235 4675 3388 5741 5520 4617 4299 5288 
6007 5521 5256 4677 3219 5213 5470 3838 2923 
1945 2481 1689 3382 3524 2618 1352 2642 168 
2608 4430 4303 3494 5703 4787 4545 3652 5223 
2941 4107 3836 5138 5154 2430 1871 5474 3064 
3649 4110 5527 3186 4172 3681 4910 3736 5301 
5394 4924 5619 4917 2954 4014 4598 3603 2146 
5046 3424 979 1867 1234 3606 2995 3080 1381 
1670 1027 52 1076 651 3918 1630 47 544 
960 666 254 4118 752 2291 1424 1594 1848 
313 303 2583 2313 1927 2297 1785 4610 2912 
1728 684 107 2684 2486 2351 2867 3960 3279 
1269 2335 1600 3225 3863 2772 3862 2281 2099 
2789 2223 4514 1876 1782 3373 2714 517 582 
2268 939 824 2245 1635 397 184 3410 865 
304 1617 389 311 448 317 1528 1661 76 
2536 376 485 427 1322 1225 321 343 198 
1378 786 733 3447 35 169 110 1386 1453 
1836 363 1162 19 487 178 702 306 830 
2633 621 945 1614 96 575 612 2041 75 
1068 2522 277 291 2436 221 228 450 1846 
1931 5 111 1478 918 446 492 1008 1365 
74 1500 1009 1056 421 490 1445 1181 642 
233 282 424 914 439 835 1301 1318 464 
809 996 379 847 1179 971 907 480 4571 
5616 4912 4850 3591 4969 4484 3594 4332 2708 
3478 5261 4101 5604 6008 5411 5928 5002 4735 
5684 5816 5100 4860 4461 5359 5993 5515 6048 
4417 5861 5923 6003 5932 5719 4991 2920 5808 
4541 5118 4422 3762 2432 5204 4246 5360 5348 
3742 5959 1333 1249 3402 2308 6 5650 2391 
5248 4032 4974 4213 3996 5557 4166 4198 5800 
5704 2829 3962 5185 4903 5280 4063 243 5381 
5692 4176 5236 4525 4895 5400 2570 4368 4117 
5414 5066 4950 5392 5760 3819 5311 5869 5786 
5514 4058 3101 5612 5721 5630 5195 4874 3463 
278 1350 98 689 995 3377 3632 336 1258 
3924 2458 1133 2735 5344 5844 3873 5764 3861 
4147 1011 3395 5006 4519 3022 2993 5037 4323 
2524 4076 4937 4070 3845 3655 3957 3566 3043 
3945 3811 4489 3635 1043 3254 3122 4561 57 
2682 1032 776 425 1965 2288 3611 804 255 
398 2290 1579 79 3949 3766 3672 91 2296 
2643 41 2379 112 2018 3604 1883 2640 1185 
328 1073 1156 2284 2164 1984 3434 2585 780 
2050 679 240 505 1751 2341 197 2204 94 
368 114 1329 1457 320 1747 1224 378 1314 
2396 1021 884 1006 735 1498 990 1421 370 
662 89 1026 913 337 2028 2250 1865 1075 
69 857 2023 1513 1078 1905 2129 1954 2411 
2185 1057 2007 1652 284 466 1143 1633 10 
905 2136 1145 1253 2022 519 1572 152 417 
2072 1013 1018 1414 1592 1829 965 11 1382 
1312 1355 619 1681 55 2389 923 1844 1597 
1523 1316 60 1152 3281 1859 694 1953 2143 
1514 2059 2431 3735 2962 2940 1628 1493 2906 
1854 2148 2378 1590 4420 2872 2725 5831 2189 
1997 2928 2125 2614 2407 1680 1357 2612 2261 
314 1554 2006 2123 1486 1552 1215 2332 2987 
2328 422 2423 1119 976 2184 2416 553 2617 
1866 374 1022 1701 2542 2233 2513 2447 1840 
1759 2456 2653 2234 3198 1684 3002 1808 2046 
2697 1346 2016 1657 1729 2348 2732 2237 2713 
4647 589 2144 3561 2566 2031 1909 3322 2862 
2738 1432 2972 3020 1485 2791 2663 1763 3017 
3464 2466 1389 1231 293 3774 2519 2264 2000 
2267 2076 1636 2919 442 3155 2216 2543 2594 
2796 3216 5217 4173 3797 4482 3619 4090 4469 
1310 1034 1963 1491 87 1400 603 1940 1814 
1037 429 1750 1480 1449 640 2243 769 1235 
1982 2515 1173 1343 1229 2554 1339 617 250 
1619 330 1448 1251 822 1030 2224 1425 2656 
146 395 576 225 72 820 775 1682 241 
460 40 1371 1484 925 1994 1175 2075 1334 
999 1362 868 510 36 1274 1779 1620 1283 
1091 1303 682 1463 1077 1611 1527 2111 1508 
1767 2605 1932 1744 1222 1184 1288 760 1992 
1239 1336 1194 1295 1041 1917 509 50 1529 
1531 750 2376 1280 1930 1960 1899 2455 453 
1991 2092 2380 2159 2502 1707 1679 1525 2850 
463 3224 2309 930 2037 2730 1664 369 1193 
1995 86 437 1164 1951 18 39 276 507 
1462 1035 2118 408 1000 218 1575 1571 1515 
2280 1113 1413 579 1321 1719 203 1198 1232 
294 1900 557 970 329 2452 661 740 2350 
2260 1732 1802 927 1568 991 538 1161 299 
2201 2609 2315 2058 1345 1648 1526 2091 1990 
2057 247 1587 643 2333 1268 2174 1711 1196 
2200 2733 1754 2176 1912 283 609 1538 734 
201 1843 1964 1548 1892 1223 1016 1144 66 
502 653 1121 1901 358 1841 1398 1999 1800 
842 1792 1327 1042 1134 1775 1237 1020 432 
1852 1922 2252 886 815 1210 1973 1853 2321 
1227 1488 1741 1903 1471 2155 2025 1625 1359 
1082 2572 2756 1536 2222 2406 2419 1430 2559 
1238 982 1677 2229 1304 1289 1245 1364 1415 
2507 2555 3075 2531 2027 2881 2610 2247 1602 
1444 2124 2323 2320 4792 864 4121 2890 2747 
257 1241 3262 2620 2882 2540 3535 1918 1487 
3187 3370 3126 3331 3592 2119 2722 1683 2748 
2978 3857 1578 4490 2651 4687 2270 2561 2678 
2773 2564 1270 3878 1939 2285 1788 3291 2963 
3195 4673 2917 3928 2745 1338 2488 4193 2628 
1943 3590 2068 2592 3992 3067 3025 1749 3314 
3095 2139 3708 3769 3358 3846 2860 1560 2994 
3189 2819 5302 3149 4271 2935 3118 4808 3966 
3461 5626 5978 3529 4712 3060 4730 2970 4655 
3897 3472 3444 5385 2461 3908 5628 4143 3622 
4135 4287 5636 5533 3230 3207 4914 5091 4020 
4881 3087 5659 2816 3685 3703 2957 4134 3455 
4312 4573 1849 2705 137 2929 3324 978 2834 
2272 3938 5220 3950 3620 4418 5004 3980 2186 
2804 3146 4670 5323 3196 2742 2876 3416 3901 
3849 5056 3194 3818 3233 103 5524 2275 2759 
5086 4818 2310 4339 4298 2671 4376 3340 3847 
5384 1970 4918 2981 5328 4062 3501 4963 3014 
2240 3292 1150 3109 806 2518 5173 887 1292 
677 3586 1124 1642 4425 1546 1411 2269 1328 
2754 4593 2258 2085 1817 4386 3031 1122 1461 
3074 3362 3099 2051 1791 2840 1933 1934 2193 
1898 2302 1855 1598 2807 2195 3059 3489 2014 
2283 2755 739 1781 2743 2327 2403 3175 3326 
2371 1366 956 1437 339 1372 1326 586 1567 
2210 1472 1325 1837 1344 3507 755 928 1558 
310 252 2248 1599 922 898 1856 2768 1267 
1178 319 1666 2017 484 1114 1663 1244 1163 
1765 2956 2577 1393 1783 1639 831 997 1209 
2048 1659 1743 2401 1862 1305 1815 1271 1183 
1465 2277 1252 2151 1955 1171 1631 1282 1774 
1061 3205 2066 2114 2692 2521 2392 2675 2895 
2060 665 1842 1544 280 70 766 405 1623 
1262 1379 882 2088 950 836 1618 1157 1589 
601 194 403 940 2145 1079 1700 2052 697 
1256 977 705 1699 843 2153 2567 1456 1795 
2298 1294 2106 2483 1055 2084 1088 1794 1824 
2331 1845 2255 2254 2557 1606 1946 1760 1062 
2024 1961 2001 2377 1129 2365 413 1667 1634 
2547 1165 1353 2367 2032 2095 1637 2086 2441 
1776 2479 2517 2226 2550 1236 2412 1641 1694 
2580 2182 2316 1550 2670 1551 2460 2710 2049 
1297 1474 1029 365 2582 577 251 1757 1629 
3332 1200 933 654 948 2343 1858 1595 3627 
1049 2505 1002 1894 862 1803 3360 2230 1302 
2108 1839 1358 3666 3782 3613 2528 2574 1516 
1911 2187 2161 2352 2357 2388 2700 3044 2571 
3888 1709 1826 3228 1873 2503 3688 1902 1697 
1798 1276 3223 796 1279 1298 1489 759 967 
899 2035 2645 2087 1987 1604 1835 2289 2785 
745 5769 1812 2286 2589 1277 2810 3831 1675 
1361 1977 2809 5776 2221 2303 1607 2855 2591 
3315 3232 4097 2777 4718 2304 2322 2739 4377 
3917 3390 3488 625 5269 4280 3698 5325 2878 
1320 4450 5561 6052 4370 5296 5429 4959 5377 
5309 5607 4801 5705 3820 4979 5675 4799 4897 
5725 4768 5442 5438 5602 5911 5081 5761 5950 
3097 4125 4177 4854 4391 5887 4156 2558 4515 
2805 5181 5065 4008 4703 5511 4729 5829 5777 
4782 3278 5509 3665 4811 2884 5279 5580 4944 
5668 4015 6021 5865 3547 4071 3914 5054 5752 
5240 4888 5588 5801 3405 5219 2887 3316 4195 
2863 4294 5098 1545 4522 3348 4758 3822 4105 
3926 5163 6006 5205 5631 5986 5494 4595 4028 
5858 4862 3868 4003 4203 4902 3870 5856 3553 
4278 4664 4452 4761 4660 5123 4226 4212 5129 
4237 4612 4500 3625 4855 3989 4274 4088 4604 
3940 4771 5711 3630 3816 4111 3745 4181 3965 
4326 3004 3715 3958 3477 3578 2463 2553 1923 
1665 3053 1315 2666 1206 1650 1687 1135 1864 
2626 3021 2128 4696 3623 2191 2360 3335 1830 
3179 3970 2438 1755 3050 3192 3238 2218 2968 
2257 4592 2619 4164 2627 2770 1972 2631 2723 
2390 3975 2889 3076 3300 2496 2861 2414 3645 
2948 3598 3394 3375 3181 3407 3776 3815 3605 
5085 3143 3135 2926 3802 3817 3136 3414 2196 
2949 3680 2952 2202 667 338 2127 1409 2116 
430 2346 2604 2336 324 2183 1983 1402 2784 
2168 1881 1622 964 2063 2818 1616 1335 2911 
1722 1831 1924 136 2480 1505 2353 2797 1702 
2815 2408 2312 748 2976 2019 2613 1910 2140 
2440 2587 3419 3285 2090 3209 2896 1626 1857 
2292 2864 3333 2383 2849 2967 1896 2845 1727 
1748 1496 787 1710 1985 1653 2449 1895 1497 
1423 170 1736 963 610 1790 592 2573 917 
1818 1160 900 2100 503 2904 1257 2398 2162 
2055 2624 3154 742 1712 121 1230 1974 1688 
972 2334 1969 2239 2172 1724 536 2465 1306 
2205 2782 1825 4480 1861 2877 3353 1419 2214 
2961 2073 3114 2689 2778 2311 3008 4007 3088 
1170 937 554 984 1952 1979 1967 246 1191 
2219 2197 2038 29 288 3070 1431 827 1721 
262 1891 22 3234 1646 2752 1216 4495 3190 
2138 1296 1470 1708 1693 2263 1340 1071 1433 
1893 3943 1503 2898 2526 2206 2634 2120 3342 
2510 1533 2672 3046 2047 4949 4161 2070 2901 
3180 4708 2527 3942 3199 3978 2779 4372 4221 
5743 644 4225 4453 5125 5656 5622 4894 6009 
5860 5644 4360 5116 5685 5919 6015 4820 4890 
5358 5716 5039 4023 5273 5488 3856 5080 4739 
5872 2921 6011 4935 3644 5671 5112 5995 3552 
5216 5059 4631 4437 3337 5751 4793 4002 5505 
5537 5565 4428 5877 4769 3045 6024 5308 5638 
6040 5939 5177 5724 5028 5130 4341 4046 5590 
6026 5578 5501 5519 4229 4719 6029 5878 5095 
5321 5017 6023 5803 4235 5669 5592 5475 4681 
5817 4702 5439 5543 5625 5873 5996 5534 4995 
6060 5090 5584 5909 4922 5918 4618 4527 5678 
5447 4844 5594 4401 5687 5676 4952 5551 5276 
4747 4266 5989 5144 4024 4324 4549 5968 5224 
5366 5863 4742 4962 4649 5992 5890 5530 5618 
4150 2677 4413 5099 4901 5158 3731 2064 5405 
4546 5647 4602 4938 4833 4939 4178 5791 5342 
4400 5435 3249 4759 4261 4661 4338 4389 4665 
2603 5227 4119 4049 5870 4232 5745 4986 3826 
4872 6053 5845 4197 4186 6022 5471 4954 5198 
4925 3142 4656 4365 4669 4668 3628 4977 5025 
5137 5964 4512 4889 3903 4568 3069 4827 3872 
5933 5387 4403 3954 5637 4263 4256 4562 4946 
4350 4814 5960 5230 2646 5201 4552 5167 4973 
3164 5903 4124 3740 2501 4100 4167 470 4436 
1915 2879 1916 3499 4017 3457 4711 2947 4188 
3151 2300 2760 4726 3572 3563 2933 3539 3525 
3047 3084 3127 2373 2724 3430 3504 3393 3709 
2476 2950 2899 4268 3409 4531 3660 3898 2812 
3865 2798 4599 3453 4486 2562 3449 4021 5570 
4878 5393 2913 4692 4127 5298 3221 4317 4211 
5428 2846 3941 3712 3601 3433 4154 3288 5862 
3998 3242 1656 1847 1875 1524 2029 1383 2242 
2851 2632 2865 1204 2103 2880 2866 2056 890 
3141 1735 3361 2325 881 2478 2433 2484 1758 
1556 1769 1780 3134 2649 2109 2471 2787 1887 
3626 3347 3227 4006 2548 2831 1897 1418 3355 
1885 4130 1734 3106 2374 3294 3725 2074 3460 
3885 3471 3771 3343 2231 2925 2409 2964 3431 
3132 3905 3019 3520 2915 2137 4016 2158 3549 
2121 361 2687 1582 566 109 670 2071 2080 
236 506 24 2112 747 839 1014 1806 600 
2375 875 1033 1573 1834 1583 53 2306 1446 
1649 1981 2499 1403 1771 3521 3400 2652 2746 
2126 2494 2228 3003 2347 2718 1467 5461 4037 
5999 5498 6050 5975 5608 5409 5189 4689 4129 
5535 4851 5549 5806 5600 5424 5739 6068 5460 
5731 4852 5898 5792 5813 6037 5079 5875 5241 
5713 4650 5883 5203 6016 4770 4788 5153 5410 
5948 5864 4913 4635 5469 5627 5245 5015 5336 
4513 5207 4907 4214 6065 5767 5736 5828 6020 
5585 5449 5403 5886 3963 5896 5491 3778 5699 
4723 6018 5110 5984 5730 5712 5351 5389 4972 
5300 5998 5075 5667 5624 5763 5522 5818 5523 
5707 4997 5458 5587 5383 5222 4383 5879 5140 
5550 5345 5404 4732 6051 5888 6049 4423 4585 
5206 5390 4369 3542 4846 4387 4165 4393 5941 
5485 4346 4813 5936 4698 5917 4756 5526 4575 
5694 5927 5317 4856 5914 4407 4582 2661 3812 
3437 3576 5142 4145 4158 4657 4494 4580 1115 
6045 5307 4330 4405 5166 5369 4701 4012 3537 
5575 5168 5379 4812 4523 4653 5013 5782 6055 
3936 4318 5322 4821 4683 5422 5340 5355 5762 
4643 5925 5785 4960 4120 5083 4378 4837 5852 
5244 5969 4342 3684 6039 4605 2854 4463 1182 
2596 2729 2354 3614 2786 3479 3661 2699 2381 
2657 2004 3009 3799 3859 3469 3787 3741 3051 
3567 4162 4313 2110 3274 4314 4301 2821 3543 
3775 1742 384 2721 2491 1482 2345 2737 4394 
2217 4300 2203 2740 1863 3016 962 2190 1907 
3129 5840 2781 2537 3497 2425 1805 3024 3678 
3700 3037 3519 3988 4219 3916 3005 4094 4506 
6063 3256 3246 4766 2891 2541 1570 3035 4098 
3297 3738 4254 5365 2096 3030 5270 1373 4273 
3374 6033 4224 3211 3252 2992 3102 3570 3023 
3475 2434 5748 3239 4810 4817 2927 4029 3860 
3909 4629 5848 3784 4983 3699 3558 4433 4520 
4760 3646 3689 4148 4353 3548 5835 5798 4648 
4695 3979 5958 4292 4829 4544 5658 5595 4126 
2188 5544 5778 2009 1874 4896 2644 2067 4169 
3010 3091 4247 3183 3839 1264 4601 5443 5318 
5854 3866 3330 3222 4457 3165 1778 3948 183 
2212 1577 2734 2680 3677 2274 993 5373 2366 
2622 2175 2958 2765 2581 2814 2457 3351 3800 
3638 3474 1067 4948 3785 4841 5164 2386 2731 
3986 2744 3061 2988 4566 4429 4466 3993 4790 
3115 2512 4597 3418 2134 5559 2578 2892 2464 
4955 4174 5350 2813 4128 3133 2077 5375 3758 
2021 2830 1838 249 2736 2211 2170 3426 2817 
3125 2525 128 2686 3328 5912 3801 2999 2337 
2832 5074 3123 4532 3746 2641 4919 3006 4509 
3086 3363 5457 5156 2451 3029 5971 2951 4445 
4517 2801 3560 3421 2668 4288 4109 3341 4560 
4155 3015 4745 2498 5583 2728 1542 3602 2982 
3458 2667 1140 1676 2370 1888 2012 2178 3280 
3798 1324 1660 2694 3470 2364 2319 2362 2635 
3172 4876 2790 2468 2539 3371 3384 3210 5532 
5299 1746 3357 4182 2394 2701 2932 4311 3063 
3432 3530 5465 5417 2235 4905 2873 2946 4244 