# vtk DataFile Version 4.2
Generated by LIGGGHTS
ASCII
DATASET POLYDATA
POINTS 5310 float
-0.0165002 -0.0172652 0.00599929 -0.0158355 -0.0179696 0.00872899 -0.00840563 -0.0223292 0.00775724 
-0.0133773 -0.0197499 0.00600063 -0.0144016 -0.0190557 0.00785014 -0.0117145 -0.0208765 0.00599963 
-0.00988653 -0.0200673 0.00599955 -0.0105268 -0.0214829 0.00749089 -0.0115759 -0.0188817 0.00599952 
-0.0145476 -0.0189572 0.00989983 -0.0125419 -0.020316 0.00773161 -0.00919914 -0.0193048 0.00910697 
-0.0113335 -0.0211359 0.00928991 -0.0107276 -0.0194711 0.00771851 -0.00934307 -0.0212982 0.00919135 
-0.00974804 -0.0180727 0.00599943 -0.0114801 -0.0182144 0.00933321 -0.0125536 -0.0183157 0.00764976 
-0.0127289 -0.019747 0.00964061 -0.00860252 -0.0203551 0.00750552 -0.00929068 -0.0219763 0.00599949 
-0.0133633 -0.0175283 0.0059997 -0.0123019 -0.018516 0.0111587 -0.0106289 -0.0196255 0.010467 
-0.0103998 -0.0215353 0.0110138 -0.00856694 -0.0181391 0.00761061 -0.0121336 -0.0205948 0.0113588 
-0.00869421 -0.0202748 0.0107819 -0.0105259 -0.0174706 0.00773977 -0.0145551 -0.018948 0.0119004 
-0.00855753 -0.0222693 0.0107553 -0.0150349 -0.0186261 0.00599987 -0.0159136 -0.0178845 0.0108909 
-0.0139017 -0.0173469 0.0108958 -0.0104841 -0.0177012 0.0109904 -0.00857964 -0.0182789 0.0108024 
-0.00919431 -0.0170971 0.00919892 -0.00931316 -0.0219533 0.0126411 -0.00995764 -0.020087 0.0123198 
-0.0139612 -0.0172765 0.012898 -0.00956429 -0.0181727 0.0127419 -0.0149258 -0.0170388 0.00721002 
-0.0131451 -0.0199065 0.0129438 -0.0160372 -0.0177574 0.0128819 -0.0139002 -0.0173523 0.00889697 
-0.0114297 -0.018869 0.0129232 -0.0113685 -0.0168902 0.00600244 -0.0120008 -0.0168935 0.0130258 
-0.011468 -0.0210395 0.0132197 -0.00800642 -0.0191827 0.00599953 -0.00761027 -0.0206847 0.0124137 
-0.00725521 -0.022786 0.00932741 -0.00786801 -0.0171857 0.00599881 -0.00764317 -0.0186904 0.0125435 
-0.00749553 -0.0203557 0.00917021 -0.00737173 -0.0182864 0.00920725 -0.00690771 -0.0193785 0.0108174 
-0.00656691 -0.0215446 0.00776946 -0.00612958 -0.0204995 0.0060016 -0.00107915 -0.0239478 0.00770536 
-0.00409102 -0.0234988 0.00600082 -0.00436046 -0.0222152 0.00774546 -0.00499118 -0.0203206 0.00763805 
-0.00729572 -0.0221243 0.00599988 -0.00398289 -0.0213172 0.00599941 -0.0021165 -0.0238244 0.00600051 
-0.00586453 -0.0232098 0.00687975 -0.00239841 -0.0218844 0.00743073 -0.000147292 -0.0233677 0.00940663 
-0.00215272 -0.0205105 0.0059996 -0.000365237 -0.0196149 0.00600101 -0.00533489 -0.023299 0.00911363 
-0.00311366 -0.0196438 0.0075242 -0.00437451 -0.0193565 0.00599931 -0.00333675 -0.0210084 0.00896773 
-0.00170155 -0.0220565 0.00944784 -0.0010162 -0.0221555 0.00599942 -0.00315942 -0.0175747 0.00760497 
-0.00245221 -0.0185339 0.00599903 -0.00141126 -0.0203679 0.00828174 -0.00534081 -0.0213131 0.00933741 
-0.00379206 -0.0186852 0.00914293 -0.00133929 -0.0184053 0.00765405 -0.00620647 -0.0183009 0.00599947 
-0.00677368 -0.0194186 0.00755699 -0.000157038 -0.0190599 0.00912651 -0.0042542 -0.0200905 0.0104872 
-0.00302993 -0.0236762 0.00805154 -0.00567653 -0.0193447 0.00924254 -0.00351613 -0.0228217 0.00979227 
-0.00191083 -0.0202204 0.0102129 -0.0019089 -0.0181587 0.00955458 -2.18729e-06 -0.0210081 0.00954912 
-0.000426642 -0.0220688 0.0079076 -0.00249171 -0.0219042 0.011279 -0.000570643 -0.0175858 0.00599967 
-0.00540586 -0.0197427 0.0120864 -0.00187819 -0.0238649 0.0102809 -0.000493485 -0.0219351 0.0112513 
-0.000321504 -0.0239065 0.0115341 -0.0050214 -0.0183204 0.00760974 -0.00481252 -0.0182149 0.0109004 
-0.00348773 -0.0236019 0.0116326 -0.000770794 -0.0188083 0.0110643 -0.00187367 -0.0238642 0.012794 
-0.00557508 -0.0173476 0.00926848 -0.00433183 -0.0173573 0.00599941 -0.00670078 -0.0172348 0.00762056 
-0.00449077 -0.0219069 0.0112911 -0.000219405 -0.0171207 0.00980284 -0.00677125 -0.0213712 0.010733 
-0.00290928 -0.0187793 0.0111735 -0.00600351 -0.02319 0.0110496 -0.00138098 -0.0203784 0.0121426 
-0.00113633 -0.0185954 0.0130207 -0.00582962 -0.017849 0.0125829 -0.00337583 -0.0203947 0.0122567 
-0.00679594 -0.0173811 0.0108978 -0.00332495 -0.0222208 0.0130695 -0.00747546 -0.0226979 0.0123821 
-2.32268e-05 -0.0238903 0.00600013 -0.00405655 -0.0186648 0.0130937 -0.000123093 -0.0170557 0.0118018 
-0.00210833 -0.0171562 0.0120245 -0.00585059 -0.021585 0.0127254 -0.00412057 -0.0168709 0.0122155 
-0.00496685 -0.0233591 0.012988 -0.00369465 -0.0166694 0.00930542 0.000505012 -0.0203101 0.00771385 
0.000918679 -0.0238393 0.00776337 0.00135941 -0.0221046 0.0105194 0.000565647 -0.0202497 0.0114316 
0.000530876 -0.0175919 0.00767091 0.0010129 -0.0222651 0.00653455 0.00248875 -0.0220743 0.0121687 
0.00152833 -0.0204091 0.00599941 0.00111664 -0.018422 0.0105289 0.00355584 -0.0236916 0.010867 
0.00251765 -0.0204267 0.0110369 0.00148033 -0.0220595 0.00851761 0.00124488 -0.0184295 0.0060002 
0.0022185 -0.0237682 0.0059998 0.00348051 -0.0199766 0.00599957 0.00397924 -0.0220418 0.00781119 
0.00164996 -0.0199095 0.00930366 0.0030417 -0.0183304 0.00962726 0.00460542 -0.0201514 0.00764243 
0.00300547 -0.0219185 0.00600224 0.00555267 -0.0232153 0.00743574 0.00222063 -0.0186526 0.00780859 
0.00496339 -0.0187785 0.00905007 0.00291292 -0.0237316 0.00787427 0.00420981 -0.0235832 0.00600063 
0.00258573 -0.0206146 0.0076834 0.00505071 -0.0216062 0.00600005 0.00652618 -0.0229448 0.00916485 
0.00362253 -0.0202275 0.00938197 0.00319718 -0.0179973 0.00600014 0.00692518 -0.0208433 0.00599994 
0.00455171 -0.0234933 0.00914326 0.00536937 -0.0193061 0.00599978 0.00619415 -0.0213556 0.00778933 
0.00784753 -0.0225233 0.00772551 0.0063984 -0.0192631 0.00773135 0.00474262 -0.0178919 0.00726649 
0.00423221 -0.0217238 0.0112496 0.00549669 -0.0195618 0.0108109 0.00732359 -0.0188842 0.00599899 
0.00673584 -0.0204212 0.00948059 0.00818034 -0.017076 0.00599968 0.00749084 -0.0226728 0.0108971 
0.00689202 -0.0228425 0.00599933 0.00799157 -0.0204804 0.00779594 0.00683935 -0.0184207 0.0096439 
0.00314691 -0.0221544 0.00962589 0.00720634 -0.0174317 0.00771109 0.00508626 -0.0215867 0.00944235 
0.00276869 -0.018534 0.0116478 0.00181958 -0.0237906 0.0095473 0.00618768 -0.0172393 0.00599977 
0.00249895 -0.0167203 0.00737689 0.00617938 -0.0212925 0.0115442 0.00551798 -0.0232109 0.0108697 
0.00409719 -0.0199318 0.0121967 0.0016759 -0.0237952 0.0115412 0.00460245 -0.0234778 0.0126267 
0.00188735 -0.0203251 0.0129321 0.00167299 -0.0169419 0.00918463 0.000637171 -0.0218942 0.0129004 
0.00452676 -0.01795 0.0124036 0.00655599 -0.0229372 0.0126464 0.000925086 -0.0186039 0.012511 
0.00182625 -0.0167468 0.0113589 0.00848157 -0.0224001 0.0126309 0.00882657 -0.0223057 0.00945468 
0.00882949 -0.0222871 0.00599999 0.00884575 -0.0202852 0.0059991 0.0087028 -0.0203473 0.00983463 
0.00893274 -0.0185442 0.00713417 0.00972665 -0.0218421 0.00773089 0.00960994 -0.0215956 0.0111866 
0.00876911 -0.0184793 0.00912559 0.0115072 -0.0208888 0.011185 0.0106089 -0.0213745 0.00599927 
0.011509 -0.020898 0.00772047 0.0133002 -0.0199437 0.00772206 0.0106263 -0.0193755 0.00600078 
0.0124044 -0.0204187 0.00599905 0.0106188 -0.0213697 0.00945631 0.0134629 -0.0198611 0.0110305 
0.0140321 -0.0192384 0.00599996 0.0114977 -0.018898 0.00773627 0.01601 -0.0178035 0.0059998 
0.012318 -0.0202645 0.00943848 0.00985302 -0.0199175 0.00825738 0.010147 -0.0174349 0.0059991 
0.0104943 -0.0194813 0.0100992 0.0122834 -0.0182567 0.00599975 0.0142918 -0.019237 0.00930823 
0.0150971 -0.0186251 0.00757801 0.0140408 -0.0179544 0.0108207 0.0104537 -0.0175341 0.00964056 
0.0158516 -0.0179491 0.00930293 0.0123061 -0.0182634 0.00945322 0.011851 -0.0187105 0.0113492 
0.0109347 -0.0169793 0.00778036 0.0132374 -0.0179049 0.00772134 0.0149749 -0.018718 0.0124151 
0.0158008 -0.0170427 0.0110879 0.0126066 -0.0202906 0.0127999 0.0137292 -0.016875 0.00600284 
0.0143438 -0.0168174 0.0124524 0.0130704 -0.018332 0.0128884 0.0163815 -0.017411 0.0129748 
0.0123822 -0.0168413 0.0108816 0.0119508 -0.0166755 0.0128373 0.0136017 -0.0167328 0.00929966 
0.016754 -0.0170463 0.00776314 -0.0178192 -0.0157618 0.0059997 -0.0187648 -0.0148763 0.00752287 
-0.0215896 -0.010363 0.00599879 -0.0205629 -0.0120893 0.00599912 -0.0193726 -0.0140697 0.00925738 
-0.0190845 -0.0111488 0.00769925 -0.0200431 -0.0129564 0.00772342 -0.0175206 -0.0137753 0.00600018 
-0.0195198 -0.013824 0.00599959 -0.0170627 -0.0166747 0.00782638 -0.0180817 -0.0130845 0.00808992 
-0.0185629 -0.0120682 0.00600081 -0.0210813 -0.0112315 0.00772863 -0.0215991 -0.0103713 0.00945721 
-0.0171111 -0.0115392 0.00727295 -0.0203964 -0.0123705 0.00960203 -0.0183766 -0.015284 0.0105034 
-0.0167823 -0.0100327 0.00599965 -0.0210197 -0.0112677 0.0111512 -0.0177539 -0.0114279 0.00916378 
-0.0187063 -0.0123325 0.0106698 -0.0189495 -0.0101066 0.00599906 -0.0169186 -0.0131579 0.0097163 
-0.017079 -0.0166572 0.00982599 -0.0172687 -0.0149245 0.00884744 -0.0175423 -0.0106115 0.010991 
-0.0194992 -0.0106262 0.00999524 -0.0168984 -0.00890906 0.0076561 -0.0175758 -0.0137511 0.0115086 
-0.0183874 -0.0122961 0.0126483 -0.0181261 -0.00941104 0.00919112 -0.0220214 -0.00945631 0.00772959 
-0.0195576 -0.0137651 0.0117756 -0.0172028 -0.0165267 0.0118175 -0.020241 -0.00891651 0.00927333 
-0.0220109 -0.00943782 0.0111757 -0.0215753 -0.010413 0.0128747 -0.0184589 -0.0151985 0.0126505 
-0.0178542 -0.00926174 0.0124448 -0.019055 -0.00888992 0.0108844 -0.0193141 -0.0106227 0.0119864 
-0.0168046 -0.0109413 0.0128795 -0.019187 -0.00890035 0.00757517 -0.0204431 -0.0122672 0.0127855 
-0.0203078 -0.00892762 0.0124405 -0.0204063 -0.00872924 0.00599943 -0.022396 -0.00852835 0.00599901 
-0.0179223 -0.00839032 0.00600102 -0.0163346 -0.0149693 0.00708003 -0.01634 -0.0121781 0.0113646 
-0.0164759 -0.0148975 0.0127233 -0.0162843 -0.0101191 0.00951027 -0.0154394 -0.0115146 0.005999 
-0.0154937 -0.0135125 0.00600061 -0.0160947 -0.013151 0.00787854 -0.0121322 -0.0164677 0.00859926 
-0.0154784 -0.015822 0.00869903 -0.0128516 -0.0157095 0.00665453 -0.0124307 -0.012751 0.00726531 
-0.0143496 -0.0122471 0.00750768 -0.013524 -0.0138556 0.00600158 -0.0144816 -0.00975931 0.00599866 
[...]
POINT_DATA 5310
FIELD FieldData 7
id 1 5310 int
837 391 630 1132 587 1360 224 1416 83 
370 1053 1013 49 1455 14 223 1704 1789 
1015 1674 393 1141 1382 2040 1265 195 1355 
1316 1300 1865 10 874 1261 905 1143 1414 
1690 619 1628 2059 1523 708 2022 2411 896 
2389 572 2125 1854 12 1597 547 366 2136 
1145 1685 60 790 289 214 287 477 148 
296 904 714 234 624 206 1070 68 828 
443 584 981 367 179 1429 81 944 1018 
1739 1176 719 891 1202 1312 1572 957 1633 
1766 2081 349 217 1605 1799 1022 2184 1914 
314 1464 965 1119 2163 1808 2 550 61 
1988 1517 1025 1680 364 1733 1346 1684 976 
949 2233 2072 17 2144 1657 553 2328 2423 
1215 1510 412 789 585 1147 620 158 1554 
192 1486 1655 1552 428 1081 608 533 222 
1439 631 639 581 297 48 394 687 556 
108 37 1054 1291 227 483 1201 73 525 
1540 1255 300 591 1869 279 435 56 1231 
99 1357 1389 1543 352 348 1121 2220 1087 
1504 1242 1737 2418 1840 1153 1866 1012 1485 
1901 2123 2612 1892 374 1555 115 256 1319 
199 1188 442 1716 1553 717 986 637 298 
13 722 293 371 332 1136 33 438 219 
1367 876 216 46 605 2093 117 955 2013 
26 1052 833 1772 331 326 1908 1827 1380 
1390 1241 794 691 618 534 632 285 104 
764 1047 598 901 561 1576 1260 941 378 
84 309 800 407 857 1703 1128 1317 1167 
186 803 1797 735 1006 913 1498 89 888 
1026 1457 197 2028 1057 2204 2185 320 1075 
2250 727 1747 2129 210 1106 1004 1048 1314 
2023 368 456 663 562 738 854 204 873 
741 570 131 558 846 100 781 353 1266 
244 889 1452 1243 39 152 1095 64 67 
1021 1110 1413 1060 2160 1180 466 1829 1120 
247 468 347 86 294 519 1155 999 2260 
2097 884 1253 927 2497 947 1246 302 662 
1884 1859 2315 1592 1513 2280 1643 694 2091 
923 55 1844 1951 2190 1900 713 1536 2118 
1232 237 160 500 2452 2006 777 1995 785 
1017 1759 207 1174 1549 455 579 946 980 
1395 274 724 522 497 248 373 772 1273 
1473 885 680 982 656 417 406 1638 156 
1775 1158 1538 734 1223 437 829 975 586 
1227 1020 1134 653 1681 422 2406 502 1625 
1161 792 545 1000 166 1369 815 432 2234 
329 1590 1430 2559 2609 2229 2078 589 2321 
318 2222 2610 2982 59 1144 779 3075 2237 
1148 2394 2027 1888 1664 283 2124 1338 2468 
1364 974 886 66 1045 34 1237 1677 1488 
710 712 458 476 664 879 205 253 698 
1441 90 1074 638 138 1557 1016 1843 375 
132 1398 1205 559 1800 2157 341 1999 703 
201 1238 1741 720 358 607 2119 1922 1471 
1964 654 2419 1210 2488 977 1140 842 2247 
1813 2651 1918 2738 172 725 1562 4 419 
2270 758 715 1499 1476 334 1512 532 230 
646 129 729 177 257 238 700 797 1064 
342 1103 239 495 1105 867 1219 1428 1100 
323 1518 989 998 1228 1038 1407 42 919 
125 1698 1096 1436 471 1658 327 1584 1980 
948 1377 2113 433 1692 1948 273 897 1092 
1220 1537 1937 2293 1363 1208 1938 2238 1713 
1928 864 1102 2008 360 1248 1065 1904 2601 
1906 2960 1475 174 1368 1925 1263 1063 578 
878 305 711 123 215 45 208 268 1197 
105 953 910 1460 1104 1936 1098 1645 1621 
2400 1947 415 966 1764 78 1221 2141 2533 
1868 1725 1968 1950 1406 1489 2459 2669 2402 
1374 3170 2793 2035 2582 2520 142 225 1169 
271 94 1339 563 494 723 114 460 1224 
493 1329 682 750 1130 344 1362 151 1652 
1463 143 418 509 1371 429 260 816 1030 
176 775 372 617 1508 9 1089 1421 1084 
1611 1992 1336 1577 1612 2111 383 1751 576 
102 2075 1222 183 2092 1448 1679 1184 2224 
2341 97 1280 2309 463 1531 1078 1707 384 
2455 2217 1334 2376 1673 2010 1863 1425 769 
569 444 1529 441 399 242 961 337 1515 
18 983 259 275 498 369 72 850 32 
301 380 1332 241 521 557 155 1462 276 
1233 704 510 133 465 416 43 1443 459 
284 718 1077 1575 1732 690 1274 2384 615 
1802 1091 299 449 1568 1990 819 1932 1917 
1193 970 655 1571 2201 1295 2058 643 993 
1631 1268 2037 457 507 1754 36 1960 2200 
2176 782 740 1781 523 218 50 2730 2057 
2114 1041 1899 1838 1196 1164 2350 1542 479 
1031 408 683 1309 551 1083 762 190 1323 
1275 1082 462 808 753 203 1113 1051 1648 
1118 153 1719 1256 1676 661 1345 895 1024 
2156 1548 261 1042 1526 1415 1304 496 755 
852 1853 991 1589 1327 1599 2226 1551 1165 
609 1667 2155 1354 892 1324 1841 2552 2531 
2314 1711 2174 2211 2170 766 2323 2367 1587 
2412 1746 2427 2635 235 2333 2178 2670 1912 
2473 2012 362 411 1903 2869 70 1532 2095 
1417 1289 863 1245 1973 2052 488 959 705 
676 185 1200 447 692 355 771 1786 1294 
665 101 1623 1086 1700 345 958 1186 940 
697 634 916 1456 405 1565 280 1637 1088 
194 1479 1157 860 933 1359 1195 2068 2483 
1487 1697 2320 1602 2084 2479 2024 1129 1961 
1516 2086 2273 1798 2706 2319 2528 2883 1029 
1137 2444 2385 2182 2580 1085 2983 1946 2266 
1559 2388 2213 2039 1521 1606 2049 2083 3011 
2505 601 1049 707 1760 113 1539 1894 1494 
856 855 1519 1718 902 1297 746 906 823 
365 527 768 512 560 62 171 461 841 
1654 82 54 1189 264 1123 270 1591 1394 
251 1190 577 1996 1308 475 730 1803 1919 
1207 1039 728 452 1858 773 1002 1520 1270 
1757 1911 1276 1790 1601 1977 1302 1624 1404 
351 474 2253 2437 71 1886 774 699 1675 
478 1279 1259 147 1375 1 633 604 30 
571 784 636 245 77 95 918 926 590 
307 893 827 266 1131 546 530 554 759 
985 921 899 88 491 269 736 593 1501 
1285 767 967 1284 390 934 1696 1608 423 
648 796 1298 745 1277 1604 625 1470 2221 
2474 1607 568 1194 1930 1343 908 40 508 
1212 872 1426 588 871 1310 1793 552 1235 
778 1264 1229 840 1175 1502 1251 250 1093 
1405 814 701 1449 565 1574 1609 920 685 
1124 1527 146 295 1994 103 760 1620 2269 
1288 333 1484 229 1779 1283 739 2605 2051 
2067 1239 1034 640 1619 1461 1821 2380 330 
2188 2734 858 868 817 2807 2014 1744 154 
820 1642 549 1874 650 1173 1254 538 627 
1122 606 163 925 1447 693 85 211 392 
726 1331 848 756 1321 63 1035 1837 518 
1682 1001 126 1178 898 451 1558 489 928 
1817 2017 484 2209 1344 1198 677 1061 1472 
931 1293 350 469 678 997 93 1114 310 
1659 811 1163 1267 1305 1303 1767 1311 1437 
1934 2768 2151 2066 883 763 1244 404 2085 
1933 1791 2277 1171 286 1036 7 2298 1695 
2401 2517 1618 1209 1271 1774 1384 387 23 
988 834 1080 973 319 403 1348 1743 658 
150 1566 1770 994 357 1663 2210 1325 1913 
1639 1862 1385 1326 1765 2429 1702 1135 1815 
843 1376 613 1666 831 1787 1252 1929 540 
1393 1372 1055 2001 1379 2567 413 1108 1856 
1794 2257 2153 2032 1282 1183 2360 882 964 
2316 2577 1731 359 1465 836 2145 1972 1236 
180 862 791 1845 1776 2026 1824 950 315 
27 2460 2331 136 667 1262 135 912 1250 
567 170 564 696 838 659 805 770 1474 
92 1079 1825 1949 1097 1851 1889 917 338 
1506 467 1595 969 28 1722 2045 1003 2088 
1699 2168 2106 2063 430 2255 1910 1881 1353 
2239 1170 2292 2365 2254 1795 1062 2346 1694 
1924 2557 1626 2613 1857 1634 2383 2359 1641 
409 2377 2980 2441 1956 2550 2976 1706 2849 
2547 2312 2908 2251 1112 2087 2571 159 524 
2877 420 1985 1839 594 1230 121 536 1423 
1544 645 1287 1720 1019 157 681 38 1211 
610 316 1066 281 783 226 516 111 1146 
513 1341 1580 869 788 583 440 674 942 
1149 1710 660 473 2282 900 1629 1240 592 
972 787 968 1818 1451 31 798 1090 187 
1306 2624 1691 1358 1748 2334 1801 1286 1458 
1969 1974 503 1257 2214 2108 2904 1160 1724 
1361 531 1159 2355 446 671 288 1721 1835 
486 623 1819 870 1005 935 188 731 1481 
181 984 1478 1926 167 450 106 267 414 
434 1125 686 396 51 445 826 120 938 
555 824 765 262 1365 1931 1756 5 675 
1046 80 2138 1891 1509 937 1172 1646 1979 
1967 1987 246 1483 2131 1181 1708 2206 1340 
2038 1296 2634 2304 644 1431 22 1693 1982 
599 232 231 1278 1226 161 595 603 1753 
793 1400 1963 1940 1662 706 1411 1569 87 
822 1037 514 1342 1820 1750 1199 191 992 
1107 1860 1480 1593 1328 2424 137 1849 2243 
1138 539 1422 1814 2834 757 2514 395 1434 
1111 1028 1586 1151 954 616 139 16 220 
795 189 141 175 641 402 716 1588 356 
1738 1142 426 887 1535 1307 1890 1397 265 
1530 978 1567 1044 1491 118 832 173 165 
526 909 162 956 1388 1337 382 1809 312 
1166 2248 1993 322 859 1366 339 1150 1828 
1850 1877 1864 385 2147 2405 1545 2177 2761 
2246 1387 1627 1761 21 20 2167 515 2258 
1292 252 2117 2043 922 2191 410 1206 1613 
721 825 853 272 499 932 335 845 134 
481 1059 673 1349 1392 668 1420 127 1214 
1438 1281 929 1290 504 849 1671 119 400 
936 1665 649 1468 1450 799 1773 1347 1466 
2152 1989 2532 861 2504 1678 2666 1830 1842 
2772 140 529 1541 2492 2116 2604 669 748 
1402 1983 58 1616 1058 324 626 622 306 
752 164 1427 386 807 635 543 1477 880 
397 381 145 520 1330 821 346 528 621 
580 754 517 1109 684 1378 1796 1836 2132 
1412 1653 2453 2202 2029 2127 915 1269 2183 
1736 1335 1192 1409 1505 1622 742 2587 2353 
1915 2336 1782 2818 2784 1769 1758 1614 2449 
1712 1895 963 2055 2398 1822 2107 1442 1959 
1408 482 582 1162 1225 1116 809 1872 1635 
110 424 25 74 1009 376 149 321 1050 
597 1496 1668 1528 1204 839 1500 945 1784 
24 1834 1582 943 971 733 1094 202 263 
2100 1386 2162 361 1847 2573 1446 1497 439 
1752 2112 1649 844 2080 1952 875 3 2471 
1771 1780 2172 1573 1301 221 1191 1556 2306 
490 2219 1033 29 1010 325 2165 1101 1846 
1056 1272 1583 178 987 492 802 109 389 
236 506 228 233 566 1008 996 1445 914 
847 600 835 379 642 1216 1071 812 2687 
1014 747 2047 1503 1976 53 2752 2494 2228 
2526 695 1435 1492 1187 1247 354 537 501 
542 1651 182 8 15 628 629 1370 1127 
1213 1203 1154 1585 1640 1069 647 1072 574 
1495 1878 454 511 614 894 122 1871 258 
1333 2417 213 2169 1117 1876 1715 737 1299 
1561 1594 877 1126 1217 951 1040 340 810 
1630 611 124 144 308 1356 65 1399 688 
818 200 749 866 1099 47 303 6 313 
116 168 1352 243 431 1600 98 1249 1076 
1234 107 1689 1615 652 743 377 651 979 
1381 1927 1785 1848 1647 2335 2262 1945 1867 
278 169 1916 2290 751 2098 960 689 1027 
1547 544 1661 2501 96 1670 666 1453 995 
19 427 184 57 1043 255 425 304 1156 
485 612 254 75 52 939 79 1133 865 
336 398 240 470 196 76 91 1728 343 
1617 1011 813 1073 2041 1424 1883 1258 2245 
2018 2268 1524 2291 1965 1068 1579 2242 2633 
35 1875 1032 2699 328 2585 1383 786 2296 
2284 679 2522 702 776 575 2436 890 41 
487 448 112 311 464 1185 780 830 317 
1322 198 421 670 282 505 363 277 291 
1182 1179 480 907 804 1806 1656 2433 1981 
2379 2851 2499 2164 2381 2643 2478 1318 2126 
962 1152 2189 1482 1909 69 1701 2407 2431 
2725 3281 2614 1907 2962 2560 2891 3322 3368 
2987 3024 3735 1966 3738 3017 2887 3480 2906 
1998 3299 3020 3246 3239 4205 2653 193 3120 
2466 2046 1373 2053 11 2016 2096 2031 2261 
2542 2617 2697 2513 1432 2447 2713 2740 3029 
2663 2791 2332 3211 2148 3023 3784 4098 3297 
3475 2992 3252 3026 3803 3734 2939 3527 3516 
1729 3558 2732 2862 1570 2519 2416 2000 2264 
1852 2507 2076 2543 1792 2594 2267 3590 2756 
3198 3909 2025 3372 3230 3216 1578 3619 2796 
3156 4273 2568 1636 1810 2216 130 1023 1978 
1139 2115 1313 2616 3275 3168 596 1942 3346 
3911 2748 3104 3095 2919 1705 990 2396 2410 
1953 1816 2716 2442 2688 3006 2731 2721 3585 
3066 3178 3251 2475 3145 3573 3342 1954 1997 
3129 3113 1905 1493 1514 2143 2940 3016 2425 
2946 2916 2872 2680 3037 2863 2805 2563 1805 
3638 3801 2434 2951 3929 3757 3464 3692 2781 
2873 3421 3640 3378 3293 2928 3283 2600 2858 
2364 2065 3290 2386 2972 2348 2456 1444 2378 
2572 2555 2021 3030 3065 1763 2370 2881 2701 
2541 3363 2790 3280 2566 2235 3357 3458 2069 
2487 3470 3063 1660 2932 3005 2753 3384 2539 
2690 2839 2758 3185 3411 3608 4029 3371 3714 
3210 3172 3758 2523 3855 3798 3637 2637 3102 
3399 2803 3035 2999 3436 3602 3187 3327 2757 
2745 2667 2750 2252 2472 2576 1939 1560 2387 
2994 2694 2773 3189 2628 2917 2574 2173 3358 
3889 2696 2592 2369 3067 2044 2620 2344 2937 
3840 3674 4678 2207 3155 3448 4140 4184 3331 
3291 2882 1723 2192 3708 2393 2413 1788 2139 
548 1603 1007 1749 2540 1683 2852 2329 2020 
2561 2105 2443 2285 2711 3592 3341 3150 2890 
2710 2978 2963 2722 3782 3769 3195 2874 3397 
3551 2678 3025 2860 3262 2747 3360 3706 3666 
3846 2816 3613 2339 3857 3188 3536 2606 2588 
3332 2142 2399 2545 3121 2289 3319 2461 2842 
3118 3250 2166 2751 2825 2957 2970 3223 2645 
2886 3296 3303 2935 3878 3532 3505 3627 3359 
3060 2897 3115 2556 2007 2469 2850 2579 2175 
2737 2814 2491 2892 1522 3061 2345 2274 2644 
453 2820 2227 3356 3165 1067 2203 3418 3224 
2366 1807 2944 2578 2597 2744 2278 3753 2558 
3519 2759 3925 3313 2009 2236 2450 3264 3376 
4298 3501 2909 3057 4169 3207 3650 3497 2728 
2622 3426 3328 2212 2033 2581 1975 1525 249 
2512 2337 2641 1991 2195 2765 2830 2498 2502 
2736 3197 2958 2134 3321 2101 2259 3423 2338 
2451 2832 3557 2593 2971 3677 4053 2938 3540 
3564 2537 2495 1610 3484 2996 3829 3807 2986 
4194 3309 3169 2801 2988 2659 128 2650 2241 
3125 2774 3015 2686 2822 2733 2305 2525 2813 
3123 2817 2930 2584 2464 1778 2826 2448 2362 
3226 2681 2766 2965 3086 2042 3215 2485 2981 
3048 2490 2655 3906 4243 3748 1833 3675 3783 
3081 3077 2279 3269 3509 4333 3244 3116 3174 
4038 3506 3337 2493 3560 3654 3450 2598 4185 
2623 3679 3417 2771 4182 4225 4187 3891 2340 
3697 2974 2363 1880 3352 2827 2122 2299 3491 
2819 2435 2271 2599 1740 2709 1440 2565 1768 
2356 2054 2715 1534 1832 2397 3420 3052 2317 
3206 3055 3240 2630 3241 3441 3515 3555 3263 
3338 3130 2357 4025 2823 2506 3415 3690 2702 
3636 3096 3276 3429 3214 2959 3153 4404 3899 
3289 3544 3018 3651 3273 1826 2330 1902 2276 
3159 3913 2230 3044 2187 3472 3438 2343 2868 
3228 2700 2777 2322 2002 2161 1469 1873 3105 
2079 2698 2439 2030 3148 2767 2368 3163 3867 
3743 4046 2342 3119 3054 2534 3304 4141 3767 
3728 3580 3541 4354 1812 2639 1563 2809 2704 
2918 2036 3383 2303 2589 2294 2810 2286 1730 
2005 1581 1410 1320 2591 2003 2739 2668 2835 
3089 2719 3565 3097 3056 3615 3087 3994 3609 
4348 2837 2905 1970 2159 2445 2554 2656 2804 
2717 930 2186 1870 3217 3746 3039 3183 3577 
2884 3091 3454 2876 3340 2808 2295 3759 4027 
2310 3486 4238 3763 2833 2395 4560 3980 2135 
3416 2907 3301 3175 2695 3351 2077 3059 3407 
2755 3171 2327 1598 2060 2403 3031 2302 1546 
2889 2181 2743 2511 2521 3362 2283 1955 3507 
2675 2467 2840 2952 3326 1855 3715 3074 3099 
1898 3533 2048 2371 3553 2770 2193 3004 3958 
4013 3459 2948 3630 3136 3391 1669 3946 3143 
3680 3329 2895 2392 2926 3012 2692 2196 1783 
2414 3205 2861 3318 2693 2949 2870 2361 3112 
2859 3375 3300 3658 3336 3204 3367 3574 2415 
3581 2218 4252 3093 3761 3000 3325 3128 3673 
3605 3554 3842 4179 3816 3502 3490 3404 2586 
1920 3334 3522 2966 1962 3203 2811 3556 2062 
3265 2665 3082 2130 1726 2382 1550 2638 1745 
2244 3001 2660 2508 2776 2844 2198 2530 3425 
3182 3624 3235 2795 2372 3229 2683 3498 3298 
2150 3545 3271 3236 2764 3686 3058 3307 3243 
2910 4009 2875 3737 1896 2778 3959 3764 4122 
3202 1709 2509 2034 2775 2420 2422 2477 2689 
2806 3466 2855 2955 2685 2901 2205 2654 2503 
2990 3008 1644 2232 2961 2782 1861 2311 3428 
2885 2263 3088 2894 2527 1351 3315 3200 3049 
3110 2197 3177 3390 2953 2629 2575 3575 3070 
3406 3977 2788 3107 3208 4131 3770 4020 3876 
2800 3893 3772 2070 3703 3079 3180 2936 2783 
1596 2510 3138 2727 2318 3046 2878 2446 2352 
2843 1533 2225 2785 2544 3234 2898 2780 3656 
3593 4136 1882 1564 2515 541 2742 2929 1921 
1986 3272 2595 1714 3324 3176 3607 2102 3196 
2011 2705 3146 2969 3062 2658 2979 2462 1823 
3233 2956 2671 3467 3160 2569 3192 2171 3193 
2240 2703 806 2272 1454 1957 2082 1804 2194 
2647 2535 2482 2500 2470 3014 2625 2249 1687 
2215 761 1755 2847 2720 3462 2828 3259 3335 
3238 2094 2551 3302 3292 2754 3401 2061 3822 
3349 3455 2941 2463 4203 1923 3078 3649 4207 
4382 2677 3414 3181 2326 3366 3802 3453 3776 
3598 2626 2619 2968 2627 2646 2438 2723 2911 
2553 2390 2440 1650 1315 2879 2128 2954 2408 
2146 2476 1717 2603 3021 3578 3050 2815 3424 
2724 3563 3186 2845 2281 2631 3645 3970 3628 
2496 3053 3826 3451 4100 3179 3660 3393 3394 
3709 3409 3815 2933 3433 4546 3790 2967 2648 
3333 3848 3221 2900 2899 2896 2797 3209 3285 
2090 2789 2140 1831 1727 2562 2480 2099 3419 
2760 2019 3141 2300 3499 2632 2798 3347 2787 
2864 3184 2812 2231 3355 4106 4006 3294 3132 
2913 3443 2607 3154 2373 3780 2964 2846 2950 
2943 3343 2924 2652 3114 2089 3369 3468 2465 
1419 1735 1688 2109 1418 1762 2137 2779 1885 
2679 2073 3041 2265 3353 3521 1887 1734 3534 
2866 3520 3559 2649 3350 2922 3400 3844 4260 
3725 3921 3496 4337 3446 3220 2888 2991 2831 
4130 2538 4116 2615 1897 2902 3354 3791 3727 
3511 3100 4133 3493 3562 3255 1944 1403 2324 
2428 3003 2893 1433 1218 2349 2120 1941 1893 
2347 2984 2672 3311 2636 3386 3589 3190 3452 
3754 3518 3083 2154 2516 2674 3191 2802 2608 
3478 3131 2432 2570 3027 2358 3248 2179 2829 
3494 2618 3108 2923 2642 2064 4332 2104 3080 
3090 3594 3402 3345 2621 2308 3572 2430 3373 
2351 1115 2486 2867 2799 2583 2307 2313 2458 
2684 2735 2524 2661 3022 2714 3151 2223 3225 
3122 3279 3606 3949 3655 1350 3043 2288 3862 
3863 3672 2993 3395 4032 2947 3242 2682 3885 
3084 3447 2056 3134 2325 2729 1742 2297 2657 
1984 2103 2640 3106 2484 2786 2050 2880 3434 
2374 3227 2548 2354 3051 2536 3449 3859 3567 
3799 3539 3410 3614 3009 3787 4531 3361 3127 
3431 3631 4221 2121 2421 2158 3380 3471 3379 
2110 2596 3237 2925 2915 1935 2865 881 2375 
2409 2074 2071 1467 2004 3038 2934 3019 1672 
2718 3775 3274 3261 3741 3716 3166 4234 3905 
2746 3094 3007 3002 3934 3678 3157 4157 3561 
3487 2853 3173 3641 3983 3694 3222 3034 2590 
4050 3570 4071 3854 4380 4288 3098 2973 1943 
2564 3530 3860 2529 4442 3689 3682 4308 3793 
4103 2997 3797 1686 3774 4351 3370 4148 4375 
4069 3664 2848 3287 4254 3476 3587 4269 3794 
4031 3849 3569 3610 3805 3939 4506 3256 3013 
2769 3408 3413 3683 3621 4538 4035 4397 4466 
4115 3722 4451 2762 2989 3085 3986 3733 2794 
2921 3162 3931 3644 4431 3948 3339 3711 4690 
4629 4309 3374 4240 3882 2927 2763 4353 3698 
4361 4224 4042 4139 3982 4230 2707 3916 3947 
4331 4645 3912 3852 2673 3073 2903 3199 3879 
4321 4143 3529 3149 4281 3966 2977 4390 3597 
3888 3461 3232 4344 4488 4044 4366 4419 4047 
3979 3330 3147 3133 3724 2726 3987 3317 3201 
3707 3880 3305 3442 3485 4199 4670 2457 4291 
3839 3890 3582 3687 4472 3032 3940 3600 3920 
3482 4057 3531 4550 2691 3396 3634 4412 4438 
3268 3483 3785 4045 3218 3403 3832 3719 3721 
3809 4591 3760 4577 4061 4688 3653 4316 4409 
3444 3514 2856 3810 3691 3796 3833 4449 3439 
4216 4578 3500 4065 4066 3747 3808 3385 4286 
3676 2985 4641 3245 3952 3978 3800 3547 4134 
3749 3668 4415 4685 3344 4778 3943 3435 3412 
3612 3828 4341 4295 3579 3389 4239 2998 4161 
3795 3194 3956 4276 3820 3993 4095 3877 4026 
4092 3696 3739 3364 3137 3704 3643 4418 3586 
3950 3538 3883 4536 4371 4218 3152 3745 2275 
3158 3965 3835 4386 4226 3474 3892 3731 3870 
3489 4154 3512 3523 3284 3702 4245 4124 3723 
4693 3954 4202 3817 4017 4540 3584 4612 4528 
4465 3662 3633 3718 4481 3616 4153 3266 4093 
4448 4075 3669 3040 3392 3310 3387 3967 4040 
3895 3701 4607 3167 3831 4108 2975 3915 3213 
3984 4033 3717 3473 3253 3365 3124 3932 3919 
3111 3964 4113 3481 3955 3445 3726 3028 3688 
3595 4159 3825 3914 3550 4056 3922 3295 3117 
3071 2708 3642 4452 2549 3109 3348 1879 3730 
3618 3492 4003 4593 3926 4178 3713 4408 4191 
3865 2518 3045 4222 3101 4356 3388 4326 4248 
3524 3528 3836 3623 3894 4430 2920 4329 3736 
3525 3164 4088 3850 3960 4556 3135 2995 4514 
3681 3047 3076 3069 3457 3625 4197 3254 3898 
3142 4164 3477 3231 3033 3670 3537 3504 3286 
2662 3068 4317 4241 4553 4127 4211 4242 4279 
4487 4162 4498 3971 3756 3937 4569 3599 4334 
4227 3729 3907 4402 3869 3398 4084 4067 3596 
4445 3927 3771 3695 4516 3639 4112 4314 3974 
4125 4099 3667 3871 2426 4228 4453 2741 4411 
3841 4190 4034 3969 4019 3652 4176 2391 3546 
3611 3463 4561 3924 2481 4232 4167 3437 2912 
3604 3249 3566 3957 3377 4188 4076 4145 4213 
4147 3430 4063 2821 3873 3626 4012 3460 4268 
3469 4342 3659 3845 3843 3072 3543 3661 4399 
3549 2854 2871 4039 3479 3617 4805 4385 3944 
3992 3806 3308 4477 4283 4002 4082 4590 4325 
4078 4087 4740 4420 4410 4008 3988 4297 3427 
3381 3665 3161 4287 4443 4327 3874 3887 4155 
4062 2838 3405 3972 4204 3985 3710 4247 4180 
4916 3535 3755 3750 3432 3752 3777 3897 3622 
3126 3953 3267 3834 4490 4236 4285 3568 3440 
3588 4650 3508 4059 4455 3732 4049 4267 3278 
3647 3941 3456 3320 4089 4215 4051 3975 3465 
3140 4398 3314 3928 4347 4258 3773 4086 4562 
4811 3495 4345 4594 4121 3629 3663 3827 3792 
4055 4551 4500 4278 3510 3219 3904 4457 3866 
4163 3282 3789 4389 4436 4289 4564 3542 3991 
4052 3823 3744 4200 3995 3092 3900 2792 3306 
4307 4192 4048 3936 3316 4001 3824 4036 4186 
3064 4101 3010 4400 3583 4643 4079 4545 4304 