# vtk DataFile Version 4.2
Generated by LIGGGHTS
ASCII
DATASET POLYDATA
POINTS 5999 float
-0.0175846 -0.0414251 0.0102183 -0.0101401 -0.0438474 0.0101957 -0.0138852 -0.0427198 0.0110663 
-0.0194894 -0.0405515 0.0136267 -0.0158755 -0.0420428 0.0144805 -0.0120926 -0.0433279 0.0146796 
-0.00620178 -0.0445799 0.0102073 -0.00253854 -0.0429564 0.0102185 -0.00630239 -0.0406976 0.0111711 
-0.00830582 -0.044226 0.0137477 -0.00950875 -0.0403978 0.01382 -0.00434564 -0.0447883 0.0137554 
-0.00583598 -0.0413285 0.0151029 -0.0006846 -0.0449843 0.0153548 0.00826282 -0.0441784 0.0101821 
0.00440567 -0.0430066 0.0104479 0.000918075 -0.0449731 0.0102045 0.00164592 -0.0400991 0.0103057 
0.00865027 -0.0409017 0.0132597 0.00467143 -0.04064 0.0136731 0.00294844 -0.0448951 0.0136776 
0.000783029 -0.0415399 0.0139361 0.00691734 -0.0444447 0.0139415 0.0145212 -0.0414868 0.0101761 
0.011663 -0.0434396 0.012206 0.0170726 -0.0416338 0.0132933 0.0138947 -0.0427489 0.0154533 
0.0205341 -0.0400291 0.0145024 -0.0309526 -0.032642 0.010289 -0.0320771 -0.0315131 0.0139645 
-0.0214695 -0.0395014 0.0103087 -0.0246682 -0.0334285 0.0101747 -0.0212042 -0.0354335 0.0102412 
-0.021217 -0.0314402 0.0105706 -0.0249075 -0.0374458 0.0105433 -0.0280612 -0.035154 0.011443 
-0.0269455 -0.0316014 0.0129131 -0.0230456 -0.0340519 0.0139161 -0.023406 -0.0299837 0.0139991 
-0.0228776 -0.0387461 0.0147643 -0.0262316 -0.0365658 0.0147092 -0.0293183 -0.0340878 0.0152915 
-0.0112104 -0.0398596 0.0102372 -0.0177204 -0.0374246 0.0102887 -0.0142668 -0.0354069 0.0102636 
-0.0177436 -0.033425 0.0103418 -0.0141996 -0.0314075 0.0103493 -0.0101991 -0.0314621 0.0102471 
-0.0145614 -0.0389525 0.0122299 -0.0113019 -0.0366613 0.0126378 -0.012132 -0.0328269 0.0134753 
-0.0196614 -0.0365574 0.0137613 -0.0159845 -0.0303779 0.0137876 -0.0193297 -0.0325717 0.0139131 
-0.0157835 -0.0344221 0.0139114 -0.0164247 -0.0379764 0.0156372 -0.00813022 -0.0372509 0.0102731 
-0.00621336 -0.0310849 0.0102896 -0.00221495 -0.030981 0.0102408 -0.00410973 -0.034509 0.0103277 
-0.0011251 -0.0372047 0.0105629 -0.00276405 -0.0400033 0.0129075 -0.00791484 -0.0339442 0.0125145 
-0.00538649 -0.0369958 0.0131896 -0.0017408 -0.0334408 0.0134493 -0.0042165 -0.0303012 0.0136788 
-0.00821109 -0.0300907 0.0136139 -0.00184823 -0.0369658 0.0153481 -0.0085971 -0.0369173 0.0155744 
-0.00521986 -0.0337458 0.0155178 0.00643732 -0.039377 0.0102883 0.0035333 -0.036561 0.0101959 
0.00494933 -0.0325347 0.0102133 0.0076377 -0.0355061 0.0101423 0.00874312 -0.0312107 0.0101885 
0.000744834 -0.0336835 0.0102224 0.00577786 -0.0367983 0.0134992 0.00977439 -0.0367772 0.0133037 
0.00303341 -0.0338052 0.0135011 0.0018035 -0.0376602 0.0137766 0.00722246 -0.0330664 0.0135647 
0.0104896 -0.0391503 0.0101615 0.0140614 -0.0372266 0.0102055 0.0180269 -0.039243 0.01021 
0.0170453 -0.0312889 0.0101568 0.0131038 -0.0305537 0.0102685 0.0114197 -0.0341955 0.0102091 
0.0178861 -0.035216 0.0104146 0.0147105 -0.0336514 0.0124267 0.0129598 -0.0395018 0.0133069 
0.0109879 -0.0317072 0.0134797 0.0164169 -0.0374888 0.0134288 0.0189657 -0.0322149 0.0135546 
0.0125149 -0.0348973 0.0155422 0.0248975 -0.0324578 0.010189 0.0220162 -0.0352566 0.0101434 
0.0210458 -0.0313108 0.0102471 0.0288067 -0.0344181 0.0103787 0.025656 -0.0369251 0.0102718 
0.0220202 -0.039236 0.0106256 0.0282817 -0.0302919 0.0102342 0.0201504 -0.0360655 0.0136136 
0.0236227 -0.0340777 0.0136212 0.0272686 -0.0357981 0.0138045 0.0239659 -0.0380532 0.0139257 
0.0269852 -0.0317843 0.013866 0.0233441 -0.0300879 0.0136591 0.0316357 -0.0319793 0.0119375 
-0.0361179 -0.0268179 0.0102564 -0.0399449 -0.0207324 0.0102304 -0.0328124 -0.0291014 0.0101759 
-0.0330067 -0.0213904 0.0105671 -0.0366781 -0.0229279 0.0110134 -0.030068 -0.025475 0.0101757 
-0.0333569 -0.0249122 0.0124349 -0.0307063 -0.0277642 0.0133965 -0.0347328 -0.0285093 0.0137081 
-0.0392423 -0.0219716 0.0139948 -0.0311487 -0.0222109 0.0144399 -0.0351252 -0.021608 0.014461 
-0.0371333 -0.0253646 0.0142993 -0.0290292 -0.021607 0.0101747 -0.0250799 -0.0209544 0.0102293 
-0.0287664 -0.0292843 0.0101951 -0.0220206 -0.0235321 0.0102428 -0.0212374 -0.0274546 0.010233 
-0.0255279 -0.0254569 0.0102474 -0.024752 -0.0294204 0.0102656 -0.0276401 -0.0237795 0.0132408 
-0.0229754 -0.025989 0.0135403 -0.0266244 -0.0276242 0.0136711 -0.0240379 -0.0221486 0.0139087 
-0.0187589 -0.0212087 0.0102165 -0.0144533 -0.0271562 0.0102424 -0.017965 -0.0251407 0.0102473 
-0.0114056 -0.0245543 0.0102419 -0.0149224 -0.0223449 0.0102713 -0.0177535 -0.0294235 0.010327 
-0.0111883 -0.0203097 0.0103565 -0.011944 -0.0288808 0.0128389 -0.0155886 -0.0250766 0.0134725 
-0.0197166 -0.0232969 0.0135039 -0.0125333 -0.0224951 0.01348 -0.0196644 -0.0285894 0.0137429 
-0.0106676 -0.0257312 0.0149485 -0.00468007 -0.0234507 0.0102442 -0.00890172 -0.027678 0.0103516 
-0.00718697 -0.0203338 0.0102735 -0.00105665 -0.0271516 0.0103306 -0.00498287 -0.0273541 0.0110847 
-0.000478077 -0.0231919 0.0103035 -0.0079607 -0.0242887 0.0123792 -0.000249837 -0.0297184 0.0134987 
-0.000759223 -0.0209306 0.0135933 -0.00269851 -0.0244307 0.0135785 -0.00500394 -0.0211642 0.0137057 
-0.00897506 -0.0207035 0.0138373 -0.00602553 -0.0268731 0.0149428 0.00202418 -0.0297989 0.010207 
0.00651777 -0.024559 0.0102513 0.00580648 -0.0284954 0.0102687 0.00350174 -0.0219319 0.0102607 
0.00273407 -0.0258623 0.0102782 0.00980355 -0.0273143 0.0103879 0.00682831 -0.0213062 0.0125822 
0.00400031 -0.0298897 0.0136897 0.00791862 -0.0288689 0.0137642 0.00129918 -0.0243675 0.013705 
0.00497049 -0.0259938 0.0137052 0.016922 -0.0272871 0.0101379 0.0135237 -0.025178 0.0102025 
0.0168341 -0.0228156 0.0102427 0.0131787 -0.0211893 0.0102443 0.010152 -0.023477 0.011524 
0.0126848 -0.0277855 0.0131478 0.0174699 -0.0251559 0.0134827 0.0164349 -0.0290222 0.0137883 
0.0182641 -0.0212328 0.0136267 0.0135015 -0.0231836 0.0136996 0.0105585 -0.0204065 0.0140548 
0.0100511 -0.0244941 0.0153916 0.0242726 -0.0241706 0.0101727 0.0234364 -0.0280823 0.010188 
0.0203187 -0.0247819 0.0101986 0.0280355 -0.0213392 0.0101891 0.0200369 -0.0202037 0.0101593 
0.027058 -0.0266974 0.0115497 0.0200923 -0.0280895 0.0124465 0.0220774 -0.0222542 0.0129267 
0.0260443 -0.0226288 0.0134106 0.0233027 -0.0260024 0.0136055 0.0289132 -0.025095 0.0147163 
0.026251 -0.027994 0.0154421 0.029764 -0.0289044 0.0136886 0.0302887 -0.0246449 0.0103421 
0.0341197 -0.0234726 0.0102557 0.0381093 -0.0237658 0.0101744 0.0319818 -0.0282698 0.0103384 
0.0358852 -0.027093 0.0104306 0.0363425 -0.0201225 0.010308 0.0326924 -0.0254298 0.0134435 
0.0342924 -0.0290943 0.0135238 0.038471 -0.021496 0.0134527 0.0306039 -0.0217034 0.0134324 
0.037186 -0.0252977 0.0137674 0.0342884 -0.0201724 0.013745 -0.0433385 -0.0110111 0.0101914 
-0.0422047 -0.0155265 0.0108829 -0.0410385 -0.0184543 0.0133563 -0.043103 -0.0128706 0.0137447 
-0.035887 -0.0139452 0.0102061 -0.039635 -0.0125344 0.0102075 -0.034601 -0.0177358 0.0102191 
-0.0385326 -0.0169872 0.0102509 -0.0305591 -0.0179004 0.0102489 -0.0336879 -0.0106 0.0101717 
-0.0316983 -0.0140667 0.010335 -0.036773 -0.0116745 0.0133864 -0.0392674 -0.0148377 0.0135563 
-0.0326385 -0.018596 0.0135968 -0.030212 -0.0122693 0.0135968 -0.0345491 -0.0150659 0.0138113 
-0.0370687 -0.0181749 0.0137991 -0.0332537 -0.0108089 0.0157518 -0.0266105 -0.0172585 0.0102484 
-0.0240811 -0.0109821 0.0102185 -0.0233561 -0.0149246 0.0102039 -0.0218236 -0.0186317 0.0103089 
-0.0297136 -0.010149 0.0102375 -0.0273067 -0.0133286 0.0105634 -0.0268205 -0.0102239 0.0130378 
-0.0218743 -0.0126269 0.0131268 -0.0209859 -0.0198675 0.0151276 -0.0273587 -0.0197394 0.013296 
-0.0289548 -0.0160717 0.013492 -0.0239817 -0.0175822 0.0136825 -0.0255413 -0.0139095 0.0141047 
-0.0201376 -0.0160593 0.0142256 -0.0239641 -0.0105337 0.0158202 -0.0119957 -0.0163673 0.010204 
-0.0162035 -0.0181295 0.0102464 -0.0193175 -0.015512 0.0103486 -0.015545 -0.0141842 0.0102886 
-0.0119938 -0.0123813 0.0106611 -0.0185754 -0.0115731 0.0104425 -0.0134978 -0.0186102 0.0131574 
-0.017251 -0.0199054 0.0136959 -0.0144306 -0.0114385 0.0136955 -0.0122074 -0.014836 0.0139904 
-0.0161405 -0.0156308 0.0139727 -0.0182294 -0.0121753 0.0147137 -0.00299334 -0.0198223 0.010285 
-0.00435986 -0.0128682 0.0102222 -0.00825972 -0.0137577 0.0102452 -0.00550668 -0.0167032 0.0102739 
-0.00161526 -0.0157785 0.0103101 -0.000710886 -0.0121357 0.0116935 -0.00893263 -0.0168106 0.0127458 
-0.00922279 -0.0113046 0.0133628 -0.00509402 -0.0105787 0.0136728 -0.00557639 -0.0145496 0.0136444 
-0.00306598 -0.0176636 0.0136518 -0.000896459 -0.0145621 0.0149461 -0.00144915 -0.0106177 0.0153199 
-0.00647792 -0.0178481 0.0157333 0.00651918 -0.0104268 0.0102244 0.000899345 -0.0188904 0.0102599 
0.00301141 -0.012448 0.0102623 0.00496901 -0.0181471 0.0103954 0.00971216 -0.0191549 0.0103498 
0.00622609 -0.0144672 0.0115223 0.00200637 -0.0157243 0.0124505 0.00304307 -0.019688 0.0135467 
0.00778762 -0.0175558 0.0136048 0.00631845 -0.0114044 0.0141029 0.0023202 -0.0113078 0.0141714 
0.004839 -0.0151353 0.015214 0.00873418 -0.0142187 0.0156044 0.00996402 -0.015038 0.0102167 
0.0183343 -0.0130466 0.0101974 0.0131966 -0.012105 0.0102072 0.0133344 -0.0171926 0.0101941 
0.0173344 -0.0172546 0.0101717 0.0153829 -0.0146023 0.0124516 0.0161322 -0.0106738 0.0125488 
0.0100041 -0.0118299 0.0126055 0.0118049 -0.0159208 0.013677 0.0143763 -0.0192791 0.0136407 
0.0178107 -0.0172925 0.0141482 0.0183807 -0.013386 0.0148168 0.013161 -0.0121931 0.0150894 
0.0242707 -0.0199021 0.01033 0.0233881 -0.0125004 0.0101495 0.0211905 -0.0158473 0.0101601 
0.0292951 -0.017148 0.0101941 0.0273759 -0.012844 0.0101606 0.0250814 -0.0160022 0.0110917 
0.020642 -0.0105672 0.0123311 0.0271185 -0.0187838 0.0131275 0.0215989 -0.018274 0.0133152 
0.0254562 -0.0116462 0.0134657 0.0282129 -0.0149504 0.0134674 0.0297249 -0.0112444 0.0134867 
0.0221678 -0.0140205 0.013654 0.02485 -0.016408 0.0154187 0.0322427 -0.0198733 0.0102686 
0.0380892 -0.016502 0.0101489 0.0313055 -0.013689 0.0101591 0.039293 -0.0113559 0.0102288 
[...]
POINT_DATA 5999
FIELD FieldData 7
id 1 5999 int
544 482 514 477 215 124 144 333 828 
454 414 161 625 218 1092 1037 856 589 
877 250 122 18 455 307 901 495 430 
1792 1045 19 862 120 97 520 924 598 
1044 505 200 1171 680 100 107 52 135 
145 379 228 551 450 407 271 1506 153 
1328 1575 53 263 1095 426 158 27 257 
242 209 194 464 10 1286 981 408 476 
501 336 706 1008 138 773 596 185 83 
203 246 230 992 364 41 404 777 567 
1033 109 338 391 46 247 608 760 245 
690 397 47 1358 605 968 1387 1176 154 
557 1316 966 274 440 115 512 285 1280 
675 443 764 580 1019 344 434 816 378 
623 874 33 713 1005 94 294 669 946 
11 724 63 502 302 49 402 1476 119 
55 546 704 1015 424 199 174 1166 515 
1418 1028 1640 711 818 776 469 952 504 
684 365 371 400 633 1676 1285 114 276 
8 149 758 918 641 102 392 937 2221 
1754 310 614 1042 876 396 54 844 1036 
858 1412 2136 442 248 112 210 516 401 
509 350 382 90 267 1114 22 779 861 
136 413 249 437 349 787 348 1107 659 
57 223 525 703 803 741 639 824 131 
360 281 550 163 650 1537 68 854 125 
1325 533 243 668 1407 664 311 84 487 
374 345 674 1208 1623 1722 1055 697 296 
429 99 113 42 815 190 951 201 964 
808 403 747 990 66 1126 205 616 293 
1338 38 718 1152 994 1482 1404 1174 168 
1144 1494 317 875 1185 353 980 833 622 
1177 1497 1710 630 848 39 1077 117 256 
1083 635 291 1288 859 1508 819 1931 528 
962 461 1035 231 523 788 123 679 1775 
43 927 86 142 423 314 590 1180 1214 
372 1262 853 1057 1355 692 139 1372 1503 
686 802 417 134 92 399 1123 1584 562 
1212 615 1961 20 783 1096 126 558 72 
1359 1772 1233 826 1830 202 1071 731 485 
447 906 354 1333 619 884 1443 369 1231 
175 821 221 58 612 1101 584 496 1133 
545 278 1130 1105 931 903 342 445 543 
500 831 1586 1140 1509 2104 869 489 441 
427 1486 627 1481 710 1027 1088 1569 830 
1876 1728 695 967 784 1142 322 900 1692 
855 537 1674 1202 1281 410 73 421 393 
1161 896 389 933 1120 1100 1145 658 1032 
458 48 108 842 751 137 914 241 367 
418 1151 693 796 1011 870 604 1014 105 
292 1009 1334 24 511 756 1228 781 12 
857 766 224 755 813 742 1351 775 610 
654 890 867 1744 1269 16 5 463 23 
330 607 702 920 499 1131 1567 998 1254 
1128 352 77 594 462 1512 727 677 667 
682 229 206 78 1460 346 563 1277 280 
845 526 840 1395 1300 300 355 886 170 
763 1106 193 1168 370 678 1238 309 587 
792 1428 305 498 375 734 560 517 384 
127 297 719 189 362 1054 712 935 81 
432 1478 286 934 171 956 975 730 527 
473 128 320 377 564 1426 984 1778 88 
380 1197 1080 1149 1297 673 155 1613 1073 
313 1516 341 295 919 101 1294 1439 1576 
182 586 847 745 1066 954 265 716 239 
1523 1018 1090 167 971 535 1024 387 915 
214 657 949 827 303 988 419 32 588 
394 836 165 592 244 298 331 1086 572 
1193 70 1490 436 287 519 868 334 691 
1237 301 36 1020 746 273 631 640 191 
260 721 996 64 326 541 216 1150 180 
974 1085 98 579 671 80 79 225 283 
646 130 955 186 709 910 356 1040 576 
3 266 337 480 626 448 765 238 368 
1321 1271 159 944 524 75 1583 50 1124 
522 103 361 347 316 197 656 849 573 
51 2 288 104 21 1016 1097 212 412 
923 891 1022 600 688 1343 1072 736 1220 
146 388 660 472 93 771 357 1346 439 
925 715 556 91 839 425 880 926 1745 
62 1442 258 1004 603 521 76 160 290 
121 152 1248 1246 791 957 683 793 618 
332 628 28 406 569 386 599 35 272 
277 251 725 177 1103 478 748 929 235 
1611 312 1227 1670 738 976 820 638 428 
226 116 1368 227 799 329 95 1205 850 
571 991 928 1655 1899 705 220 1084 582 
1053 1136 306 61 383 255 96 851 304 
513 1725 339 275 798 89 14 1298 1134 
118 1703 409 629 133 204 1571 2007 1641 
1484 181 259 642 299 264 973 649 166 
1068 811 591 529 140 1117 15 6 636 
45 438 321 324 30 666 1504 829 289 
173 213 769 916 507 433 195 143 415 
59 157 327 786 129 475 1025 1173 999 
234 141 899 497 207 132 904 1290 552 
729 510 111 701 395 530 422 451 1209 
621 542 217 268 1489 343 446 474 532 
780 162 909 1790 735 2690 866 40 1461 
328 882 2618 1 913 602 1245 3284 2196 
885 1323 67 995 1765 178 26 1386 601 
2289 1638 1259 1119 1350 531 864 2254 1213 
1433 1278 1270 390 1098 254 282 1477 997 
1392 969 797 1194 2073 1957 1564 1869 699 
2195 1164 1828 1995 1620 647 1861 795 566 
1326 2364 1079 2621 2464 1856 1547 2275 2245 
1603 2987 1650 452 1289 1834 65 1589 1299 
1846 1774 1602 1882 1705 219 1649 2527 2157 
2612 2121 892 233 1446 1232 772 665 2165 
1690 883 1999 1498 1878 1718 2031 1175 457 
1488 1420 2003 1067 1632 907 696 707 1580 
1471 852 1677 1688 1411 1614 1533 2472 1284 
1608 1434 147 449 1850 1543 1421 1251 1169 
1365 1258 1519 1981 3008 2377 2075 340 1485 
1756 2295 1678 750 1188 1013 323 889 2027 
411 662 1341 1187 1186 2416 687 1952 2044 
1937 465 1162 488 183 198 548 1563 574 
1416 493 1017 279 2300 1275 1058 2143 1949 
1733 1771 2391 2646 1382 2314 1043 953 1448 
1639 2042 1836 1463 744 2067 1785 2781 2347 
1026 2145 1633 2185 3348 1470 1779 2869 2008 
1331 1242 1023 1605 1059 905 2292 1843 1734 
1768 1943 1538 2150 1437 1696 2427 2305 1253 
2291 2812 1619 1179 534 2285 1789 1855 1159 
1944 1283 2065 2092 1883 2191 1654 1908 970 
2470 2009 3082 2661 2532 1210 943 1697 1862 
1074 1609 2109 1274 938 1170 1550 1691 2345 
1483 1456 1919 1405 1686 2511 1953 2015 1406 
1330 1217 1191 1491 785 69 1468 2296 872 
1182 2161 1780 1659 540 2408 1699 1693 2562 
1989 689 617 643 652 471 800 1047 1652 
902 1962 1224 2053 1403 1954 37 2013 2173 
2329 2181 921 2328 1327 1178 1829 506 2776 
1093 2271 1064 1113 1389 578 1398 319 961 
1265 1592 2228 1680 1184 2004 2743 1968 1858 
1607 2667 2061 1065 2886 1683 963 977 1345 
2129 1561 1844 106 1354 1955 2066 2557 1848 
2430 2779 2226 2057 2142 2282 7 1672 9 
2047 832 1594 655 1749 2209 2113 1687 2304 
1562 2714 1794 1662 3173 2794 2399 1917 2151 
1647 986 179 1525 888 1201 1597 1555 1587 
2093 1595 1814 2728 807 1881 1408 1636 2190 
1988 1012 2128 1684 1644 1572 1240 1753 1076 
2490 1701 1061 211 1979 1203 1966 1070 939 
1671 1668 726 270 1377 1913 1960 1628 1852 
1413 1183 1272 2091 1763 2594 2549 2666 1824 
2050 2671 1383 240 987 1369 2312 1223 1199 
1256 611 1552 806 2277 1141 2301 2652 1087 
2317 2179 2440 1132 1319 834 518 1243 2278 
1767 1347 1811 1417 1308 1685 2426 1958 1642 
1219 1198 2709 2370 739 754 1276 252 805 
2565 1293 1863 1905 1324 1222 749 894 653 
2205 1397 1893 2366 1730 2665 1539 1118 1679 
898 222 1196 1329 25 1385 985 1860 1250 
1505 1215 1835 1759 1776 2774 2163 2141 2688 
1969 2773 613 767 881 941 1500 978 318 
2194 2014 1318 863 1268 2348 2548 1902 2796 
1793 2712 1310 1235 1429 1548 2307 1472 694 
1317 581 2299 1109 1127 1643 1315 1363 1396 
2006 1993 1736 1200 1295 376 1618 508 1622 
1099 1822 1081 1374 1536 661 1380 1513 1155 
2478 1507 2172 2577 1704 2392 575 1003 491 
1839 1091 1356 1263 2021 1479 1340 1588 2297 
1888 1216 1927 1454 2531 1637 2130 2326 1030 
1366 1964 1125 479 1529 483 2038 1809 1425 
1049 865 1634 1838 1206 2449 2607 1694 2215 
2603 1845 1181 1444 893 1630 1967 1279 812 
1492 1348 2159 2210 714 2240 1094 1447 2256 
1833 1920 2118 1060 1886 1982 1702 1493 1399 
2346 959 1925 1332 1921 1629 2395 753 1663 
1832 2086 1732 1660 1945 1041 1914 1517 1577 
1391 1935 1573 1137 536 172 1813 2466 1653 
1557 1948 1006 879 1624 1104 2451 2036 1616 
2290 1805 3499 1735 2043 873 1221 1038 1353 
835 1122 1719 1002 2200 2037 2052 860 2852 
1440 1769 982 110 1111 1225 983 1842 1357 
585 2453 2024 2537 2232 1502 2441 1885 1762 
1990 2068 1522 1928 794 1362 2362 1158 2001 
2139 1804 1435 1252 1496 2379 1992 2154 2258 
1998 1808 2762 871 2026 2079 1871 947 843 
2018 1907 237 351 743 1975 1615 1361 1821 
2425 2140 1600 2716 2546 945 1226 878 942 
1480 838 728 717 1720 1455 1260 1787 1342 
1541 2335 2589 2458 1599 2112 1292 2094 2830 
1320 1148 570 1305 381 606 1518 761 1895 
1750 1593 1578 1521 1466 2124 1432 2095 188 
565 431 1089 148 1707 555 1381 1046 814 
1129 770 1501 1304 1360 1648 1549 1515 2503 
1010 1487 1796 1831 1139 993 723 1445 253 
31 1063 1306 1031 2264 2074 2400 1244 1911 
2459 1933 2584 1738 503 1112 1977 1812 1291 
187 757 2072 1528 1761 1810 1450 1673 1301 
2269 1524 2651 2431 2445 1874 2462 922 2248 
632 232 2319 817 366 1370 2237 2176 1940 
1110 1052 2279 1078 2242 789 1312 1553 1499 
2260 1675 1352 1910 1007 2414 2839 1526 2529 
2701 3053 778 1344 1884 1255 1936 700 1826 
1870 1714 2034 2398 1556 1997 1419 672 2123 
2367 2386 2178 3047 2902 1430 1335 29 737 
1879 1972 459 733 1337 1462 1339 1574 2133 
2012 1218 2238 1740 2759 1465 2199 1153 676 
420 2114 453 911 2452 1154 1546 1721 1664 
82 1766 1747 2108 1898 2658 950 2287 2167 
1311 979 930 484 809 164 87 315 1402 
1535 822 568 553 1743 932 1302 1415 1970 
1241 1229 2324 2336 648 958 609 1976 1682 
940 1021 708 2115 2148 1469 549 1082 2156 
1190 1075 1880 2340 1069 554 561 405 150 
887 74 1236 358 1230 1115 810 2375 539 
1511 1559 1666 1457 2186 1527 2076 1400 1384 
481 1207 1056 1963 1441 1138 2020 1135 13 
1532 740 60 1566 620 1984 1029 1247 1379 
2152 1849 1827 2598 2212 1192 1234 1427 1459 
841 1604 1560 435 559 2010 2225 2446 2318 
2134 2750 2660 2223 1665 1656 1748 2622 2626 
2265 1449 1349 1617 1726 790 2406 1257 71 
1373 1048 1551 2119 2160 2837 2283 2259 3031 
1853 1939 2900 1394 1819 1001 1897 774 325 
1367 1102 2051 470 1971 2910 948 2155 2101 
2022 1801 1596 2502 2310 3045 1864 2397 1309 
1156 284 1540 681 644 1510 1625 1934 1669 
2039 1314 1841 2203 2583 634 3010 2559 2063 
1436 373 685 846 698 1859 416 2158 960 
2090 456 2272 1375 444 2040 1698 1712 1912 
2711 1473 1695 547 965 583 752 1582 192 
2035 1424 1467 1163 2219 1565 637 2410 1393 
2000 2054 1322 897 1601 85 34 1273 804 
1267 363 1423 1261 17 2198 972 1121 494 
460 2138 1757 1544 2188 2903 151 1959 2380 
1165 1296 1875 169 2460 1873 1764 1172 468 
1867 1388 1116 2629 2243 2032 2064 2956 1715 
1474 2394 262 1287 196 624 2055 2049 1534 
2764 308 1755 2030 1923 2023 1760 1932 1612 
2434 1788 2234 2236 1791 1160 1868 1475 1410 
1303 4 2127 1795 2284 2403 2211 597 2197 
2180 2099 2411 2575 1000 2146 486 184 1167 
538 1631 261 1514 1195 917 1401 2474 1758 
2813 1903 2992 1926 1034 490 1108 1651 645 
759 1542 1591 577 1724 651 1610 1627 1645 
176 1453 1050 823 2497 1891 1313 2302 1770 
1249 801 466 1336 1713 359 1579 989 2110 
1708 1422 1282 825 2147 2235 2523 2412 2778 
1752 1307 1554 593 1147 1495 1266 908 1530 
2372 2126 56 269 762 156 670 1364 1239 
1062 2542 1951 1973 1823 1816 1390 1980 2081 
1922 2384 2327 1657 1211 2569 3162 1189 768 
1570 1143 2514 335 1717 2680 2122 2843 2554 
2775 2518 2866 2641 2046 2257 2100 3086 3465 
2999 2528 2911 2938 3002 2069 3106 2685 1598 
3160 2845 3808 3564 2713 3155 3025 3142 3955 
3289 2879 3713 3722 2633 2720 1906 2686 3060 
1996 3703 1777 2349 2508 2918 3331 782 2247 
2303 1581 2847 2102 2250 2977 2512 492 2341 
2588 3540 2801 3235 2623 3845 3639 3471 3013 
2421 1783 2417 1661 2208 2963 3098 3529 2862 
2851 2262 2096 3319 3677 3822 2783 2891 1590 
2106 1681 2084 2526 1626 2435 2098 2840 2968 
2433 3636 2958 3413 4100 3362 3707 2308 3844 
3334 3194 3723 2825 1146 2351 2383 1800 2959 
2833 2975 2761 2506 3033 3256 3099 2487 3315 
3682 4002 3361 3472 2455 2187 2624 2684 2418 
2378 2448 3174 3271 3095 3207 3378 2930 3761 
3152 3165 4248 2355 2932 2517 2606 3464 2545 
3215 2332 3734 2871 3187 3650 2855 4051 2499 
2747 2467 2616 3768 2735 2809 2560 2611 2689 
2538 1802 2675 1865 2806 2443 2568 2669 2877 
2339 2533 1950 2596 3537 2493 1991 2601 2041 
2135 1458 3193 2645 2483 2556 2330 3469 2239 
3125 2597 3313 3847 2740 3067 2189 2613 3094 
1746 2746 3425 3411 3391 3851 3111 3037 2929 
4647 4255 2834 2767 2396 3027 3297 2944 3303 
2516 3122 2795 3492 3221 3920 2966 2904 3325 
3449 2510 1983 1376 1414 1727 2276 2183 2368 
2120 2486 2498 2673 3539 2505 3360 3346 2821 
2628 2438 3186 1978 2468 2765 2111 2522 2953 
3079 2048 1866 2402 3249 2824 3553 2739 2808 
3078 2088 3041 3522 3599 2842 1716 2964 3175 
2515 2423 2338 2280 2415 3015 3699 2848 3028 
2659 3721 2365 3769 3572 3751 2298 2943 3024 
3124 1737 2105 2025 2450 1711 1817 2216 3828 
3199 2896 3365 2656 1378 2859 2429 2639 2610 
3451 3238 3789 2867 1887 1773 2491 2385 2359 
1700 3252 2576 2389 2787 2829 2805 2268 3799 
4089 3743 3477 2816 722 2177 3156 2708 2363 
3375 2668 2387 3247 2858 2880 3614 2983 2231 
3345 3309 3000 3169 3260 2103 2674 2457 3072 
1781 3338 2581 3005 2477 2168 2696 3388 2354 
3651 2916 2182 2870 3040 1942 3180 2694 2693 
2838 2788 2984 2857 2927 3020 2600 1264 2804 
2333 1889 3286 2736 2540 3772 3679 3143 3418 
3183 2409 1840 3306 3158 2846 2687 2520 2432 
3211 3690 2519 3208 2534 2461 3090 3616 3979 
2895 3695 2071 2745 2420 1965 2005 1987 2717 
3924 2732 3542 3508 2241 1741 2954 3590 3825 
2322 2361 1531 3167 2757 3181 1658 2116 2083 
2579 3063 2202 3185 2286 1924 2935 2939 3339 
1896 1667 3368 3445 3881 2544 4075 2206 3258 
2082 2373 3029 2482 1890 3250 3620 1916 2883 
3548 3001 2995 3100 3692 3427 1723 1431 2861 
1807 1938 2875 3455 2772 2251 3039 2444 3892 
1806 3150 3140 3466 3746 4154 3157 1452 1815 
1994 1877 2207 2989 2678 2407 2922 2897 3890 
2915 3767 2894 3563 2993 1568 1558 2786 2521 
1051 2950 3453 2263 2704 2741 2484 2683 2819 
3927 2595 2737 2820 3012 2863 3214 2323 2536 
2309 2481 3326 3327 2567 2541 3941 3545 2998 
2617 2357 1786 2978 1545 2676 3003 3189 2405 
2059 2125 1985 3129 2986 3066 3163 2293 2699 
2193 2192 2885 3569 3336 2614 3097 3075 2947 
1689 1941 1900 2220 2798 3257 1901 2749 2343 
2835 2539 3333 3498 4454 1803 2422 2770 2940 
2814 2881 3363 3316 3858 2780 3935 1946 3149 
3278 3506 3633 2951 3757 3981 3877 3568 4233 
4069 2488 3387 3694 3023 2473 2827 2677 3246 
2572 2899 3121 2169 2941 2344 2653 2912 3530 
3007 2077 2439 2424 2752 2070 2647 2504 2222 
2325 2306 2722 2356 1729 1909 1739 1585 2564 
1825 2849 2476 3574 2632 2828 3016 2733 3470 
3084 2358 2630 2132 2573 2657 2969 2217 2164 
2844 3112 3179 3071 2738 2393 2465 3308 2570 
2642 2552 2991 2971 3161 2599 2500 1851 1820 
2887 2404 1039 1930 2724 2865 2854 2204 3009 
2313 1857 2990 3351 2337 2320 3109 2997 1646 
2636 1798 1956 2442 2725 3196 2249 3485 2382 
2620 2524 2931 3948 3602 3668 3135 2817 2926 
2893 2638 1621 1915 2682 3251 2316 3054 2802 
3273 3439 2919 3486 2797 3164 2972 3305 4365 
3673 1797 2994 2253 3312 3666 2017 2985 2934 
2011 3505 2763 3429 3842 2615 3006 3390 3085 
2604 2374 2785 3014 3874 3552 2643 4081 1706 
2799 1409 2342 2587 3050 2789 2413 3700 2890 
2471 3489 3448 3480 3093 3300 4309 3702 3239 
2923 2352 2214 2274 1731 2436 1947 2480 2273 
3373 3337 2697 3087 3213 2803 3827 3945 4193 
3991 4077 3950 1892 1204 2543 4116 2447 3105 
1451 1799 2213 2201 2608 2016 2162 2961 2908 
2535 3403 4017 3123 3871 3835 3777 3419 2792 
2428 2702 2888 2029 2230 236 2649 2492 1894 
3398 3463 2137 1918 2753 2555 1854 2609 2723 
1974 2463 3295 3491 2924 2175 2456 2321 2751 
1872 2288 3277 2218 2625 3304 2045 2730 3756 
2233 3494 2925 3329 3314 3299 3262 2889 1709 
2281 2982 2654 2261 2655 2933 2153 1847 2679 
2437 1904 3741 3074 3760 3394 2768 2019 2700 
3432 2962 2227 2705 3151 3182 3068 1635 2898 
1742 2495 2744 3138 3070 2734 2605 2681 3178 
3785 3900 2853 3660 4058 2592 2174 2602 1818 
2331 3307 2376 2578 3980 2097 2315 3170 2715 
3546 2672 2731 3737 3318 2800 3732 2547 2810 
3232 3234 2691 3280 3712 2841 2525 2469 3733 
4228 3190 2635 3224 3803 3296 4108 3627 3968 
3930 3017 2729 2561 3287 3274 3225 2244 2184 
2496 2062 3893 3065 2952 3745 2619 3559 3793 
2917 3626 3036 3407 2089 2494 2727 2078 3153 
3301 2644 3219 3358 3330 3836 3369 3436 2551 
4041 3969 3354 2590 2580 2936 2822 2390 2087 
2882 3202 2703 2949 2311 2884 2650 3267 2874 
2485 3091 3929 2957 2784 2360 3371 2627 3270 
2748 3145 3116 3818 2591 3367 2475 3248 3736 
3269 3901 3240 3531 4107 2988 2401 1784 2080 
3292 2663 2831 3212 3397 2388 2892 3119 3704 
3352 3290 3787 2766 2876 3603 2913 2670 2948 
3372 2706 2170 2631 2171 2107 2945 3114 3747 
2582 3034 3507 3495 3154 3454 2033 2942 2513 
2872 3400 2270 2593 2563 3460 2294 3293 3081 
3939 3937 3357 3059 3562 2791 3069 3521 4505 
3321 2586 2350 3201 3171 3266 3073 3895 3263 
3565 4035 3517 4194 3342 3355 3004 2758 3442 
3752 3684 3646 3683 2489 4096 3049 3192 2229 
2369 2692 3561 3341 2255 3435 2793 2085 3444 
1520 2811 3823 3467 3843 3934 4087 4459 3080 
2909 2585 2144 3406 3401 2246 2058 3268 2637 
3115 2479 3396 3884 3026 2028 2381 2060 2662 
3386 2501 3172 3738 2266 3285 3912 2695 2002 
2856 1837 2937 3176 3120 4500 2530 2574 3591 
3783 3410 3320 3759 3606 2970 3487 3089 3538 
3525 3641 3573 3581 2056 2131 2868 3630 3046 
4455 3807 3255 3718 3580 3509 3657 3532 5136 
3493 2771 3288 2742 3282 2836 3804 4039 3118 
3335 3446 3279 2718 3792 4166 3834 4216 2507 
4464 3056 3958 4734 4267 3961 3902 5177 2864 
4060 4618 4497 2634 3972 3607 4124 3404 3862 
3758 4367 4168 4098 4709 5972 4129 3032 3790 
3077 4422 3440 3058 3654 3778 3276 4392 4358 
5006 6024 4636 5163 5520 4276 3405 3302 4149 
3148 3632 3523 3195 3985 3727 3547 3670 3977 
4257 4360 4894 3567 3933 3147 2371 3433 3831 
3913 3763 4139 4326 4388 2955 4310 3764 3349 
4475 4286 4398 4318 3766 3967 3379 3618 4066 
3735 4416 4642 4072 4270 4738 4390 4918 4818 
5772 4954 4285 5312 5159 3350 3623 4439 4211 
3894 3800 3675 2967 3711 3083 4375 4038 5535 
4640 4027 4609 4997 5137 3797 3311 2553 4415 
4661 4086 3048 3500 3437 3578 3708 3811 3868 
3883 3717 4456 4395 4451 4536 3919 5032 4424 
5056 4251 4771 4054 4200 4279 2973 3478 4170 
4188 4460 5621 4418 5523 4241 4580 4389 3833 
3662 3450 2946 4637 4813 4169 3715 4420 4371 
4463 4664 5082 4550 5157 3918 5409 2721 3052 
4000 3512 4480 3516 3993 4632 3264 4496 4284 
4567 4543 4520 4225 3947 3729 3906 4056 3676 
3983 2832 4521 4007 4946 4705 4775 4366 4361 
4136 4619 5340 4458 5360 4809 4563 4354 4537 
2907 3103 3188 3907 3527 3794 3253 2980 4093 
3771 4993 4797 4150 4648 4321 4838 4707 4449 
5734 3226 3898 3353 4317 3714 3806 3412 4198 
3990 5425 3347 4161 4202 4519 4290 4003 3853 
4539 4783 4453 4680 5116 3096 2648 4113 3370 
3534 4559 4068 2976 3298 3674 3995 2777 4012 
5126 5112 4696 3923 4410 3774 3556 4444 3528 
4240 3943 5228 4413 3615 3476 3826 3753 3482 
3409 3642 3754 4065 4891 4646 4001 4957 4071 
4409 3462 3813 3594 3415 3317 3518 3231 4403 
4130 4560 3126 3908 5739 5007 3166 3931 4504 
3101 3634 3468 3242 3459 3963 3956 4175 3328 
3809 4745 4191 4343 4259 3829 3624 4019 3773 
3681 3344 4700 3672 3376 3821 4205 4924 4117 
4523 3481 4980 3992 5154 4405 4064 3577 3848 
3457 3402 3974 4134 3987 3640 4742 3204 3323 
4466 4328 3944 4914 3294 4611 3423 4819 4572 
3244 3259 3730 2698 4525 3897 4291 4387 3951 
3988 4127 4440 3281 3817 4110 4376 3998 5296 
5284 4232 3504 2726 4253 4120 3849 3705 3011 
3861 4374 4600 4870 4729 4876 3434 5367 3742 
4517 3971 4432 5759 5181 3557 2769 2860 3706 
3392 3092 4545 4359 3377 3474 4242 3526 4793 
3814 3784 5038 4171 4324 4915 3227 2558 4281 
3655 3788 4575 4490 5039 4816 4268 3611 3921 
4699 3571 4590 2664 4833 4806 4448 3860 4485 
4635 4406 4583 4306 3649 4133 4597 4046 4754 
3886 4477 5026 4970 4971 5688 3882 5469 3222 
3422 3973 4103 3819 4084 3596 4979 3035 4340 
4263 4230 5458 3854 4605 3483 4864 3136 3237 
3236 4844 3399 3926 3191 3652 4099 4031 3856 
4184 3275 4189 4393 4025 5108 4650 4011 3959 
3748 3952 4125 2823 3108 4688 4872 5875 4557 
5363 2914 3229 2707 3638 3685 3644 4262 3139 
3598 3698 3055 4142 3576 3989 4518 3940 4966 
5404 3272 3428 3107 3030 3837 3424 3613 3127 
4506 4753 3586 4566 4483 4109 4061 3490 4629 
4383 5254 4840 4767 2571 3925 3810 4237 3550 
4295 4570 3484 3241 3104 4731 4937 3549 4289 
4839 4923 3393 3408 4112 3356 3622 3744 3786 
4105 3592 3473 4095 5827 3612 4681 5134 4315 
2850 3762 3431 4335 3588 3891 3200 3859 4245 
2419 3628 4585 3984 4308 3324 4394 4465 4207 
4617 5247 5179 4958 4443 5076 5170 5301 4553 
4016 3864 3936 3061 4402 4429 4349 3452 3888 
4778 5139 4462 5110 5801 2928 3230 3243 3558 
3283 3044 4434 4528 4554 4555 3496 4568 5510 
3456 4501 4841 3665 3855 4128 4156 3210 3970 
3414 4438 3458 3824 4484 3978 3873 5066 5208 
4608 2756 4217 3022 3663 2760 3946 4114 3332 
4246 3220 4261 4494 3910 5033 3113 4684 3796 
2807 3197 2965 3205 4024 3867 3609 3443 3502 
4386 3659 4008 3838 4010 4645 4435 5072 4070 
5094 2920 2815 3617 3501 4020 3619 3680 4468 