# vtk DataFile Version 4.2
Generated by LIGGGHTS
ASCII
DATASET POLYDATA
POINTS 6000 float
-0.0166411 -0.0170952 0.0101448 -0.0166162 -0.0171282 0.00804567 -0.0124388 -0.0203324 0.00680397 
-0.0152504 -0.0184232 0.00719728 -0.0111347 -0.0188472 0.00757922 -0.0133982 -0.0176295 0.00737739 
-0.0107679 -0.0213842 0.00712712 -0.00913933 -0.0189652 0.00731821 -0.00903573 -0.0208338 0.00810752 
-0.0138783 -0.0193962 0.00831904 -0.0108226 -0.0174676 0.00910316 -0.0101178 -0.0195011 0.00927606 
-0.00874916 -0.0178245 0.00901387 -0.0153792 -0.0183888 0.00925613 -0.0106345 -0.0214361 0.00924174 
-0.0121406 -0.0199696 0.00915726 -0.00833672 -0.0223554 0.00925172 -0.00949666 -0.0167845 0.00744808 
-0.0115075 -0.0168998 0.00726907 -0.0130689 -0.0177355 0.00950083 -0.013682 -0.0195446 0.0104099 
-0.0115321 -0.0186731 0.0105558 -0.00956826 -0.0184412 0.0109232 -0.0121735 -0.0205165 0.0113048 
-0.0102678 -0.0212369 0.0111998 -0.00837596 -0.0203353 0.0109628 -0.00839489 -0.022318 0.0112798 
-0.0155356 -0.0182869 0.0113745 -0.0136023 -0.0177497 0.0114363 -0.0108378 -0.0166933 0.0109821 
-0.00783237 -0.019599 0.00917258 -0.00771987 -0.0221932 0.00731106 -0.00760946 -0.0176634 0.0071369 
-0.00479167 -0.023372 0.0068873 -0.0073564 -0.0201777 0.00724173 -0.00263483 -0.0237218 0.00697664 
-0.00395308 -0.0190724 0.00713249 -0.00548646 -0.0215399 0.00733884 -0.00223435 -0.0202547 0.00687553 
-0.000981659 -0.0185785 0.0072244 -0.00593729 -0.0187626 0.00728552 -0.00352193 -0.021824 0.00681327 
5.54534e-05 -0.02095 0.00715509 -0.00265911 -0.0174693 0.00729629 -0.00466953 -0.0172092 0.00735381 
-1.18004e-05 -0.0238814 0.00759507 -0.00140171 -0.0223854 0.00782946 -9.26048e-06 -0.0167736 0.00726986 
-0.00248962 -0.0190452 0.00852125 -0.00617368 -0.0231556 0.00835076 -0.00120587 -0.0205796 0.00866973 
-0.00501203 -0.0198973 0.00866348 -0.00669861 -0.0212554 0.00890945 -0.00319503 -0.0209275 0.0085904 
-0.00132791 -0.0239515 0.00916662 -0.00415284 -0.018145 0.00918297 -0.00370147 -0.0232292 0.00873885 
-0.00617013 -0.018272 0.00925206 -0.00234943 -0.0172077 0.00929879 -0.00481554 -0.0217195 0.00947503 
-0.000846787 -0.0185586 0.00960246 -0.00216623 -0.0199087 0.0103063 -0.0011597 -0.0224182 0.0104896 
-0.000144639 -0.020616 0.0103653 -0.00753172 -0.0183879 0.0107465 -0.00665616 -0.0229274 0.0103132 
-0.0030655 -0.0217302 0.0104627 -0.00295376 -0.0181608 0.0109521 -0.00628796 -0.019999 0.0105236 
-0.00267518 -0.0237233 0.0106261 -0.00418954 -0.0200767 0.01048 -0.00499336 -0.0183255 0.0110243 
-0.00467297 -0.023404 0.0105489 -0.00113984 -0.0172494 0.0111553 -0.000351711 -0.0190378 0.0115921 
-0.00505537 -0.0216763 0.0115039 -0.0061192 -0.0167455 0.0105416 0.000360724 -0.0220147 0.00901685 
0.000515593 -0.0194567 0.00842823 0.00139551 -0.0224391 0.00724968 0.00372608 -0.0177805 0.00747604 
0.00296177 -0.0237281 0.00719149 0.00562917 -0.0171986 0.00725261 0.00748707 -0.0183142 0.00719505 
0.00194968 -0.0186586 0.00717727 0.00578388 -0.019426 0.00716159 0.00740547 -0.0206281 0.00720593 
0.00557389 -0.0214351 0.00739572 0.00495316 -0.0233434 0.00715018 0.00378841 -0.0197699 0.00721305 
0.00359679 -0.0218053 0.00737384 0.00711501 -0.0227658 0.00730397 0.00202853 -0.0205907 0.00770114 
0.00164287 -0.0237915 0.00876916 0.00119227 -0.0175723 0.00870279 0.00689779 -0.0172796 0.00881783 
0.00593189 -0.0231099 0.00893212 0.00512567 -0.0183357 0.00882525 0.00689432 -0.0192795 0.00884442 
0.00399982 -0.0236453 0.00891686 0.0027071 -0.0221257 0.00915435 0.00829354 -0.0224498 0.00894127 
0.00667115 -0.0212558 0.00906233 0.000336922 -0.0238665 0.0102864 0.00121052 -0.0186451 0.0103908 
0.00143652 -0.0222046 0.0107164 0.00374742 -0.0200172 0.00923618 0.00301739 -0.0181577 0.00939394 
0.00461769 -0.0217777 0.00965266 0.00173093 -0.0204578 0.00967888 0.00272441 -0.0237157 0.0104556 
0.00554321 -0.0201017 0.0102509 0.00795898 -0.0169937 0.0105083 0.00476652 -0.0234324 0.010783 
0.00448819 -0.018455 0.0107213 0.0065616 -0.0184199 0.0106248 0.00713703 -0.0227543 0.0105712 
0.00331002 -0.0215431 0.0111627 0.00285972 -0.0195624 0.011075 0.00750555 -0.0203089 0.0106178 
0.00566688 -0.0216724 0.0114854 0.00077178 -0.0166776 0.0109914 0.00850972 -0.020459 0.00887455 
0.0090798 -0.0221674 0.00689669 0.00928254 -0.0194015 0.007336 0.00926821 -0.0173993 0.00724962 
0.0154634 -0.0183452 0.00730297 0.0113302 -0.0190468 0.00728824 0.010659 -0.0209548 0.0071804 
0.0112102 -0.0168423 0.00719327 0.0137896 -0.019611 0.00764422 0.0130206 -0.0177844 0.00736304 
0.0121747 -0.0205334 0.00844099 0.010116 -0.021635 0.009084 0.0144098 -0.0169435 0.00861845 
0.0148494 -0.0188126 0.00918726 0.0104381 -0.0196584 0.00900952 0.0120498 -0.0184782 0.00917474 
0.0163658 -0.0174167 0.00888019 0.00865428 -0.0187962 0.00999283 0.0090457 -0.0221934 0.010796 
0.0102034 -0.0177009 0.00934489 0.00949688 -0.0202691 0.0111286 0.00987939 -0.0174865 0.0114035 
0.0133219 -0.019928 0.00997521 0.011504 -0.0208864 0.0103144 0.0135521 -0.0177688 0.0102973 
0.0116353 -0.016945 0.010523 0.0110608 -0.0190245 0.0109109 0.0158025 -0.0179721 0.0107584 
0.0143531 -0.01915 0.0116062 -0.0198266 -0.012357 0.00686363 -0.0177279 -0.0159425 0.00685372 
-0.0191047 -0.0102242 0.00670704 -0.0191968 -0.0142575 0.00676619 -0.0178225 -0.0125354 0.00703569 
-0.0217471 -0.0100866 0.00727728 -0.0168138 -0.0142492 0.00740455 -0.0167331 -0.0104389 0.00755909 
-0.0204722 -0.00846563 0.00777631 -0.0188329 -0.0113513 0.00839802 -0.0182599 -0.00938006 0.00834836 
-0.0184911 -0.0151579 0.0085281 -0.0208691 -0.0115725 0.00839105 -0.0196526 -0.0135317 0.00876757 
-0.0220549 -0.00924531 0.00907682 -0.0168146 -0.012142 0.00877871 -0.0200856 -0.00986662 0.0091862 
-0.0170513 -0.0140297 0.00939675 -0.0170419 -0.0103498 0.00969364 -0.0204035 -0.0123294 0.0102212 
-0.0184004 -0.0124764 0.0100471 -0.018067 -0.0155979 0.0104659 -0.0214376 -0.010639 0.0105508 
-0.0188355 -0.0105438 0.0106038 -0.0222791 -0.0087646 0.0110636 -0.0194485 -0.0139216 0.0111473 
-0.0187527 -0.00854827 0.0103571 -0.0202036 -0.00937653 0.0114979 -0.0174611 -0.0136377 0.0113785 
-0.0172773 -0.00937256 0.0114674 -0.0169078 -0.0115686 0.0112732 -0.0150428 -0.0164503 0.00690492 
-0.015648 -0.0125343 0.00701762 -0.0127229 -0.01095 0.00740359 -0.0107912 -0.0114641 0.00726962 
-0.010465 -0.0150275 0.00732978 -0.0116491 -0.0132607 0.00749702 -0.0137387 -0.00922869 0.00732734 
-0.0116046 -0.0092807 0.00737338 -0.00936493 -0.0133049 0.0069828 -0.0148165 -0.0144855 0.00724083 
-0.0135994 -0.0127525 0.00725723 -0.00962742 -0.00973916 0.00737976 -0.0155542 -0.00844063 0.00699736 
-0.0127635 -0.0149359 0.00704568 -0.0147341 -0.0109002 0.00779439 -0.0136899 -0.0158494 0.00859556 
-0.0118523 -0.010294 0.00910578 -0.0117105 -0.0155886 0.00882604 -0.00934568 -0.0119688 0.00856502 
-0.0156656 -0.0154688 0.00881955 -0.0155576 -0.00936113 0.00878917 -0.0102675 -0.0139545 0.0090728 
-0.0132094 -0.0117697 0.009163 -0.0148262 -0.0132016 0.00878179 -0.0125553 -0.013834 0.00928343 
-0.00904697 -0.0155343 0.00896677 -0.0112582 -0.0122179 0.00917007 -0.0107075 -0.00864047 0.00907763 
-0.0137861 -0.00984723 0.00958251 -0.00999493 -0.0105988 0.00987572 -0.0146866 -0.0166641 0.0101411 
-0.0151065 -0.0114352 0.00972372 -0.0122749 -0.00915313 0.0106955 -0.0142399 -0.014688 0.0101532 
-0.011295 -0.0147314 0.0106337 -0.00927995 -0.0124697 0.0105006 -0.00856354 -0.0165586 0.0106472 
-0.0161138 -0.0151515 0.0107719 -0.0156125 -0.0131464 0.0106611 -0.0154028 -0.00999728 0.0111645 
-0.0129131 -0.0110307 0.0110234 -0.0135522 -0.0129167 0.0107755 -0.0112236 -0.012713 0.0111211 
-0.00922058 -0.0145133 0.0107034 -0.0128532 -0.0159936 0.0108129 -0.0103201 -0.00898584 0.0110813 
-0.00882179 -0.00853156 0.00975969 -0.00829776 -0.0136075 0.00903288 -0.0082224 -0.0150715 0.00712419 
-0.00826559 -0.0101926 0.00877823 -0.00814435 -0.0113466 0.00708276 -0.00442245 -0.015185 0.00721848 
-0.00610419 -0.0114899 0.00728611 -0.00731685 -0.0131924 0.00691965 -0.00170981 -0.0123312 0.00708084 
-0.00700644 -0.009676 0.00725123 -0.0041915 -0.0108814 0.00725124 -0.00280655 -0.0139963 0.00727752 
-0.00168377 -0.0156524 0.00710725 -0.00510674 -0.00908894 0.00703851 -0.00631661 -0.0159529 0.00709263 
-0.00509093 -0.0132244 0.00744994 -0.00066168 -0.0105617 0.00699152 -8.93004e-05 -0.0144167 0.00698307 
-0.00250138 -0.00962767 0.00705725 -0.00337719 -0.0123767 0.00832312 -0.00723067 -0.0165231 0.00877946 
-0.00644343 -0.0143759 0.008416 -0.00306033 -0.0154159 0.00874127 -0.00405744 -0.00950534 0.00869903 
-0.00197366 -0.0109438 0.00851465 -0.000619429 -0.00948081 0.00867717 -0.0059506 -0.0101356 0.00891967 
-0.00094844 -0.0147425 0.00876232 -0.00524271 -0.0160392 0.00887206 -0.000656315 -0.0127631 0.00892765 
-0.00521776 -0.0119943 0.00904683 -0.00457746 -0.0141712 0.00913541 -0.00721564 -0.0118908 0.0089557 
-0.000440115 -0.0165793 0.00937199 -0.00247435 -0.0136827 0.00955389 -0.00365122 -0.0109634 0.0101161 
-0.00236777 -0.00943728 0.00977403 -0.00718 -0.00972527 0.0104461 -0.00183733 -0.0118405 0.0102982 
-0.00731789 -0.0149772 0.0101297 -0.00630294 -0.0131991 0.0102254 -0.00185549 -0.0155574 0.0103478 
-0.000146809 -0.0107873 0.010116 -0.00392073 -0.0165016 0.0103232 -0.00473714 -0.00910302 0.0106089 
-0.00561038 -0.0109362 0.0107216 -0.00437316 -0.0128548 0.0106439 -0.000383892 -0.0142338 0.0106483 
-0.00750123 -0.0116559 0.0109284 -0.00354198 -0.0146449 0.010967 -0.00551973 -0.0148753 0.0111823 
-0.00772254 -0.013539 0.0116007 -0.00192357 -0.010282 0.0115492 -0.00201106 -0.0134265 0.0115049 
-0.0012972 -0.00842626 0.0111272 0.00419464 -0.0165595 0.00899008 0.000303046 -0.0123842 0.00719737 
0.00220053 -0.0164933 0.00724673 0.00736362 -0.0161906 0.00713452 0.00410088 -0.0154927 0.00729048 
0.0056453 -0.014123 0.00707047 0.00192797 -0.0145197 0.00703906 0.00515939 -0.0121791 0.00717781 
0.00483727 -0.0101986 0.00729211 0.000891981 -0.00933589 0.00728398 0.00705375 -0.00977073 0.00707371 
0.00709646 -0.0127231 0.00706659 0.00370057 -0.0135438 0.00708086 0.00228237 -0.0121653 0.00739348 
[...]
POINT_DATA 6000
FIELD FieldData 7
id 1 6000 int
735 40 1574 1212 569 588 1130 941 260 
197 231 1426 210 1006 990 1747 1576 1154 
1278 271 378 1652 225 1075 69 1021 2396 
1329 682 563 94 1169 1714 727 1106 1048 
508 874 534 441 562 708 224 1017 632 
1265 204 1053 285 817 393 468 888 1167 
618 1141 1047 1703 353 84 407 2160 1155 
100 1224 309 1797 1246 320 104 368 999 
1260 572 1174 1314 72 391 2497 837 195 
561 179 631 1300 108 556 944 49 186 
587 1455 896 630 1095 234 789 889 412 
14 547 68 1416 803 1180 1685 1789 1473 
83 1704 2040 477 1504 217 785 957 367 
981 790 624 349 64 719 1655 1737 533 
1540 192 222 1242 297 986 37 608 717 
305 591 714 216 443 73 287 1176 289 
17 687 1543 525 428 1188 1555 628 595 
908 1226 1662 1585 493 1034 909 1400 1963 
723 629 1753 1593 232 599 1310 1235 1343 
603 2341 1750 1940 1814 1093 1138 87 1425 
1037 617 701 1793 793 1089 344 539 650 
501 549 1203 816 552 565 372 840 1890 
1405 685 380 1463 814 1334 1084 1673 429 
901 704 1609 778 992 494 868 871 750 
775 2010 1611 1371 769 1820 1527 1288 1280 
1274 1362 32 418 598 142 176 102 383 
456 151 741 1317 404 1132 12 301 961 
131 455 663 259 318 764 713 223 829 
850 522 1004 570 347 498 237 275 846 
781 738 545 683 1233 244 242 1452 2097 
1060 1120 465 983 160 949 155 873 1575 
510 449 947 1275 158 67 1464 1081 712 
980 584 946 500 772 1429 700 1070 1360 
1395 497 639 56 558 1549 904 724 550 
61 373 207 777 1064 366 81 879 1158 
2 1309 248 1739 1087 1517 1266 885 1110 
1045 1012 352 664 394 48 1202 300 117 
115 581 419 227 1367 13 239 219 129 
867 1658 989 2113 3170 1092 298 230 123 
256 279 2093 620 26 360 1978 2293 2960 
797 1255 199 2793 794 99 483 1439 1428 
1698 348 1228 1716 1054 1603 1139 1937 172 
1096 1100 1723 1904 1363 1827 955 605 578 
371 273 1098 833 1380 1136 876 1007 1052 
1038 1313 326 2013 331 1390 1908 2141 3168 
1553 878 1023 2606 1772 1936 2424 1569 5931 
4536 1640 1651 1247 2011 1307 4470 4497 2931 
647 1921 454 8 20 1107 5020 3853 894 
5334 4880 5773 5508 161 1860 514 1435 818 
1492 3295 541 2147 4358 2470 122 5293 4443 
3117 4388 1422 1370 2674 5824 2658 191 1615 
832 15 189 154 716 21 426 143 4001 
810 1986 2215 954 693 2169 2061 1535 1586 
616 1502 1443 333 511 1495 4426 431 1447 
1127 2194 872 392 1028 141 614 3152 1388 
1588 688 1069 695 295 2171 1809 162 627 
4073 395 322 795 1434 139 4222 537 479 
399 551 825 611 1031 451 258 1001 1349 
1040 529 1332 385 866 499 540 211 615 
97 469 521 265 673 1356 678 166 526 
1671 973 721 119 808 1299 834 690 457 
150 819 515 220 1151 7 763 1108 175 
1399 410 335 931 1770 1024 312 2500 173 
543 607 532 1518 988 658 762 692 646 
805 362 132 1219 1205 1718 359 351 345 
495 274 253 753 447 315 856 4 357 
638 774 959 564 1441 205 92 238 34 
725 59 101 1118 461 613 634 860 341 
863 1186 676 1506 823 770 411 958 153 
1074 2045 1938 323 1105 95 171 1104 30 
88 1764 934 1458 731 604 919 594 415 
1980 174 1103 636 571 396 1207 728 1285 
433 478 245 1039 897 1584 3188 998 1248 
935 177 491 1925 1537 855 1377 281 113 
327 473 42 1539 1654 390 452 1501 1368 
512 699 215 921 1220 691 45 1197 1063 
707 2669 1868 2852 1460 784 590 530 1131 
105 765 188 423 3250 966 474 208 2142 
2105 711 623 1886 1645 71 268 1950 1968 
3121 1725 812 953 1696 671 593 767 1240 
120 486 434 1263 1374 675 546 445 1046 
1406 307 80 3538 3467 4671 5556 5740 3248 
5775 5977 3440 5708 4137 6070 2595 5774 5119 
6014 3090 5287 5068 6002 6001 4473 3837 5486 
5281 5850 3083 5623 4036 5833 5155 4056 3422 
5891 5904 2549 5793 5567 4887 5966 5568 5571 
5324 4191 5052 5957 5353 3713 1715 4697 3349 
1530 5766 3131 2720 2923 5171 1072 124 5610 
3524 4248 308 5011 2417 4639 542 1561 144 
4303 4539 2608 749 2802 4819 4748 4628 4430 
3259 5910 3191 5938 5701 4019 1352 2154 2481 
2799 196 3546 737 1126 504 669 651 1468 
47 1117 2358 1945 1392 652 1689 3027 799 
65 340 1217 845 3652 134 743 1647 1594 
751 3108 1099 2504 2532 849 200 1290 2098 
813 1989 853 1347 58 520 1149 1123 482 
386 696 968 912 752 1477 127 622 264 
140 635 869 1116 754 681 346 1058 135 
1330 580 733 381 1250 1066 159 1214 1796 
807 1427 626 164 821 306 1269 583 2107 
38 880 1635 311 674 1481 226 1822 773 
321 582 450 1146 1286 1442 448 187 783 
841 439 270 1225 202 111 942 513 1801 
1784 597 1386 1056 389 25 943 1019 1720 
82 1211 1192 1582 96 1872 1162 660 1614 
1496 798 1528 1408 1050 178 1668 1847 1573 
686 918 266 1365 566 1125 269 516 938 
1159 826 181 440 167 446 3 1301 325 
1005 267 2131 51 379 914 996 1272 490 
1580 1445 802 847 1926 1191 414 987 1752 
1101 1846 835 246 29 506 1483 2165 361 
1216 236 747 600 3234 1340 1033 5980 3345 
951 5616 5599 4484 4356 5825 5928 5411 5139 
3492 2708 1879 3517 5498 5714 4659 5951 4969 
4461 5143 4277 3478 6048 6008 5359 6003 4446 
5246 4332 2618 5757 168 2920 3762 5360 3996 
5704 5261 4198 1249 3594 5492 4101 4107 3494 
5118 3962 4368 5400 4735 2941 4860 6050 2430 
5719 3591 5816 5223 5236 4950 4616 4907 5619 
5414 6 1350 5185 4787 4903 1333 2642 544 
3382 3080 1076 278 1630 1234 4545 3402 254 
4422 313 2583 3606 4014 4063 2313 1381 2391 
2308 5703 107 3064 2335 2735 2912 2351 2867 
5394 3836 1600 4118 979 52 1848 3918 666 
1617 1867 1027 517 2268 1670 2245 1424 865 
397 960 2041 303 1378 1927 1785 76 786 
684 19 485 702 2291 3225 2684 2486 1453 
621 1883 575 1728 2099 1068 3862 110 1009 
263 2536 824 1008 1931 233 1478 221 939 
427 492 198 1500 343 376 1322 1656 35 
363 317 804 277 1836 424 2478 1524 612 
2851 2865 2433 839 2831 890 2074 971 282 
5 1318 1179 1181 421 505 228 642 464 
487 907 2080 809 1834 670 2375 2112 1403 
24 109 480 1014 2915 2071 1467 2306 1981 
1446 1771 2499 875 5684 5861 5650 4974 5600 
5066 2432 5248 5692 5392 4117 4213 5760 4541 
5808 4246 5721 4166 5491 5767 5713 4214 5630 
5886 4895 2570 4723 5869 5351 5699 5460 6018 
5818 4176 3742 4519 98 5280 5786 5959 5348 
5344 5557 995 3924 4032 5195 3377 5204 2829 
5844 5381 5800 6020 5998 5764 243 3101 5006 
4070 3861 3447 689 3410 3463 2458 336 3632 
57 3254 1965 4561 3949 1133 1579 2682 3873 
2297 1258 2290 2633 255 5037 1011 3395 3611 
1156 2296 169 3022 4323 2288 91 41 4147 
3043 2524 2993 2436 3672 4463 2018 328 184 
776 304 1032 1043 398 425 74 2643 240 
2596 2164 679 79 830 112 2640 291 2379 
1185 2354 780 1182 2004 2729 2381 3134 1806 
1984 3106 3051 3434 5778 1222 2129 857 1336 
337 2007 1057 1026 1679 453 2457 2185 2345 
384 3785 2203 2028 2721 3638 1482 3091 5443 
1863 2644 2622 2491 2464 5555 1954 2951 2988 
3794 3482 3550 2946 4597 2971 3336 4185 2801 
4745 4296 2958 4238 1992 1128 854 1143 1253 
1091 1421 1457 466 1498 2204 519 1592 1414 
913 800 1844 905 1829 1078 884 284 1513 
2022 2411 370 1295 1523 5232 2680 923 2250 
694 662 1953 1316 1865 2023 3016 2389 1905 
2940 283 2987 3944 1805 2189 3129 2906 3596 
1462 3931 3930 4533 3548 2614 4066 2425 3988 
5841 5662 5689 4457 3123 1570 3835 3005 1951 
1015 1733 1643 364 1273 656 1674 1766 1690 
1243 2081 1988 1119 296 458 148 2136 1633 
2163 10 2423 1025 976 1572 152 417 11 
828 1013 1145 2220 1018 55 1859 2148 1261 
2328 1382 1152 553 1552 1355 1022 619 965 
1514 2091 1597 2431 1215 1312 1628 2542 1701 
1536 128 3017 5350 2697 3693 2144 60 2059 
1997 4412 5559 2332 3735 4647 2663 1493 4236 
2725 962 4840 1147 214 1153 1914 1605 206 
722 2078 1231 2123 33 1201 585 1319 1680 
2261 2076 2184 1486 1840 1357 1554 314 2233 
193 332 3774 2072 2046 2447 3322 2264 293 
1808 2653 1729 2617 2519 1854 2612 5194 637 
4712 114 1751 1449 1339 2243 640 1251 2188 
330 1480 1030 1229 1173 2455 2742 2009 822 
4896 4169 1619 2656 5384 5544 2731 3010 2554 
2067 2515 4601 5843 5790 2077 3340 509 782 
606 460 1707 1994 706 2092 250 1184 2159 
576 416 1254 1175 2224 1982 2376 43 2111 
2274 463 1612 1194 1484 760 89 1525 1620 
146 1991 1041 2075 2175 2309 858 2850 1738 
1930 2366 848 1239 2605 3224 5373 1744 2765 
183 1779 4429 2380 820 2269 2814 3800 1577 
50 2734 2744 3474 3328 3133 2051 1124 4955 
4841 930 1122 2212 3677 2386 993 1767 2337 
739 2217 2730 2085 2581 557 1682 1323 792 
1508 86 523 369 241 1884 302 235 655 
276 462 1077 925 1083 18 718 406 892 
39 1932 1193 2384 1995 1531 970 1571 133 
63 1515 36 1917 1529 1000 1664 927 2118 
218 1413 408 579 261 1732 1035 294 507 
2260 1113 586 1837 1232 2452 928 1303 755 
2201 2315 1321 247 2057 329 740 2017 203 
1198 1802 249 1568 1754 1510 710 375 156 
1799 891 974 1869 975 1369 680 703 437 
1638 1223 559 435 1538 422 1291 1964 1164 
2006 190 1144 2157 779 502 1999 2280 66 
734 1548 1843 1892 201 1016 2418 1042 653 
1684 358 1901 488 2234 815 1759 1841 1719 
2609 589 2350 2237 1134 842 1900 1681 1020 
1398 1237 1327 432 1775 1852 1590 661 1227 
1256 2406 1488 1471 697 2616 715 5048 2238 
1562 1906 1221 2192 4351 1692 1475 3073 1407 
1813 758 4281 2443 1121 4792 3346 2413 4375 
1065 1241 2329 4121 864 2620 3706 1942 3262 
1792 3370 2456 654 1389 1800 2252 3187 2393 
2882 2540 1866 2119 3592 2416 2710 2978 3535 
1683 3126 2773 2270 2722 3857 3331 46 438 
3104 1810 3275 2673 596 2166 2399 1928 1621 
2997 3911 2115 1705 1947 3149 334 4103 4502 
2402 1102 2339 3765 4285 2533 2886 3359 130 
3332 4271 2935 4861 4808 2747 2977 3303 4390 
3118 3532 3788 3223 1199 1342 3526 1564 3062 
4160 4843 5930 5464 137 5882 978 1877 1804 
4055 1491 3607 2082 5581 2834 5926 5131 5231 
2804 5946 1213 2969 2186 5539 4674 3324 2395 
5073 5012 2102 5214 3176 103 5056 3272 2462 
3763 5576 2705 3618 3071 2979 5815 5690 5734 
3146 4312 3455 5239 2272 1849 3620 4768 5846 
3938 2929 5220 757 1828 859 4207 2167 459 
574 402 2625 1283 182 2246 1142 2647 356 
2535 213 4408 811 1397 163 354 2514 1878 
382 1993 1411 3922 2240 1150 2209 1850 641 
3302 887 2482 126 1292 3171 3292 3892 1545 
3507 3014 3109 1642 2518 806 5163 3586 2956 
1387 756 1420 1331 1913 16 165 481 1059 
932 994 272 726 93 1293 1080 387 1337 
1311 1044 1385 1111 2177 118 1348 649 1466 
180 1438 2156 350 23 1166 1036 489 229 
1566 2703 1376 1731 518 895 1372 286 1665 
85 1437 339 2210 956 1384 1366 1567 1558 
1326 1472 1135 1344 1864 1929 1325 1856 677 
310 922 252 898 2248 319 1663 1599 1178 
1666 2768 2153 1114 1639 1244 1267 484 1163 
1765 2360 1972 1393 1755 1479 1085 1787 852 
771 524 1086 1189 90 138 906 1851 1051 
567 1557 1786 471 1889 720 496 788 791 
1519 1476 1695 527 698 355 1417 1565 1148 
1842 1354 27 916 1450 1881 1137 70 185 
1544 280 2429 1499 665 476 405 1379 1595 
1157 1623 964 766 1618 2145 836 194 1262 
950 1029 2088 1589 882 940 601 705 2052 
977 1700 1055 403 2298 843 1795 1200 2483 
1699 1456 933 2084 2567 2255 1294 1760 2083 
746 2020 1948 1 2601 1494 1713 1259 768 
844 54 2282 1520 342 1394 62 1308 560 
730 1624 1090 475 2711 787 1919 1287 1208 
257 1436 902 1601 1591 251 365 1512 1757 
1629 548 1996 1474 577 1790 610 3011 125 
2008 948 1894 2049 1049 2343 1002 1297 2108 
1803 862 1858 2582 2352 1826 3397 78 3536 
531 147 1172 1509 910 937 1979 77 870 
106 2751 1010 729 555 288 1451 633 554 
2588 1819 1756 985 2087 893 2400 984 759 
3150 1987 967 926 796 2520 1489 899 1721 
736 1190 1812 1284 1608 2253 3319 2545 1977 
1279 745 3070 648 1604 2785 2286 1277 1375 
1361 1835 2303 1298 2898 827 4949 2591 3997 
4335 4965 5018 5670 5805 5082 5709 5901 6064 
4367 5987 4720 6058 5779 6017 1823 5677 4421 
5722 3730 5472 5799 3792 5663 5141 4909 5266 
5554 4201 6031 5794 5292 5335 4679 5788 5356 
5199 4310 5229 5635 4728 4976 4459 4900 5538 
5105 4677 5208 4920 3258 4534 4807 5569 5900 
3648 5256 4343 4959 5737 4428 4651 5135 3696 
5804 5028 4834 4961 5744 5125 6028 2104 2179 
3838 5474 5047 2847 5563 5178 5660 5847 5430 
2405 1957 1454 5252 5741 3642 1187 3894 3078 
2249 5839 5994 5027 5432 4848 1923 5520 3193 
3822 3045 761 6038 5154 2569 3477 5196 5724 
3219 4319 5150 2551 3623 4757 5029 5728 3462 
3578 4028 5420 5342 3160 6006 3348 4522 4203 
5877 4105 5565 4278 4758 4365 5494 5592 5470 
5310 5669 3926 4595 3335 1613 1717 3401 1871 
2307 116 2954 2772 668 929 2152 2262 1627 
2117 877 2492 400 377 1773 1281 3186 2516 
2621 1761 2094 2828 2043 3736 2146 2761 3424 
1541 1678 2666 659 2879 2677 936 2463 2553 
3731 1650 3053 2604 1315 4178 1206 2128 4400 
2626 1830 4661 3021 3179 4696 1687 3970 2911 
3050 2191 2438 4197 3192 4872 2968 2257 2218 
4164 3975 2440 4592 2390 3300 2619 3628 409 
1097 838 1547 1412 1109 1706 915 1003 969 
145 2132 528 420 316 1876 2453 2202 861 
1409 1736 28 2127 1949 1983 1622 667 467 
917 2336 338 430 2116 3154 2183 2784 324 
1402 1335 2168 2353 1230 742 2818 2063 1831 
170 1079 2106 136 1505 2480 1616 1924 1702 
1722 2815 2408 2312 2976 2019 748 2587 2613 
2797 2140 3285 1952 149 1341 1959 945 1735 
1556 1710 1748 157 1094 31 1691 1897 2449 
645 963 1204 3369 2465 2055 2100 1653 1497 
1985 1818 2573 1423 2629 2137 1895 1419 2162 
503 1306 1160 592 1688 2398 2624 2172 900 
1974 4480 1257 3386 3353 3520 1712 2205 3088 
1969 3294 2782 1724 972 121 536 2239 3534 
4007 2953 2420 1861 2575 2311 2073 2571 2961 
2334 3089 2943 5060 2654 1644 1967 2324 2038 
2471 2219 22 2687 1503 2904 2197 2752 2120 
1533 3400 1693 2263 2138 1893 53 4453 1891 
1646 3114 2070 1433 1071 3943 2679 262 1296 
1708 2510 2893 4221 5743 2526 3046 2206 3041 
2672 2779 4372 1470 3342 3180 644 2634 5611 
2527 3190 3199 3629 3942 4225 2727 5238 2047 
4708 5104 5756 4113 4485 2901 2446 4676 1976 
3978 2934 5758 4209 5398 4912 5271 4571 5993 
5002 5976 5604 4417 5515 3388 6000 3881 5339 
5999 5100 6068 5213 4557 5466 4727 4769 5608 
4850 5806 5932 5419 5537 6040 4129 5975 4037 
5040 4894 4152 5638 5622 5685 5919 6026 5549 
4770 4229 5739 5461 4525 4157 4110 5828 5138 
5736 5967 5923 5235 3819 4675 4991 6065 5389 
5046 5424 4299 5984 5527 5836 5241 4851 5300 
4972 5521 4833 6007 5535 5405 4150 5435 6024 
5587 5813 5288 2064 4759 4617 5627 5523 5189 
5875 5308 5939 6022 4938 5177 5803 5870 4997 
5674 4719 5017 5898 5409 5590 5519 5153 4165 
5745 6037 5817 5845 4119 4952 5090 4977 6053 
5336 5366 6023 5404 4568 4827 4788 4387 5996 
3649 5311 5612 5301 4058 3863 3960 4610 2223 
3681 2995 4917 2281 4910 3279 4924 4514 4874 
3603 4167 3740 4100 4602 4172 5585 4413 5158 
4188 3047 4598 4726 4330 4383 3249 5449 4901 
5099 4546 2933 4261 4711 4656 5647 4939 3504 
5762 2724 4389 3865 3826 4599 4665 5550 3963 
4186 4049 3660 2603 5390 4668 4338 4986 4232 
5471 5933 4575 4017 4021 3409 4954 3457 4878 
3941 3954 3142 4925 5106 4946 5198 5349 5230 
4154 4403 2846 5570 4562 3453 75 2714 2789 
1782 1661 2103 3373 2501 2661 2880 470 1915 
2242 2947 1916 2866 3151 3084 2325 2373 3626 
4158 2632 2300 3572 3539 3127 3709 4531 1769 
4268 4486 3563 3430 4692 2899 2760 2374 2950 
3885 3141 2787 2812 3347 4127 3393 3898 2798 
5393 3392 4211 2231 4781 2476 2562 3242 3998 
3712 5298 3221 4317 2913 3601 3032 3499 4990 
881 2522 1383 2158 2029 2409 1734 2548 2109 
1875 3471 3431 2538 3354 3227 3771 2649 3725 
2421 1758 2056 2484 1780 3659 4006 2902 2925 
3905 3446 2265 1887 3220 3639 4424 3876 4906 
4130 1885 3858 1418 3355 3343 4334 3915 3100 
5516 2964 3921 5267 4293 4838 3243 4627 4260 
3231 2426 2848 3460 3132 4279 3406 2924 4609 
2871 2888 4569 5331 5574 2806 4809 4806 3184 
4074 2509 4804 3438 5408 1583 2347 2228 3003 
2718 2494 3019 3521 2746 1649 3380 3379 2652 
2126 3072 3720 4133 4112 1218 3496 3722 3893 
2615 5262 5103 1762 4320 3153 3237 3927 3795 
3907 2984 3764 4116 5253 1672 2800 3511 3350 
2788 4438 3879 3473 3038 5541 4971 3544 5792 
5731 5383 4852 5403 5707 5730 3778 5896 5522 
5206 5667 6051 5712 5075 5245 4346 6049 3981 
5624 5948 5888 4513 5469 5458 5015 5207 4585 
5410 4432 5468 4732 5961 4846 4650 5864 4439 
5425 5883 5643 4987 5485 3267 5907 5908 3266 
4756 5094 4493 4523 5222 4369 5514 4580 3845 
4494 4489 4937 4436 4407 5307 5110 3537 6045 
5166 5140 5013 5763 5142 4405 4701 5168 5852 
5355 5936 4698 5379 5879 4821 3936 4120 3542 
4812 5782 5322 6039 5927 3684 5785 5317 4837 
5345 5614 5941 5422 4683 5428 3247 4393 4521 
5686 5526 5917 5083 3895 4856 5096 4960 5340 
5871 4640 5397 4942 5694 5320 2966 5101 5899 
5072 5120 4690 5200 5747 5226 2050 4582 3812 
3635 4076 1073 3957 3655 3122 2284 2786 3566 
3766 2699 4145 3437 3604 2585 1115 4313 3945 
3361 4657 3576 6055 5925 4012 4016 4653 4318 
3811 5244 5369 5862 3449 5499 5165 5666 4632 
4378 4643 3479 5484 4605 2854 5552 4893 4947 
5478 3933 4875 4342 3843 4217 4699 4041 5209 
3859 2121 3469 3799 2657 1742 3274 3567 3549 
3716 3614 2110 4314 4048 3787 3937 4234 3791 
3543 4584 2821 3009 5067 3727 3587 3994 3814 
4067 5688 4752 3166 4162 3513 4026 4399 3741 
5062 3852 4487 3869 4057 5077 3775 5341 2737 
4233 3301 5074 4466 4873 4778 5108 4322 3251 
3459 4462 5664 4288 4064 5695 2370 4182 3528 
5182 4433 4790 3378 3615 3222 4215 5947 3721 
5097 4061 3039 3829 3699 2170 3172 5942 4294 
5399 3824 4517 5974 5962 4797 2211 3809 4760 
2973 2594 5378 4474 4174 2005 3165 3330 4554 
3948 5034 5668 4888 3092 5463 3374 3833 5367 
3211 3215 5991 2736 2650 3417 3206 5748 2021 
3977 4817 3880 3545 4479 2143 3339 4467 4765 
4941 4644 4240 5820 3363 2741 4927 3737 3877 
1778 4380 5016 3733 4648 2541 5375 1686 3486 
3020 5117 1888 4886 2683 2928 4361 2096 4958 
6063 5831 1660 3015 4983 2466 3338 1962 4989 
4394 2938 3694 2404 3111 2790 5061 3951 1485 
3588 4934 4025 2216 3376 2780 3439 4716 2781 
3979 3773 3584 3289 5954 2236 2713 4984 3558 
2690 5702 3061 3159 2918 1195 2407 5093 1745 
3784 1909 1636 2016 2962 3002 2919 2031 4420 
3281 4591 3290 2568 1432 4868 2803 4282 2732 
2475 3464 2999 1943 2872 5589 2839 4254 4784 
3671 4183 4020 2593 3155 4694 2556 2450 3714 
2759 4918 2445 3501 4882 3983 1448 4658 4963 
3753 2485 1874 5164 5881 5054 3839 3847 2707 
4035 1998 3287 5680 4532 5254 5014 3475 3174 
6012 3442 4376 3351 2014 1461 1898 4691 6056 
2686 299 5657 3986 2195 4283 2807 1631 4204 
4218 4475 3429 1933 3418 5749 2037 3210 3423 
5024 4002 1542 883 4543 2830 2235 3559 4588 
3283 3510 3569 2027 5673 2791 3208 4091 2641 
3754 5693 3309 2259 3436 4926 4498 2181 1960 
1899 538 2058 1268 991 3805 1648 3357 1345 
643 1990 2502 2733 5021 2176 1587 4219 2200 
2333 1774 1781 609 4930 2033 1912 2817 4491 
2635 1711 1807 4138 2114 5912 4948 2174 1551 
2539 3426 5897 2060 1196 4184 2314 4877 4717 
4608 2873 2101 1907 2338 3204 4842 5305 2881 
3412 3561 4392 4603 2493 5497 2042 2348 1526 
1210 2229 2155 1741 1922 2459 2321 2025 1082 
2610 1161 1430 3075 1238 886 1304 2419 2559 
1625 1289 2756 2738 2190 2862 2531 982 2222 
3177 3667 4050 1853 3465 1364 1676 3102 4224 
1444 1245 2226 2576 1677 3297 5315 5030 4504 
3902 2372 3932 1324 2599 2124 3470 3676 5958 
4353 2178 5210 4796 5190 5956 3738 5517 5407 
3724 2323 5971 4244 1602 374 1657 2909 3897 
4829 3198 2378 2651 2561 1918 2267 1487 2000 
1749 2488 2285 2678 4687 2628 4490 3472 2701 
3928 1270 2474 1939 2513 3291 3878 2139 1788 
4173 3381 442 3570 3801 3590 4520 3195 1560 
5302 4385 3025 3769 4673 2891 2998 3314 4857 
2963 1140 3358 3613 4815 5770 4964 4744 5640 
3658 3886 5682 2691 1522 3425 2715 5639 3396 
3315 3444 4730 3966 3529 4083 5001 3461 4655 
2970 3060 5385 3908 1346 1578 2890 2442 4287 
4090 5628 4135 3622 2564 3230 5533 4143 4134 
5636 2748 3087 2543 2645 3207 5091 3244 4914 
4764 2310 4700 2876 3883 3980 3196 5561 3416 
2135 5309 5675 3901 5004 5173 3950 4573 2981 
5442 3233 5711 3820 5323 3849 4247 4416 2805 
1970 4670 5438 3194 3055 2774 1975 4418 4339 
5524 4125 5509 5364 4818 4944 3059 3818 5876 
4015 5809 5279 5510 4363 3485 3665 3890 4978 
4566 5865 4199 5495 5257 1817 3031 1328 4425 
2754 5986 4003 1546 3362 2258 4156 4386 1791 
3074 1855 2193 4593 2277 1598 3099 2302 2840 
3553 3630 4111 4226 3004 5205 4267 2327 4344 
3326 2275 5129 4243 3940 2371 3476 5086 4782 
3169 2598 3278 6057 4053 2558 2403 3989 5423 
2695 3554 4300 1833 2151 1271 997 1783 2577 
1209 1862 1305 1743 1815 1282 1465 1659 1183 
2048 2401 2627 1171 1955 2001 1252 1061 1934 
2521 2283 2392 3205 2952 4613 3680 5186 3175 
3715 2895 3136 3143 2755 2066 4096 3310 3058 
2586 4044 4291 1667 1973 1088 1824 2254 1062 
1794 1845 2331 413 831 1359 1776 2024 1634 
2557 1129 1606 1415 1961 2377 1880 2365 1165 
2412 1353 2441 2547 1697 2032 2670 1516 2692 
1903 2086 2860 3269 1946 1559 2367 2359 2580 
1956 4327 2771 1236 2517 2095 2266 4824 5278 