# vtk DataFile Version 4.2
Generated by LIGGGHTS
ASCII
DATASET POLYDATA
POINTS 5999 float
-0.0177189 -0.0413152 0.00991929 -0.0139578 -0.0426912 0.00990985 -0.0158424 -0.0420533 0.0134203 
-0.0195535 -0.0405027 0.0135415 -0.00996634 -0.0429079 0.0101245 -0.00631907 -0.0445489 0.0100275 
-0.00235448 -0.0440258 0.0101438 -0.00671215 -0.0405616 0.0101936 -0.00291656 -0.0403127 0.0115472 
-0.0097621 -0.0402509 0.0134285 -0.00436183 -0.044776 0.0135372 -0.00837132 -0.0442152 0.0135619 
0.00902911 -0.0440729 0.00984643 0.00154342 -0.0449445 0.0101853 0.00513823 -0.0431777 0.010188 
0.00225179 -0.0403844 0.0102128 0.000303976 -0.0418263 0.0134054 0.00837842 -0.0408167 0.0133087 
0.00677643 -0.0444698 0.0136076 0.00439804 -0.0412514 0.0136262 0.0150342 -0.0414169 0.00997832 
0.0122244 -0.0432992 0.012132 0.0175337 -0.0414305 0.0131297 -0.0305919 -0.0329781 0.0103049 
-0.0247853 -0.0375188 0.0101855 -0.0212677 -0.0394697 0.0100514 -0.0214251 -0.0353425 0.0100187 
-0.0248911 -0.0332916 0.00998927 -0.0214281 -0.0312116 0.0103165 -0.0277761 -0.0353956 0.011799 
-0.0271537 -0.0315766 0.0128132 -0.0232652 -0.0343885 0.0136695 -0.0234039 -0.0303507 0.0137023 
-0.0179103 -0.0372913 0.0100196 -0.0100864 -0.0318089 0.0103226 -0.0144277 -0.035096 0.00997731 
-0.0139958 -0.030798 0.0099278 -0.0117546 -0.0393285 0.010023 -0.0179462 -0.0332167 0.0102911 
-0.0148146 -0.0383167 0.0124236 -0.0114512 -0.0361385 0.0124412 -0.0197248 -0.0364643 0.0134898 
-0.0125818 -0.0324251 0.0134267 -0.0159104 -0.0300657 0.0133769 -0.00840682 -0.0369409 0.00995038 
-0.00614365 -0.0311848 0.00997123 -0.00216505 -0.0307564 0.00999648 -0.000450324 -0.0374081 0.010329 
-0.00415578 -0.0347348 0.00957625 -0.00751023 -0.0339729 0.0124998 -0.00528225 -0.0372967 0.0126935 
-0.000116806 -0.0304098 0.0134801 -0.00417861 -0.0305633 0.0135017 -0.00815298 -0.0301095 0.0134154 
0.00642869 -0.0393871 0.0100937 0.00759458 -0.0355403 0.0101795 0.00863074 -0.0316478 0.0101722 
0.00345513 -0.0365265 0.0101007 0.00470932 -0.0326062 0.0102217 0.000697698 -0.0335777 0.010165 
0.00989036 -0.0369356 0.0131816 0.00576071 -0.0371617 0.0133596 0.00296881 -0.0342977 0.0134081 
0.00187769 -0.0381454 0.0135069 0.00389122 -0.0304049 0.0135041 0.00684311 -0.0332928 0.0136232 
0.0183056 -0.0389767 0.0100554 0.0104434 -0.0394768 0.0101163 0.0145736 -0.0369931 0.0101209 
0.0172089 -0.0311063 0.0100532 0.0126096 -0.0306439 0.0102612 0.0114567 -0.03448 0.0104215 
0.0181344 -0.0349823 0.0105053 0.0148533 -0.0335071 0.0123492 0.013225 -0.0394462 0.0129969 
0.0167059 -0.0375299 0.0134637 0.0191026 -0.0323059 0.0134694 0.0107626 -0.0320641 0.0135357 
0.0257422 -0.0369144 0.0101606 0.0221576 -0.0350596 0.0101554 0.0212448 -0.0311469 0.0102955 
0.022339 -0.0390684 0.0102526 0.0287663 -0.0342835 0.0102905 0.025144 -0.0323986 0.0102625 
0.0284136 -0.0300545 0.010148 0.0204399 -0.0361064 0.0136349 0.0241009 -0.0379522 0.0136759 
0.0317605 -0.0318581 0.0113912 -0.0398356 -0.0209282 0.0100881 -0.0326659 -0.0217872 0.0102751 
-0.0300334 -0.0254526 0.0100759 -0.0329663 -0.0297269 0.010321 -0.0359473 -0.0270525 0.0102301 
-0.0364675 -0.0230568 0.0104622 -0.0332705 -0.0250295 0.0125457 -0.0304246 -0.0277509 0.0133538 
-0.028961 -0.0293226 0.00997234 -0.0215187 -0.0272211 0.0098938 -0.0286673 -0.0216804 0.0100849 
-0.024951 -0.0292909 0.0101496 -0.0220246 -0.0232397 0.0100408 -0.0248739 -0.0204114 0.0101812 
-0.0255419 -0.0253342 0.0101887 -0.0277282 -0.0239358 0.013286 -0.0229146 -0.0258403 0.0134307 
-0.017957 -0.029206 0.0099087 -0.0185858 -0.021186 0.0100592 -0.0142445 -0.0267228 0.0100502 
-0.0180658 -0.0252007 0.00999793 -0.0148513 -0.0226578 0.0100539 -0.0108554 -0.0246006 0.00988182 
-0.0109537 -0.0205772 0.0100033 -0.0117725 -0.0285932 0.0125866 -0.0196761 -0.0233719 0.0132851 
-0.0123151 -0.0228037 0.013173 -0.0157818 -0.0248054 0.0133159 -0.0198808 -0.0284563 0.0133523 
-0.00398885 -0.0237306 0.009895 -0.00099662 -0.0268716 0.00992549 -0.00872111 -0.0280311 0.0100097 
-0.00686555 -0.0208965 0.0102132 -7.20706e-05 -0.0228795 0.00972259 -0.00484934 -0.0274935 0.0109596 
-0.00739904 -0.0244631 0.0119466 -0.00170517 -0.0244797 0.0131302 -0.000442674 -0.0206462 0.0134452 
0.00386986 -0.021988 0.0100441 0.00569862 -0.0287072 0.0100466 0.00681151 -0.0248292 0.0100341 
0.00287719 -0.0258682 0.0100944 0.00182615 -0.0297293 0.0100406 0.00958904 -0.0277138 0.0102555 
0.00716712 -0.02151 0.0122635 0.00224769 -0.0236082 0.0133602 0.00776505 -0.0293968 0.0134039 
0.00518723 -0.0263228 0.0133909 0.014054 -0.0248756 0.00996418 0.017418 -0.0270981 0.00998862 
0.0170688 -0.0222549 0.010174 0.0132741 -0.0209589 0.0102841 0.0104729 -0.02363 0.0113703 
0.0127359 -0.0274623 0.0127188 0.0173846 -0.0248924 0.0133345 0.0163911 -0.0288162 0.0136641 
0.0137315 -0.0231027 0.0136451 0.0204335 -0.0244567 0.0100557 0.0245096 -0.0236547 0.0100449 
0.0229898 -0.0275544 0.0100307 0.0277521 -0.0212573 0.0101536 0.0266077 -0.0267527 0.0115434 
0.0238084 -0.0299806 0.0131805 0.0221 -0.022021 0.0128053 0.0202607 -0.0281466 0.0129015 
0.0260756 -0.0227876 0.0136365 0.0233588 -0.0257282 0.0136549 0.0302002 -0.0243958 0.0106066 
0.0381255 -0.0237327 0.0101382 0.0359054 -0.0270866 0.0103108 0.0320075 -0.0279675 0.0104914 
0.0340816 -0.0229675 0.0104369 0.0394786 -0.0214807 0.0132448 0.0303766 -0.0215699 0.0135348 
0.0330319 -0.0253199 0.0135122 0.0371393 -0.0253221 0.0137019 -0.0435451 -0.0112772 0.00998478 
-0.0422152 -0.0154288 0.0110008 -0.0409146 -0.0187061 0.0132422 -0.0401857 -0.0100304 0.0132889 
-0.0386762 -0.0170973 0.0101593 -0.031882 -0.0144061 0.0100865 -0.0307735 -0.0182637 0.0101469 
-0.0358829 -0.0141942 0.0100623 -0.0395281 -0.0124786 0.0101808 -0.033698 -0.0108378 0.0101434 
-0.0348643 -0.0184281 0.0103929 -0.0305779 -0.0122997 0.013227 -0.036556 -0.0117121 0.0132273 
-0.0390541 -0.0148275 0.0134596 -0.0340002 -0.0147756 0.0135523 -0.0243862 -0.0109185 0.0101359 
-0.0277729 -0.0130737 0.0102245 -0.0234973 -0.0149575 0.0101709 -0.026964 -0.0170009 0.0102996 
-0.0214228 -0.0183843 0.0104574 -0.0217235 -0.012429 0.0127154 -0.0271394 -0.0102192 0.0129971 
-0.0239533 -0.0175173 0.0134825 -0.0273665 -0.0196195 0.0133094 -0.029363 -0.0161229 0.0135119 
-0.025941 -0.0139777 0.0136897 -0.0122251 -0.0164724 0.00996857 -0.012056 -0.0124632 0.00996497 
-0.0159861 -0.0181231 0.0100431 -0.0182114 -0.0110711 0.0102805 -0.0194949 -0.0148772 0.0104535 
-0.0155559 -0.0141988 0.0108651 -0.0133139 -0.018916 0.0129733 -0.0139785 -0.0114468 0.0133277 
-0.0171963 -0.0197901 0.0135589 -0.0120561 -0.014983 0.0136947 -0.00277631 -0.0199216 0.0100728 
-0.00440319 -0.0132686 0.0100113 -0.00693444 -0.0101701 0.0100435 -0.00834505 -0.0139898 0.00998648 
-0.00559797 -0.0170838 0.0102322 -0.00150146 -0.0160565 0.0101876 -0.00100514 -0.0122602 0.0118704 
-0.00897288 -0.017177 0.0123866 -0.00956707 -0.0118652 0.0132216 -0.0047162 -0.0109029 0.0133041 
-0.00589507 -0.0147253 0.0134521 -0.00320171 -0.0177453 0.0134033 0.00524097 -0.0182185 0.0100186 
0.00946882 -0.0152134 0.00990358 0.00251559 -0.0127592 0.0100285 0.00599706 -0.0107875 0.00999831 
0.00967958 -0.0192059 0.0101555 0.00113424 -0.0190645 0.0100428 0.00582194 -0.0145207 0.0114346 
0.00182195 -0.0159156 0.0124198 0.00755612 -0.0176483 0.0132429 0.00344415 -0.0196909 0.0133573 
0.0174203 -0.0133972 0.00984627 0.0128019 -0.0129801 0.00996106 0.0130634 -0.0169715 0.0100213 
0.0170052 -0.0174397 0.0105385 0.019251 -0.0106823 0.0122057 0.0152516 -0.0108202 0.0122721 
0.0100099 -0.012524 0.0128158 0.0149553 -0.0147908 0.0128242 0.0113273 -0.0163057 0.0135682 
0.01446 -0.0190377 0.0136518 0.0278605 -0.0131583 0.00981068 0.022171 -0.0120754 0.0098466 
0.0202125 -0.0197836 0.0100696 0.0206282 -0.0157962 0.0100497 0.0281585 -0.0172762 0.00987847 
0.0246258 -0.015476 0.0104823 0.0241912 -0.0194535 0.010426 0.0253159 -0.0122584 0.0127722 
0.021791 -0.0179359 0.0132607 0.0214198 -0.0138088 0.0134407 0.0281289 -0.0150428 0.0133625 
0.0269907 -0.0188949 0.0133654 0.0367426 -0.0199634 0.0103618 0.0314293 -0.0149611 0.0100356 
0.0351537 -0.0133651 0.010023 0.0318776 -0.0196197 0.010372 0.039587 -0.0122172 0.0104422 
0.0382368 -0.0159882 0.0104631 0.03233 -0.0106594 0.0109599 0.0345214 -0.0169307 0.0117347 
0.0363874 -0.011005 0.0130494 0.0328566 -0.0138167 0.0136163 0.0421754 -0.0153401 0.00988565 
0.0406616 -0.0191697 0.0101537 0.043614 -0.0108576 0.0099967 0.0429422 -0.0133555 0.0133092 
0.0415644 -0.0171438 0.0134871 -0.0410227 -0.00763573 0.0101948 -0.0407409 -0.00353474 0.01009 
-0.0446219 -0.00588763 0.0104774 -0.0447088 -0.00190171 0.0108741 -0.0440691 -0.00879406 0.0132209 
-0.0419857 -0.00536691 0.0134789 -0.0369601 -0.0050938 0.00999083 -0.0372855 -0.00907603 0.0103034 
-0.0324562 -0.00193031 0.0100803 -0.0316635 -0.00601805 0.0101504 -0.0373513 -0.000195135 0.00993572 
-0.0342273 -0.00428179 0.0128045 -0.0380827 -0.00264169 0.0130665 -0.034528 -0.0082644 0.0131296 
-0.0348965 -0.000231726 0.0132815 -0.0381423 -0.00659604 0.0136889 -0.0300449 -0.00435863 0.0135086 
-0.0298522 -0.00965382 0.0101013 -0.0274376 -0.00648502 0.0105286 -0.0285212 -0.00264646 0.0101797 
-0.0228429 -0.00454364 0.0101298 -0.02072 -0.00795421 0.0102926 -0.0251962 -0.000398821 0.0101946 
-0.0241004 -0.00759839 0.0124478 -0.022199 -0.00145629 0.0126357 -0.0256623 -0.00357821 0.01285 
-0.0203406 -0.004984 0.0134623 -0.0293017 -0.00039833 0.0136237 -0.0106601 -0.00871093 0.0100008 
-0.0192703 -0.00274571 0.0102333 -0.0146199 -0.00931402 0.0100033 -0.0115404 -0.000803324 0.0102561 
-0.0153041 -0.00217502 0.0103507 -0.013194 -0.00557376 0.010466 -0.0171512 -0.00614726 0.0103192 
-0.0169152 -0.00872166 0.0133883 -0.0115217 -0.00731645 0.0136706 -0.00295892 -0.00930635 0.00995399 
-0.00560378 -0.00628997 0.0100439 -0.00376039 -0.00271635 0.0100657 -0.00760882 -0.00158147 0.0102383 
-0.000838815 -0.00550045 0.0104413 -0.00927149 -0.00511478 0.0111268 -0.000997185 -0.00239104 0.0129543 
-0.00447909 -0.000403018 0.0132884 -0.00343303 -0.00709612 0.0133139 -0.00738351 -0.00789532 0.013303 
[...]
POINT_DATA 5999
FIELD FieldData 7
id 1 5999 int
544 514 215 477 482 144 333 828 27 
414 161 454 1092 856 1037 589 18 877 
455 250 307 901 495 1045 924 862 97 
120 520 598 1044 505 200 52 228 135 
379 107 145 551 450 271 407 1506 53 
263 1095 158 426 257 242 515 194 464 
408 336 706 476 501 1008 773 138 596 
185 400 83 230 203 246 992 364 41 
404 777 567 109 338 1033 245 247 608 
690 760 46 397 47 968 154 1316 274 
115 966 557 440 512 285 434 378 1019 
874 816 344 623 33 713 63 294 669 
946 724 11 502 302 402 1476 49 119 
546 424 704 1015 174 199 1166 1028 1418 
504 952 469 684 776 365 371 1676 633 
1285 276 114 8 149 758 918 641 102 
937 1042 310 614 876 54 1176 1036 844 
858 1412 112 516 509 401 210 267 1114 
382 22 861 136 413 1057 348 57 1107 
437 349 659 787 803 223 525 741 360 
650 281 131 550 68 1537 533 125 1325 
243 664 374 311 345 84 487 674 1623 
1208 1722 296 429 175 99 113 42 815 
190 951 201 964 808 616 168 205 66 
293 1126 1338 38 1152 718 1144 1494 317 
875 1083 353 980 1185 833 622 117 848 
396 39 1077 256 630 1288 291 819 859 
635 350 461 231 528 1035 962 788 523 
123 1775 86 423 142 314 590 372 1214 
1262 853 1355 692 1503 417 802 686 134 
1584 1123 399 615 562 92 163 783 1096 
20 126 558 72 1359 1772 1333 1233 731 
447 485 1269 906 354 1071 884 1443 221 
821 58 612 584 1101 1130 727 545 1133 
278 441 903 1105 931 342 1460 445 543 
500 1481 427 627 1486 489 1027 710 1088 
1569 695 830 1142 305 967 900 322 784 
855 1692 537 1202 410 73 393 421 935 
1161 896 389 1100 933 1120 48 1032 108 
128 458 842 914 418 241 367 1151 604 
292 1014 105 673 1516 1009 756 1334 12 
224 755 857 766 813 781 1351 775 610 
5 16 463 23 971 330 607 702 988 
499 920 1128 998 352 1254 77 594 229 
462 667 682 677 1512 206 78 563 1277 
346 845 280 526 840 170 763 1106 886 
273 193 370 1168 1238 498 375 560 734 
384 127 297 719 189 517 81 1478 432 
3 286 956 934 171 975 527 473 320 
712 377 1426 564 984 88 380 1197 1080 
313 1073 155 1613 341 295 1294 101 182 
847 745 1066 586 954 742 716 265 239 
1018 387 1024 1072 214 535 915 657 949 
303 32 592 836 165 244 394 298 331 
1193 572 70 1086 436 287 868 519 691 
334 1237 301 1020 36 721 640 631 191 
996 64 260 326 216 1150 974 541 180 
1085 98 671 79 225 579 80 646 283 
130 186 1040 75 337 356 266 576 910 
448 480 626 765 159 944 524 1583 522 
103 361 347 1124 316 197 656 51 573 
2 849 288 21 212 104 1016 1097 923 
412 600 891 1022 736 1220 146 660 357 
93 472 771 556 91 839 715 425 880 
1745 1442 258 1004 160 76 521 290 121 
152 926 1248 791 957 1246 332 628 28 
569 406 386 599 272 35 277 177 478 
1103 748 235 1611 929 312 1227 638 976 
329 1368 428 226 116 227 799 95 571 
928 1655 1084 1899 220 705 582 1053 1136 
255 851 513 96 304 388 1725 339 275 
14 1134 118 409 629 133 1703 204 1484 
181 259 642 299 264 973 166 1068 811 
529 140 1117 636 15 45 6 321 30 
438 666 324 289 173 769 916 213 507 
195 433 143 415 327 129 1025 475 132 
234 141 899 497 904 207 1290 111 395 
530 701 422 451 268 217 1489 829 343 
124 474 532 780 162 909 735 1790 1856 
625 218 866 40 1461 328 882 2618 1 
913 602 122 885 1323 67 995 1765 178 
26 1386 601 1119 864 430 907 1350 531 
2254 19 1213 1433 1171 680 100 1270 390 
1098 1477 282 997 1392 969 1957 797 2073 
1194 1564 153 1328 1575 1164 1828 1620 647 
1995 1861 795 566 1326 2364 1079 2621 2464 
2275 1547 209 10 1286 981 1299 1650 452 
1834 1289 1589 1846 65 1774 1690 1602 1882 
1705 219 2157 1649 2527 233 1446 892 665 
2165 772 1232 2065 883 1498 1878 1999 1718 
2031 1175 457 1420 391 1632 1067 696 1580 
707 1471 1677 852 1411 1688 1614 605 1358 
1792 1387 1284 1434 1608 147 449 1850 1543 
1365 1421 1251 1169 1519 1981 340 1485 1756 
2295 1280 675 764 443 580 750 1188 323 
1013 2027 889 662 411 1341 1187 1186 2416 
687 1952 1005 94 254 488 198 1162 183 
548 1563 574 493 1416 1017 279 1785 1275 
1058 1949 1733 2143 2300 55 1043 953 1639 
1463 1836 2042 744 2067 1026 2781 2347 2145 
1633 1470 2185 1779 711 1640 818 1331 1242 
1023 1647 1605 1059 905 1843 1734 1768 1943 
1538 2150 1437 1696 2292 1179 534 1789 2285 
1855 1159 1283 1210 1944 2092 1883 2191 1654 
1908 970 2470 1754 392 2221 1697 943 1862 
1074 1609 2109 938 1274 1550 1170 1691 2345 
1456 1483 1919 1953 1405 2136 442 1217 1191 
1491 785 1330 1406 69 1468 872 2296 1182 
1258 2161 248 1659 540 1780 1699 2408 90 
779 689 617 643 652 471 800 1652 902 
1047 1962 1224 2053 1403 1954 2013 249 1678 
921 1327 2328 1178 1829 2776 506 1093 703 
639 824 578 1064 1389 1113 1398 961 319 
1592 1265 2228 1680 2743 2004 1184 1968 1858 
668 854 963 1683 977 2129 1345 1561 1844 
1354 106 1955 2066 2557 1407 1848 2779 2430 
697 1055 1448 7 1672 9 832 2047 1749 
655 1687 1594 2209 2113 1562 2304 2714 2006 
403 747 990 986 179 1525 1201 888 1597 
1555 2490 1587 2093 1595 1814 2728 807 1881 
1408 1482 994 1404 1174 2128 1012 1684 1644 
1572 1240 1753 1701 1076 1061 211 1203 1070 
1966 1177 1497 1710 726 270 1377 1960 1913 
1628 1852 1413 1183 1979 1272 2091 1763 2594 
1508 1931 240 1383 1369 987 2312 1199 1223 
611 1256 1552 806 2277 1141 2301 2652 43 
679 927 658 1319 1132 834 518 1243 2278 
1767 1493 1347 1417 1811 1308 1685 1958 2426 
1663 1642 1219 1180 739 754 1276 252 805 
2565 1293 1905 1863 139 1372 1222 1324 749 
1948 894 653 985 2205 1397 1893 2366 1730 
1212 1961 1118 222 898 1679 1385 1329 1860 
1250 1505 1835 1215 1759 1776 1830 826 202 
767 613 25 941 1196 1500 318 978 2014 
2194 2348 863 1318 1268 654 2548 496 619 
369 1231 881 1235 1310 1429 2307 1548 1472 
694 2299 581 1317 1109 1127 1643 1363 1396 
1295 508 376 1618 1622 1099 1822 1081 1536 
1374 661 351 1380 1513 1315 1155 2478 1507 
1586 831 1140 1509 869 2104 1003 575 1839 
491 1356 1091 1263 2021 1479 1340 2297 1588 
1888 1216 1454 1728 1876 1428 1030 1366 1125 
1964 479 1529 483 2038 1425 1809 1049 865 
1634 1838 1206 1694 1674 1281 1444 1845 1181 
893 1630 1967 812 1279 1492 714 1348 2159 
770 2240 1094 1447 1060 1145 1886 1982 1702 
1399 1925 2346 959 1332 1921 2210 2395 1629 
753 1832 2086 751 137 1945 1041 1914 1517 
1577 1391 1935 1573 1137 172 536 693 796 
1011 870 1557 1006 879 2043 1624 1104 2451 
2036 24 511 1228 873 1038 1221 1353 835 
1122 1719 2200 1002 1940 2037 2052 860 2852 
890 1111 1744 982 983 110 1225 1842 789 
1357 585 2453 2024 2537 2232 867 1352 1502 
2441 1567 1131 1928 1522 1362 2362 794 1158 
2001 2139 1804 1435 1496 1252 2379 2258 1992 
2154 871 1808 2762 1871 2018 843 1907 237 
947 29 743 1975 1361 1615 1821 1455 2716 
2140 2425 2546 1600 945 1300 1395 300 355 
1226 878 1480 942 728 838 717 1260 1720 
1787 1342 1541 2335 2589 2458 1599 309 792 
587 1320 1148 570 1305 381 606 761 1518 
1895 1750 1593 1578 1521 1466 1970 678 362 
1054 188 1089 431 148 565 1707 555 1381 
814 1046 1129 549 1501 1304 1360 1831 1796 
730 368 1010 1487 1139 723 993 1445 253 
31 1306 1031 1063 2264 2074 2400 1244 1911 
1778 503 1112 1977 1812 1291 187 757 2072 
1528 1149 1297 1450 1301 1673 2651 2269 1524 
2431 919 1439 1576 922 632 2248 232 817 
366 1370 2319 2237 2176 1110 1523 1090 167 
1078 1052 2279 2242 1312 1553 1499 2260 1675 
1910 1007 2839 2414 1526 2529 827 419 588 
1344 700 778 1255 1884 1936 1870 1556 1714 
2398 2034 1826 1997 1419 1337 1998 1449 2367 
1490 1335 1430 1394 737 1972 1879 733 1367 
459 1462 1339 2012 2133 672 1574 1218 746 
1153 2114 676 453 420 911 2452 1546 1721 
1154 1664 82 1314 1766 2108 2658 1898 1747 
950 87 1311 979 930 484 809 315 164 
1535 822 932 568 1402 1743 553 1302 1229 
1241 1415 2324 955 1321 648 958 609 1976 
192 1682 1021 940 708 2115 1469 2148 1082 
1190 2156 1880 1075 238 554 1069 561 405 
74 150 887 1236 358 1230 1115 2375 810 
539 1559 1511 50 1271 1400 1384 481 1207 
1056 1963 1441 1135 60 13 740 1532 1566 
620 1984 1247 1029 1379 1849 2152 1827 2598 
688 1343 841 1604 1459 435 559 1560 2010 
2225 2318 2446 2134 2750 2660 2223 1665 1748 
1346 439 925 1349 1617 790 1726 1257 71 
1048 1373 1551 2119 2837 2160 2259 2283 62 
603 1819 1001 1897 2406 774 325 1102 470 
2051 2910 1971 948 2155 2101 2022 1540 683 
793 618 1309 1156 284 644 1625 681 1510 
1934 1669 2203 2039 1841 634 251 725 1436 
373 685 846 698 1859 416 2158 456 2090 
960 2272 444 1375 2040 1712 1698 1670 709 
738 820 547 1695 583 1582 752 1424 2035 
1467 2219 1163 637 1565 1393 2410 2000 1205 
850 85 34 804 1273 1267 363 1423 1261 
17 2198 972 1121 494 460 2138 991 151 
1959 1388 306 61 383 1165 1296 1875 169 
2460 1873 468 1867 1116 2629 2243 2032 1764 
2064 2956 1715 798 1287 196 2055 624 2049 
1534 1172 2764 308 1755 2030 1923 1760 1932 
89 1298 2023 1612 2434 2236 2234 1571 1641 
2007 1160 1868 184 1410 1475 1303 4 2127 
1795 2284 2403 597 2211 2099 2197 2180 591 
649 2146 1000 486 1167 538 261 1631 1514 
1195 917 1401 2474 1758 2813 1903 1504 1108 
1542 645 490 759 1651 1591 577 1724 176 
1610 1645 1627 651 1453 1050 823 59 157 
965 1249 466 801 1336 359 1713 1579 989 
1708 2110 1422 1282 825 786 1752 1307 1554 
999 1173 1147 593 1530 1266 908 1495 552 
729 510 56 269 762 156 670 1364 1239 
1062 2542 1209 621 542 1816 1390 1980 2081 
2384 1922 2327 1657 1211 2569 3162 446 1189 
768 1570 1143 2514 335 2690 1717 2680 2122 
2843 2554 2775 2518 1245 3284 2196 2641 2046 
2257 3086 2100 3465 2999 2528 2911 2938 3002 
1638 2289 1259 1598 3160 2845 3808 3564 3155 
2713 3025 3142 2633 1906 2720 2686 1996 1777 
2349 2508 2918 1278 2195 1869 699 2303 782 
2247 1581 2847 2102 2250 2512 492 2977 2341 
3540 2588 2801 3471 3348 2245 1603 2987 3013 
1783 2421 1661 2417 2208 3098 2862 3529 2963 
2851 3319 2262 2096 2612 2121 2526 2106 1681 
2084 1590 1626 2098 2840 3413 2433 2968 3636 
2958 2435 4100 3707 3362 2308 1488 2003 2825 
1146 2351 2383 1800 2959 2833 2975 2761 2506 
3033 3256 3099 3315 3682 1533 2472 2455 2187 
2684 2624 2418 3174 3271 2378 2448 3060 3207 
3095 3378 2930 3008 2377 2075 2355 2932 2517 
2606 3464 2545 3215 3734 2871 3187 3650 2855 
4051 2499 2332 2735 2809 2044 1937 465 2560 
2611 2689 2538 2675 1802 2806 2443 1865 2568 
2669 2877 2533 2339 1771 2391 2646 1382 2226 
2314 2135 2493 2601 1991 2041 1458 3193 2645 
2330 2239 2556 3469 3125 2597 2869 2008 1746 
2746 2613 3094 3425 3391 3411 3851 3111 2929 
3037 2427 2305 2812 2291 1619 2767 3027 2396 
3297 3303 2516 3122 2795 3492 1414 2009 3082 
2532 2661 2510 1983 2276 1376 1727 2183 2486 
2368 2498 3286 3539 2505 2673 3360 2487 1686 
2511 2015 1824 1978 2468 2765 2522 2953 2111 
3079 2048 1866 2402 3249 3553 2824 2739 3078 
2808 2088 1693 2562 1989 2964 3175 1716 2338 
2423 2515 2280 2415 3015 2717 2848 3721 3699 
3028 2659 2365 37 2329 2173 2298 2943 3024 
3124 1737 2105 2450 2025 1817 1711 3828 2271 
1378 2429 2859 2639 2610 3238 3789 1607 2667 
2061 2886 1065 1887 1773 2491 2385 1700 2359 
2576 3252 2389 3451 2829 2805 3799 2268 2057 
2142 2282 722 2177 3156 2151 2816 2363 2708 
3375 2387 3247 2483 2880 2858 3614 3345 2231 
2983 3309 2668 1794 1662 3173 2794 2399 2103 
2674 2457 3072 1781 3338 1917 2581 3005 2477 
1253 2190 1636 1988 2916 2182 2944 2870 3040 
1942 3180 2694 939 1671 1668 2600 1264 2804 
2333 2120 1889 2736 3772 2540 2050 2666 2549 
2671 2409 1840 3158 2520 2846 2687 2432 3211 
3690 2534 2519 3208 2461 3090 2895 1087 2317 
2179 2440 2071 2745 2420 1965 2005 1987 3924 
2241 2732 3542 2181 1198 2370 2709 2322 2361 
1531 3167 3063 1658 2116 2083 2579 2202 3185 
2665 1539 1924 2935 2939 3339 1896 1667 3368 
3445 2774 2163 1969 2141 2688 2773 3258 2206 
2373 2082 2482 3029 1890 3250 2787 3620 3548 
2883 3001 1902 2796 1793 2712 1723 2861 2875 
1807 3455 2251 2772 3039 2444 1916 3892 3150 
1806 3140 1993 1452 1736 1200 1815 1994 1877 
2678 2989 2407 2922 2897 3890 2915 2172 2577 
1704 2392 1568 2521 1051 2786 1558 2849 2950 
2207 3453 2741 2704 2263 2484 1927 2531 1637 
2112 2130 2326 2595 2737 2573 2820 3012 2676 
2863 3214 2323 2536 2309 2481 3326 3327 2567 
2449 2607 2215 2357 2603 1786 2978 1545 3003 
3189 2059 2405 2204 2125 1985 3129 2256 1833 
1920 2118 2699 2193 2192 2885 3569 2614 3336 
2584 1660 1689 1732 1941 1900 2220 2798 3257 
1901 2749 2343 2835 2539 1803 1813 2466 1653 
2422 2770 2940 2814 2881 3363 3316 1616 2290 
1805 3499 1735 1946 3149 3278 3506 3633 2951 
3757 1440 1769 2488 3387 1885 1762 1990 2068 
2473 1431 2827 1938 2677 3246 2572 3121 2899 
2169 2941 2344 2653 2912 2026 2077 2079 2439 
2424 2752 2647 2070 2222 2504 2325 2306 2356 
1729 1909 1825 1739 2564 1585 2632 2476 3574 
3112 2828 2733 3470 3016 1292 2830 2094 2630 
2132 2217 2657 2969 2164 2844 3071 3179 3308 
2465 2393 2738 2570 2552 2642 2991 1432 2124 
2095 2500 1851 1820 2649 1039 2887 2404 2865 
1930 2724 2854 2753 2313 3009 1646 2337 3351 
1857 2990 1648 1549 2636 2503 1798 1956 2442 
2218 2725 3196 2249 3485 2382 2620 2524 2931 
1515 1933 2459 1738 2638 1621 1915 2682 2316 
3054 2802 3273 3439 2919 2797 3486 1761 1810 
1797 2994 2253 3312 2445 1874 2462 2017 2934 
2985 2011 2615 3505 2763 3006 2604 3085 3390 
2374 2785 3014 3429 1656 3053 2799 2701 1706 
2592 2342 1409 2587 3050 2789 2413 3700 2890 
2471 3489 3448 3093 3213 3480 2386 2123 3047 
2178 2902 2923 2352 2274 2214 1731 2436 1947 
2480 2273 3373 3337 2697 3087 2803 2238 1740 
2759 2199 1465 1892 1204 2543 2184 2167 2287 
2447 3105 1451 1799 2213 2201 2016 2608 2961 
2162 2908 2535 3403 4017 3123 3871 1473 2702 
2336 2888 2230 2029 1894 2492 3398 2137 3463 
1918 2555 1854 2609 2723 2884 1974 2175 2340 
2924 2456 2321 2751 1872 236 2288 3277 2625 
3304 2045 2730 3756 3494 2233 2925 3314 1666 
1457 2076 2186 3251 1527 1709 2281 2768 2261 
2982 2654 2153 2933 2655 1847 2679 2437 3432 
3741 1138 2020 2019 2700 2962 2227 2705 1192 
1234 2212 1427 1635 2898 1742 2495 2744 3138 
3070 2734 2605 2681 3178 3785 3900 2622 2265 
2626 2174 2331 1818 2602 2376 2578 3980 2315 
2097 2715 3170 2672 3546 3307 4228 3234 2731 
3318 2800 3737 3031 1853 1939 2900 2810 2547 
3232 2691 3280 3712 2841 2525 2469 3733 3190 
2635 3803 3224 1801 1596 2310 2397 1864 3045 
2502 3017 2729 3287 3225 2244 3274 2496 2062 
3893 3559 3745 2917 2619 2952 3065 2559 3010 
2583 2089 2063 2494 2078 2561 2727 2644 3153 
3301 3219 3358 3330 3369 3436 3267 3836 1912 
2711 2590 2580 2936 2822 2087 3202 2703 2882 
2390 2949 2311 2650 2874 2485 3091 2054 1322 
897 1601 2784 2360 2957 3371 2627 3270 3145 
2748 3116 2591 3818 2475 3367 3248 3736 3269 
1757 1544 2188 2903 2381 2988 2401 1784 2080 
3292 2663 3212 2831 3397 2892 2388 3119 3704 
2380 2766 2876 1474 2394 262 2670 2948 3372 
2170 2706 2631 2171 2107 2945 3747 2582 3114 
3034 3507 3495 1791 1788 2513 2033 3400 2872 
2942 2270 2593 3460 2563 2294 3293 3081 3939 
3937 3357 3059 2791 3562 2411 2575 2586 2350 
3201 3120 3171 3266 3073 3895 3263 1926 2992 
1034 3004 2758 3442 3684 3752 3646 1313 1891 
2497 2302 1770 2229 2369 2692 3561 3341 2255 
3435 3444 2085 1520 2811 2793 3467 3823 3843 
2147 2523 2235 2412 2778 2246 2909 2585 3406 
2144 3401 2058 2637 3268 3396 2479 3115 3884 
2060 2662 2372 2126 2002 2501 3172 3738 2266 
3285 3912 1951 1973 1823 2856 1837 2937 3176 
2574 2530 3783 3591 3410 3320 3759 3606 2970 
3487 3089 3538 3525 3641 2056 2131 2868 3630 
3046 4455 3255 2771 2866 3509 3580 3657 2069 
3106 2685 2879 3493 2742 2836 3282 3804 3834 
4039 3118 3446 3289 3955 3713 3722 2718 3279 
3792 4166 4464 3703 4216 2507 3056 3958 3961 
3331 3902 5177 3235 2623 3845 3639 4200 2864 
4060 4618 4497 3972 3607 4124 3404 3862 3758 
4367 4098 4168 3677 3822 2891 2783 3790 4129 
3077 3032 2634 3440 3778 3058 3718 3276 3654 
3148 3532 4392 4636 3288 3844 3334 3723 3194 
3405 3302 3632 4149 3195 3985 3727 3547 3670 
3977 4257 4360 3147 3764 4002 3361 3472 2371 
3433 3913 3763 3831 4139 4326 4388 2955 4310 
3349 4475 4318 3761 3165 4248 3599 3152 3766 
3967 2842 3379 4066 3618 3735 4416 4642 4072 
4738 4270 4918 4818 4390 5772 2747 2467 2616 
3768 3800 3350 4439 3623 4211 3894 3675 2967 
4415 3711 3083 4375 4038 5535 3311 2553 1950 
2596 3537 3048 3500 3437 3578 3708 3811 3868 
3883 3717 4456 4451 4395 4536 3919 4279 3313 
3847 2740 3067 3478 2973 4170 4460 4188 2189 
2834 4647 4255 4389 3833 4637 3450 2946 4813 
3715 4169 4420 4463 4664 5082 4550 4371 2966 
3920 3325 2904 3662 4000 3052 3449 3512 3523 
4480 3993 3264 4632 4284 4496 4567 3221 3346 
2438 2821 2628 3186 4056 2832 3676 2721 3983 
3516 4521 4007 4946 4775 4705 4136 4366 3522 
3041 2907 3188 3794 3103 3907 3527 4742 2980 
4093 4797 4648 3771 4150 4286 3572 3769 3226 
3751 4317 3898 3353 3714 2648 3806 3347 3412 
4198 3990 5425 4161 4003 4202 4290 3853 4519 
3365 2216 3199 2896 3534 3370 3096 3298 4559 
2976 4068 2777 4012 3674 4793 2656 4086 2867 
3774 3556 3528 3409 4444 4240 4089 3743 3477 
3615 3476 3826 3462 3753 3482 4065 3642 3754 
4646 4891 4001 3000 3169 3260 3594 3813 3415 
3317 3518 3231 4403 4130 3126 4560 3908 2168 
3651 2696 3388 2354 3931 3166 4504 3101 3344 
3634 3468 3242 3459 3956 4175 3963 3328 2693 
2838 2788 2984 2927 2857 3020 3829 4259 3624 
4019 3681 3773 3376 4205 4700 3821 4924 4361 
3306 3143 3679 3418 3183 3457 3848 3402 3974 
4134 3640 3672 3987 3323 4466 4328 3944 3294 
3616 3979 3244 3695 2698 3730 3259 4525 4291 
3253 4387 3951 3988 4127 4440 3897 3281 3817 
4600 3508 2954 1741 3590 3825 3504 2726 4232 
4253 3705 4120 3861 3011 4374 4870 3434 4729 
2757 3181 3557 4113 2860 2769 3849 3706 3392 
4545 3092 3377 3474 4242 3526 4359 3814 2286 
3227 4281 2558 3655 3788 4575 3881 4075 2544 
3611 3921 4699 3571 4590 2664 4448 4833 4806 
4485 3860 2995 3100 3427 4306 3649 4133 4597 
4046 4754 3886 5026 4477 4970 3466 3157 3746 
4154 3222 4103 3422 3973 4084 3819 4979 4340 
3035 4263 4230 3767 2894 3563 3136 2993 3236 
3237 3399 3926 3191 4031 4099 3652 3856 4189 
3275 4025 4393 2683 3748 2819 3952 3927 4125 
2823 3108 4184 4688 4872 4117 3577 2541 3545 
3941 2998 2617 2914 3229 3638 2707 3685 3644 
3204 4262 3598 3139 3698 3055 4142 2986 3066 
3163 2293 3109 3428 3107 3272 3030 3680 3837 
3424 4506 4753 3586 3127 4061 4566 4109 4483 
3097 3948 3075 2947 3925 3810 4237 4570 4295 
3241 3550 3104 4731 2571 3786 4937 3549 3333 
3498 3393 4454 3408 3484 4112 3356 3622 3744 
4105 3592 3473 3628 4095 3858 2780 3935 2850 
3762 3431 4335 3588 3891 3200 3859 4245 2419 
3981 3877 3568 4233 4069 3324 4394 4207 4465 
4617 5179 5247 4443 4958 5076 3692 3694 3023 
3864 3936 3061 4402 4429 3452 3888 4778 3596 
3530 3007 2928 3230 3243 3558 3283 3044 4434 
4528 4554 3496 2722 3665 3855 4128 3210 4156 
3970 4438 3414 3458 3824 4484 3084 2358 2756 
3663 4217 2760 3946 4114 3332 3220 4246 4494 
4261 2971 3161 2599 3796 3022 2965 3197 2807 
3205 4024 3609 3867 3502 3443 4386 4008 3134 
3576 3659 3989 3838 2320 2815 3617 2920 2997 
3501 4020 3619 3128 3520 3613 4468 3689 4239 
3863 4090 4594 3820 3602 3135 3668 2817 2926 
2893 2334 3601 3544 3130 4176 3198 2974 3184 
3144 4772 3830 4419 3305 3164 2972 4365 3673 
3117 4165 4083 4531 3018 4899 4315 3608 4235 
3687 3380 4327 2755 4452 4344 3666 3582 3795 
3088 4053 3776 3872 4573 2979 3755 4714 3842 
3177 2906 3560 3366 5138 3874 3552 2643 4081 
3686 4203 3479 3850 4062 4349 3513 3750 4369 
4331 4137 4028 4016 3905 3300 3702 3239 4309 
3775 3359 2960 3110 3575 4614 3447 4347 3996 
4183 4555 3595 4479 4747 4018 4077 3827 3945 
4193 3991 3950 3816 3395 4311 4472 3749 3805 
4811 3631 3610 4338 4352 4206 4685 5195 4116 
4097 2826 3719 3779 3159 4736 3600 4102 4158 
4673 3589 3960 4249 3419 2792 3835 3777 2428 
3643 3653 3593 3720 3245 3383 3541 3637 4231 
4364 3739 4639 4990 4080 3295 3491 2463 4187 
4163 3233 3043 3343 3417 3329 3299 2889 3975 
4425 3262 3019 3661 4201 4486 4256 3488 4412 
3168 3928 3852 4565 4342 4932 1904 3074 3760 
3394 2353 3832 3533 4288 4320 3420 3656 3514 
3605 3218 4204 4033 3536 3966 4298 4442 3151 
3182 3146 2224 2754 3904 3441 3880 3584 2853 
3660 4058 4215 3223 3554 3042 3133 4146 3999 
3261 3915 4199 4561 4487 3732 4252 4250 4174 
4219 4591 4258 3965 3865 3846 3731 3426 3645 
4307 3740 4791 5123 4108 3296 3968 3627 3930 
3793 3716 3629 4152 3876 3051 2981 4047 4598 
3693 5224 4341 4999 5294 3626 3036 3407 2550 
3878 3962 4157 4551 4860 4190 4823 2551 4041 
3354 3969 3597 3917 3697 3291 3782 4131 3064 
2921 4073 3585 4042 4312 3929 3216 2719 3688 