# vtk DataFile Version 4.2
Generated by LIGGGHTS
ASCII
DATASET POLYDATA
POINTS 5999 float
-0.0177532 -0.0413483 0.0101176 -0.0139832 -0.042686 0.0102673 -0.0195272 -0.0405303 0.0136091 
-0.0157693 -0.0420787 0.0138167 -0.0120439 -0.0433444 0.014561 -0.0100339 -0.0433157 0.0101997 
-0.0062323 -0.0445737 0.0102175 -0.00226997 -0.0440263 0.0102926 -0.00672946 -0.0406427 0.0107752 
-0.00285858 -0.0404012 0.0118901 -0.00824484 -0.0442433 0.013663 -0.00422522 -0.0448062 0.0137084 
-0.00950647 -0.0403332 0.0137269 -0.00569659 -0.0411887 0.0146043 0.00866993 -0.0441364 0.0101792 
0.00162146 -0.0449519 0.0103448 0.00493314 -0.0427077 0.0102744 0.00166556 -0.0403999 0.0103226 
0.00879376 -0.041098 0.0130832 0.00672425 -0.044478 0.0136884 0.00439525 -0.0411733 0.0139358 
0.000358553 -0.0417162 0.0138801 0.00277688 -0.0448962 0.014185 0.0147441 -0.0412588 0.0102325 
0.0120003 -0.0433568 0.0122562 0.0171936 -0.0415979 0.0133777 -0.0308006 -0.0328056 0.0102856 
-0.0319644 -0.0316575 0.0139363 -0.0247562 -0.0333359 0.0102291 -0.0213323 -0.0354037 0.0101909 
-0.0212903 -0.0394053 0.0101943 -0.0246354 -0.0374566 0.0112833 -0.0212748 -0.0314229 0.0107056 
-0.0279543 -0.0352491 0.0116831 -0.0269916 -0.031627 0.0130891 -0.0230161 -0.034164 0.0139271 
-0.0233212 -0.0301082 0.0141462 -0.0260826 -0.0366687 0.0149294 -0.0178033 -0.0372888 0.0102216 
-0.0113794 -0.0395481 0.0102257 -0.0142004 -0.0351576 0.0102262 -0.0101547 -0.031853 0.010301 
-0.0177333 -0.0332593 0.0103448 -0.0140961 -0.031161 0.0104052 -0.0146361 -0.0385422 0.0123296 
-0.011286 -0.0363823 0.0126851 -0.0196849 -0.0365263 0.0136686 -0.0157849 -0.0343751 0.0138317 
-0.0121991 -0.0326108 0.0136546 -0.0159648 -0.0303793 0.0138944 -0.0193523 -0.0325553 0.0140304 
-0.00623696 -0.0310451 0.0102124 -0.00819098 -0.0369627 0.0102062 -0.00224428 -0.0306068 0.0102358 
-0.000865895 -0.037286 0.0103495 -0.00369569 -0.0342796 0.011007 -0.00737583 -0.0339602 0.0127205 
-0.00526686 -0.0374041 0.012996 -0.00423705 -0.0308651 0.0137175 -0.00027864 -0.0302709 0.0137042 
-0.0010014 -0.034194 0.0139953 -0.00181197 -0.0379996 0.0149322 -0.00814804 -0.0300146 0.013626 
0.0067357 -0.0391338 0.0102688 0.00453035 -0.0324993 0.0102599 0.00352568 -0.0363735 0.0102654 
0.0087805 -0.0314192 0.0102891 0.007478 -0.0352032 0.0102791 0.000573603 -0.0335523 0.0103497 
0.009808 -0.0365971 0.0132215 0.00580596 -0.0369888 0.0135171 0.00298076 -0.0341544 0.0135622 
0.00374967 -0.030136 0.0136617 0.00194139 -0.0380264 0.0135476 0.00717707 -0.0332338 0.0137523 
0.0107391 -0.0390801 0.010227 0.0168751 -0.0313911 0.010219 0.0181962 -0.0392143 0.0103156 
0.0128966 -0.0307409 0.0102258 0.0143155 -0.0372777 0.0103001 0.0114471 -0.0344703 0.0102545 
0.0180309 -0.0352084 0.0105314 0.0147543 -0.0339252 0.0124729 0.0131129 -0.0394761 0.013428 
0.0188698 -0.032332 0.013561 0.0166039 -0.0375259 0.0135742 0.0109709 -0.0319662 0.0135928 
0.020882 -0.0313111 0.0102523 0.0247938 -0.03215 0.0101716 0.0283231 -0.0302635 0.0102645 
0.0220207 -0.0351452 0.0102083 0.0287285 -0.0342556 0.0101999 0.0255807 -0.0369896 0.0103581 
0.0221941 -0.0391497 0.0104515 0.023763 -0.034012 0.0136332 0.0203245 -0.0360627 0.0137193 
0.0273815 -0.0357261 0.013704 0.0271055 -0.031737 0.013832 0.0240938 -0.0379708 0.0141075 
0.0206536 -0.039965 0.0145443 0.023493 -0.0300218 0.0137117 0.0316727 -0.0319501 0.0116557 
-0.0398862 -0.0208576 0.0102329 -0.0302924 -0.0255638 0.0102279 -0.0327332 -0.0293034 0.0103108 
-0.0360007 -0.0269866 0.0103193 -0.0329389 -0.0215068 0.0108359 -0.0366249 -0.0230772 0.0108968 
-0.0334059 -0.0250126 0.0127053 -0.0306752 -0.0278855 0.0134679 -0.0346181 -0.0286661 0.0137924 
-0.0390823 -0.022138 0.0139499 -0.0350366 -0.0217183 0.0143085 -0.0370202 -0.0255303 0.0144359 
-0.0311045 -0.0223593 0.0146675 -0.0287293 -0.0293576 0.0102852 -0.0289949 -0.0217801 0.010225 
-0.0250567 -0.0210732 0.0102389 -0.0218796 -0.0235062 0.0102533 -0.0212068 -0.0274492 0.0102538 
-0.0254325 -0.0253969 0.0103883 -0.0247295 -0.0293349 0.0104437 -0.0276411 -0.0238802 0.0133602 
-0.022845 -0.0260477 0.0136244 -0.0264873 -0.0277018 0.01368 -0.0240375 -0.022239 0.0139296 
-0.0186086 -0.021194 0.010213 -0.0143309 -0.0270014 0.0102349 -0.0179383 -0.0251421 0.0102342 
-0.0111385 -0.0245898 0.0102338 -0.0148313 -0.0225463 0.0103551 -0.0112796 -0.0205675 0.0102261 
-0.0176333 -0.0292594 0.0103481 -0.0118508 -0.028702 0.0128729 -0.0155802 -0.0249924 0.0134629 
-0.0195388 -0.0233325 0.0134922 -0.0123624 -0.0226142 0.0135013 -0.0195686 -0.0285663 0.0137842 
-0.0101591 -0.025666 0.0148542 -0.00893667 -0.0279312 0.0102338 -0.00415826 -0.0235413 0.0102271 
-0.00713282 -0.0206721 0.0102763 -0.000210592 -0.0228893 0.0102734 -0.00113758 -0.0267966 0.0107687 
-0.0050867 -0.0273251 0.0111363 -0.00762041 -0.0242377 0.0121094 -0.000456908 -0.0205418 0.0135527 
-0.00210111 -0.0241909 0.0136505 -0.00878946 -0.0208595 0.0139132 -0.00481657 -0.021246 0.0136225 
-0.00625417 -0.0267355 0.0149197 0.00655865 -0.0247549 0.010245 0.00948979 -0.0274785 0.0102359 
0.00368853 -0.0219653 0.0102329 0.00559448 -0.0286423 0.0102384 0.00270749 -0.0258429 0.0101973 
0.00166606 -0.029705 0.0102547 0.00694286 -0.0214874 0.0125416 0.00188641 -0.0238341 0.0135599 
0.00788176 -0.0292078 0.013504 0.00509202 -0.0263478 0.0137322 0.0170573 -0.0273842 0.0101887 
0.0135479 -0.0254598 0.0102428 0.017014 -0.0229694 0.0102938 0.013318 -0.0214364 0.0102454 
0.0101998 -0.0236328 0.011464 0.019981 -0.020284 0.0101944 0.01227 -0.0279946 0.013068 
0.0175627 -0.0252382 0.0135454 0.0162526 -0.0290121 0.0137816 0.0183022 -0.0213004 0.0137162 
0.0135249 -0.0234233 0.0137134 0.010161 -0.0251591 0.0151909 0.0105176 -0.020725 0.0141947 
0.0242875 -0.0241994 0.0101821 0.0232208 -0.0280584 0.0102353 0.0282477 -0.0211725 0.0102287 
0.0203902 -0.0251181 0.0102671 0.0268207 -0.0268682 0.011765 0.0200361 -0.0282731 0.0127136 
0.022107 -0.022278 0.012939 0.026111 -0.0227652 0.013442 0.023313 -0.0260092 0.0137391 
0.0290768 -0.0251845 0.0146067 0.0243765 -0.020145 0.0104269 0.0300406 -0.0247202 0.0107322 
0.0381414 -0.0237049 0.0102958 0.0340091 -0.0234482 0.0101996 0.0358184 -0.0270718 0.0103849 
0.0319787 -0.0282314 0.0102055 0.0362899 -0.0201585 0.0102785 0.0300046 -0.0289815 0.0137555 
0.0382261 -0.0214928 0.0136376 0.0341433 -0.0292705 0.0134217 0.032903 -0.0254671 0.0134732 
0.0304672 -0.0215903 0.0135332 0.0370108 -0.0253158 0.0137778 0.0342398 -0.0202443 0.0137526 
-0.0432214 -0.011035 0.0102602 -0.0421292 -0.0156745 0.0108351 -0.0403227 -0.0101331 0.0132598 
-0.0409209 -0.0186255 0.0133868 -0.0430671 -0.0130109 0.0137519 -0.0383842 -0.0171462 0.0102443 
-0.0304268 -0.0180451 0.0102479 -0.0358074 -0.0140742 0.0102412 -0.0395567 -0.0126635 0.0102529 
-0.0344431 -0.0178367 0.0103086 -0.0335492 -0.0106951 0.0102559 -0.0317427 -0.0142673 0.010296 
-0.0367174 -0.0118708 0.013456 -0.0302586 -0.0123807 0.0134966 -0.0392306 -0.0149827 0.0135035 
-0.0324266 -0.0187127 0.0136538 -0.0342662 -0.0151419 0.0137799 -0.0368619 -0.018189 0.0138508 
-0.0242876 -0.0111621 0.0102368 -0.0232188 -0.0150255 0.0102071 -0.0264888 -0.0173378 0.0102682 
-0.0217862 -0.0187645 0.0102536 -0.0295852 -0.0101029 0.0102764 -0.0275053 -0.0134939 0.0107082 
-0.0273378 -0.0198253 0.0132977 -0.0218266 -0.0125783 0.0130581 -0.0268447 -0.0103117 0.0132151 
-0.0240107 -0.0176079 0.0134416 -0.0287412 -0.0160835 0.0134954 -0.0254277 -0.0139359 0.0141538 
-0.0210072 -0.0198113 0.0149044 -0.0200612 -0.0159976 0.0141548 -0.0159919 -0.0180594 0.010219 
-0.0120841 -0.0163425 0.0102131 -0.0192456 -0.0156696 0.010251 -0.0119682 -0.012342 0.0103798 
-0.018779 -0.0117101 0.0106125 -0.0155713 -0.0140814 0.0102892 -0.0133456 -0.0187508 0.0131478 
-0.0142802 -0.0116114 0.0135721 -0.0171984 -0.0197098 0.013663 -0.0121124 -0.0150391 0.0140161 
-0.0160499 -0.0157707 0.0139616 -0.0181284 -0.0121563 0.014536 -0.00277936 -0.0197855 0.0102353 
-0.00436761 -0.0130482 0.0102229 -0.00828835 -0.0139064 0.0102655 -0.00558545 -0.0169359 0.01039 
-0.00160178 -0.0159588 0.0102274 -0.000752923 -0.0123768 0.0117991 -0.00895593 -0.0170759 0.0126192 
-0.0047107 -0.0107652 0.0135086 -0.00938583 -0.0111638 0.0132003 -0.00317106 -0.0176007 0.0135724 
-0.00582849 -0.0146068 0.0136327 -0.000902753 -0.0147258 0.0151844 0.00977533 -0.0195402 0.0103917 
0.00566306 -0.0184868 0.010227 0.00641934 -0.0109539 0.0103692 0.00112214 -0.0188967 0.0102261 
0.00988099 -0.0153414 0.010201 0.0028821 -0.0129246 0.0102006 0.00617454 -0.0147607 0.0115889 
0.00203492 -0.0159128 0.012736 0.00342798 -0.0195944 0.0134473 0.00779933 -0.0177708 0.0137648 
0.00645013 -0.0118145 0.0142814 0.00244574 -0.0118647 0.0141493 0.0180031 -0.0133531 0.0101834 
0.0131535 -0.0123667 0.0101881 0.0132909 -0.0174354 0.0102224 0.0172879 -0.0173288 0.0103448 
0.0159843 -0.0109054 0.0126231 0.0151642 -0.0148223 0.0126311 0.0101374 -0.0123249 0.0128173 
0.0116777 -0.0164393 0.0137447 0.0143129 -0.0194998 0.013872 0.0176851 -0.0174035 0.0143808 
0.0181485 -0.0134679 0.0149263 0.0210421 -0.0159543 0.0102018 0.029077 -0.0172523 0.0102403 
0.0271982 -0.013011 0.0101936 0.0232162 -0.012596 0.0102042 0.0248767 -0.0160594 0.0113535 
0.0205448 -0.0105711 0.0123908 0.0269992 -0.0188689 0.013252 0.021446 -0.0183532 0.0133787 
0.0253057 -0.0120463 0.0135831 0.0281528 -0.0150463 0.0135101 0.0218878 -0.0141228 0.0136603 
0.0298846 -0.011441 0.013574 0.032053 -0.0199308 0.0102436 0.0311205 -0.0138115 0.0102298 
0.0381548 -0.0166204 0.0102199 0.0394143 -0.0114693 0.0102112 0.0358626 -0.0133349 0.0102322 
0.0332835 -0.0102405 0.0109638 0.034333 -0.0168471 0.0113839 0.0366082 -0.0106875 0.0131435 
0.0389186 -0.0140735 0.0132101 0.03325 -0.0137049 0.0136157 0.0311781 -0.0176567 0.0137077 
0.0372563 -0.0176266 0.0140026 0.0332523 -0.0100421 0.0152228 0.0402914 -0.0200036 0.0103929 
0.0420849 -0.0158212 0.0102313 0.043561 -0.011257 0.0102834 0.0428818 -0.013594 0.0134607 
0.0412683 -0.0172373 0.0139033 0.0404519 -0.0105135 0.0142384 -0.0409263 -0.00746137 0.0103225 
[...]
POINT_DATA 5999
FIELD FieldData 7
id 1 5999 int
544 514 477 215 124 482 144 333 828 
27 454 161 414 625 1092 856 1037 589 
877 455 250 18 122 307 901 495 1045 
19 120 97 862 924 520 598 1044 505 
200 680 52 107 135 228 145 379 551 
450 271 1328 407 1506 153 263 53 1095 
158 426 257 242 194 515 209 10 464 
408 501 476 706 336 1008 773 138 596 
400 185 83 203 992 230 364 246 41 
404 777 567 338 109 1033 608 46 397 
247 760 245 690 1358 47 605 1387 968 
1792 1176 154 1316 115 966 557 274 440 
512 285 1280 675 764 580 443 434 1019 
344 816 378 623 874 33 713 1005 94 
294 669 946 11 724 502 63 302 49 
402 1476 119 55 704 546 1015 174 424 
199 1166 1418 1028 711 1640 818 469 365 
504 952 684 776 371 1676 633 1285 114 
276 8 149 758 396 918 641 102 392 
937 1754 2221 310 614 876 1042 54 844 
1036 858 1412 2136 630 112 516 210 509 
401 350 248 267 90 382 1114 22 779 
861 136 1057 413 249 348 1107 437 349 
787 659 57 223 803 525 703 741 639 
360 281 131 550 163 650 125 68 1537 
533 1325 243 854 668 311 664 84 374 
345 487 674 1623 1208 1722 1055 697 296 
429 99 113 42 815 190 201 951 808 
964 403 293 616 66 1126 168 205 1338 
38 718 1152 994 1482 1144 1494 317 875 
353 1185 980 833 622 1177 1497 39 1077 
117 848 256 1083 635 291 1288 859 819 
1508 528 461 962 1035 231 788 523 123 
679 1775 43 927 658 423 86 142 314 
590 1180 372 1214 1262 853 692 1355 139 
1372 1503 802 686 417 134 92 1584 1123 
399 562 615 1212 1096 20 783 126 558 
72 1359 1772 1233 1830 826 731 447 1071 
485 354 906 1333 884 619 1443 496 369 
175 221 821 58 584 612 1101 1133 727 
545 278 1130 1105 931 903 342 445 543 
500 831 1586 1140 1509 441 489 427 1481 
627 1486 1027 710 1088 1569 830 1876 1728 
695 967 784 322 1142 900 1692 855 537 
1674 1202 1281 73 410 393 421 1161 896 
389 933 1120 1100 1145 934 1032 458 48 
108 842 751 137 241 367 914 418 1151 
693 796 604 292 1014 105 673 1009 1516 
1334 24 511 756 1228 781 12 813 857 
224 755 766 1351 742 775 654 610 890 
1269 16 5 463 23 971 330 607 702 
499 920 1131 1567 998 1254 1128 77 352 
594 462 1512 667 677 682 229 206 346 
1277 78 1460 563 845 840 526 280 1395 
1300 300 355 170 886 763 1106 273 193 
1168 370 678 1238 309 587 792 498 375 
384 734 305 560 517 127 719 297 189 
362 935 1478 81 432 286 956 171 730 
527 975 128 320 473 712 377 564 1426 
984 1778 88 380 1197 1080 1149 1297 155 
1073 313 1613 182 341 295 101 919 1294 
1439 1576 586 847 745 288 1066 954 716 
265 1523 1018 239 1090 167 1024 535 657 
387 915 214 949 827 303 419 32 988 
588 394 836 592 165 244 298 331 1193 
572 1086 70 1490 436 287 519 868 691 
334 1237 36 301 1020 631 640 191 260 
721 996 64 180 326 216 541 1150 974 
1085 98 579 671 80 79 910 225 283 
646 955 186 130 709 1040 75 3 266 
576 356 337 480 626 448 765 238 159 
524 944 1583 50 991 361 1124 103 347 
316 197 522 656 849 573 51 2 212 
21 104 1016 1097 412 923 891 1022 600 
688 1072 736 1220 146 660 388 93 472 
357 771 1346 439 925 556 715 91 839 
425 880 926 1745 1442 62 258 1004 603 
521 76 160 290 121 152 1246 1248 791 
957 618 683 793 628 332 28 569 406 
386 599 35 277 272 251 177 1103 235 
478 748 312 1611 929 1227 976 1670 638 
820 738 116 428 226 1368 227 799 95 
329 571 1205 850 928 1655 1899 1084 705 
220 255 582 1053 1136 306 61 383 96 
851 304 513 1725 339 275 798 14 89 
1298 118 1134 409 629 1703 133 204 2007 
1571 1641 181 1484 259 642 299 264 973 
166 811 1068 649 591 15 6 140 1117 
529 636 45 438 321 324 30 666 1504 
173 289 213 769 916 507 433 195 143 
415 59 157 327 786 129 475 1025 1173 
132 999 234 899 497 141 111 207 904 
1290 729 552 510 701 395 530 422 451 
1209 621 542 217 268 1489 829 343 446 
474 532 780 162 909 735 1790 1856 2690 
218 866 40 1461 328 882 2618 1 913 
602 1245 3284 2196 885 1323 67 995 1765 
178 26 1386 601 2289 1638 1119 430 907 
1350 864 531 2254 1213 1433 1278 100 1171 
1270 390 1098 1477 282 997 1392 969 797 
1194 2073 1957 1564 1869 699 1575 1164 1828 
1995 647 1620 1861 795 566 1326 2364 1079 
2621 2464 1547 2275 2245 3348 1603 2987 1286 
981 1650 1289 1834 452 1299 1589 65 1846 
1774 1690 1602 1882 1705 219 1649 2157 2527 
2121 2612 892 1232 233 1446 2165 665 772 
883 1999 1498 1878 1718 2031 457 1175 1488 
1420 2003 391 1067 1632 696 707 1580 1471 
852 1677 1688 1411 1614 1533 2472 1284 1608 
1434 147 449 1850 1543 1365 1421 1251 1169 
1519 1981 2295 3008 2377 2075 340 1485 1756 
1678 750 411 1188 1013 323 889 2027 662 
1341 1187 1186 2416 687 1952 2044 1937 465 
254 1162 488 183 198 1416 548 1563 574 
493 279 1017 2300 1275 1058 1949 2143 1733 
1771 2391 1043 953 1463 1639 2042 1836 744 
2067 1785 1026 2781 2347 2145 1633 1470 2185 
1779 2869 2008 1331 1242 1023 1647 1605 1059 
905 1843 1734 1768 1538 2150 1943 1437 1696 
2427 2305 1253 1619 1179 534 2285 1789 1855 
1159 2292 1944 1283 2065 2092 1210 1883 1654 
2191 1908 2470 970 2009 3082 943 1697 1862 
1074 1609 938 1274 2109 1550 1170 1691 2345 
1919 1483 1456 1405 1953 1686 2511 442 1330 
1217 1191 1491 1406 785 69 1258 872 1468 
2296 1182 2161 1780 1659 540 2408 1699 1693 
2562 689 643 617 652 471 800 1047 1652 
902 1962 1224 2053 1403 1954 37 2013 921 
1327 2328 1178 1829 506 2776 1093 2271 824 
1064 578 1389 1113 1398 319 961 1265 1592 
2228 1680 2004 1184 2743 1968 1858 1607 2667 
1407 1683 963 977 1345 2129 1561 1844 1354 
106 1955 2066 2557 1848 2430 2779 2226 2057 
1448 7 1672 9 2047 832 1594 1749 655 
2209 2113 1687 2304 1562 2714 1794 1662 3173 
747 990 986 179 1525 888 1201 1555 1597 
1587 2093 1595 1814 2728 1881 807 1408 1636 
2190 1404 1174 1012 2128 1684 1644 1572 2490 
1240 1753 1701 1076 1061 211 1979 1203 1966 
1070 939 1671 1710 726 270 1377 1913 1960 
1628 1852 1413 1183 1272 2091 1763 2594 1824 
2549 2666 2050 1931 1383 240 987 1369 2312 
1199 1223 1256 1552 611 806 2277 1141 2301 
2652 1087 2317 2179 1630 1132 1319 518 834 
1243 2278 1767 1347 1417 1811 1308 1685 2426 
1958 1642 1219 1198 739 754 1276 252 805 
2565 1293 1863 1905 1222 1324 749 894 1948 
653 2205 1397 1893 2366 1730 1961 1118 1679 
222 898 1196 1329 1385 985 1860 1250 1505 
1215 1835 1759 1776 2774 2163 2141 202 613 
767 25 941 1500 881 978 318 2014 2194 
1318 863 1268 2348 2548 1902 2796 1793 2712 
1231 1235 1310 1429 1548 2307 1472 694 1317 
2299 581 1109 1127 1315 1643 1363 1396 2006 
1993 1295 508 376 1618 1622 1099 1822 1081 
1536 1374 661 351 1380 1513 1155 2478 1507 
2172 2577 1704 2392 869 2104 575 1003 491 
1839 1091 1356 1263 2021 1479 1340 1588 2297 
1888 1216 1454 1927 2531 1637 2112 1366 1030 
1964 1125 479 1529 483 2038 1809 1425 1049 
865 1634 1838 1206 2449 1694 2607 2215 1845 
1181 1444 893 1967 812 1279 1492 714 1348 
2210 2159 2240 1094 1447 2256 1833 1920 2118 
1060 1886 1982 1493 1702 1399 1925 959 2346 
1332 1921 1629 2395 1663 753 1832 2086 1945 
1041 1914 1517 1391 1577 1935 1573 1137 536 
172 1813 2466 1011 870 1557 1006 879 1104 
1624 2451 2036 1616 2290 2043 835 873 1221 
1038 1353 110 1122 1719 1002 2200 2037 2052 
860 2852 1440 1769 1744 867 982 1111 1225 
983 1842 1357 585 2453 789 2024 2537 1352 
1502 2232 2441 1885 1762 1990 1928 1522 794 
1362 2362 1158 2001 2139 1804 1435 1252 1496 
2379 1992 2258 1808 2154 2762 1998 871 1871 
2018 947 843 29 1907 237 743 1975 1615 
1361 1821 2425 2140 1600 2716 2546 945 1226 
942 878 1480 728 838 717 1455 1260 1720 
1787 1342 1541 2335 2589 2458 1599 1292 2094 
1428 1320 1148 570 1305 381 606 1518 761 
1895 1750 1593 1521 1578 1466 2124 2095 1432 
1054 188 565 1089 431 148 1707 555 1381 
1046 814 1129 770 549 1501 1304 1360 1648 
1549 368 1010 1487 1796 1139 1831 993 723 
1445 253 31 1306 1063 1031 2074 2264 2400 
1244 1911 2459 1515 1933 503 1112 1977 1812 
1291 187 757 2072 1528 1761 1810 1450 1301 
1673 2651 2269 1524 2431 1874 2445 922 2248 
632 232 817 1940 366 1370 2319 2176 2237 
1110 1052 1459 1078 2279 2242 1553 1312 1499 
2260 1675 1910 1007 2839 2414 1526 2529 1656 
778 1344 1255 1884 700 1936 1826 1870 1714 
2398 2034 1556 1997 1419 672 2367 2123 2386 
2178 1430 1335 1394 737 1972 1879 459 733 
1337 1462 1339 2133 1574 2012 1218 2238 1740 
2759 746 1153 676 420 2114 453 911 2452 
1546 1721 1154 1664 82 1766 2108 2658 1898 
1747 950 2167 979 1311 930 484 164 315 
809 87 1535 822 1402 932 568 553 1743 
1302 1241 1415 1970 1229 2324 958 609 648 
1976 1682 1021 940 708 2115 2148 1469 1082 
2156 1190 1075 1880 2340 192 1321 561 554 
1069 405 887 74 150 1236 358 1230 1115 
2375 810 539 1559 1511 1666 1457 2076 1271 
1400 1384 481 1207 1056 1963 1441 1138 1135 
13 1532 740 60 1566 620 1984 1247 1029 
1379 2152 1849 1827 2598 2212 1192 1234 1427 
841 1604 1343 435 559 1560 2010 2225 2446 
2318 2134 2750 2660 2223 1665 1748 2622 2265 
2626 1349 1617 790 1449 1726 1257 71 1373 
1048 1551 2119 2160 2837 2283 2259 3031 1853 
1939 2900 1819 1001 1897 2406 774 325 1367 
1102 2051 470 1971 2910 948 2155 2101 2022 
1801 1596 1309 1156 284 681 1540 644 1510 
1625 1314 1934 1669 2039 1841 2203 634 2583 
2559 3010 2063 1912 725 1436 373 685 846 
698 1859 416 2158 2090 960 456 2272 444 
2040 1375 1698 1712 583 547 1695 965 1582 
752 2035 1424 1467 2219 1163 1565 637 1393 
2410 2000 2054 1322 897 85 34 1273 804 
1267 1752 363 1423 1261 17 2198 972 1121 
494 2138 460 1757 1544 151 1388 1959 2380 
1165 1296 1875 169 1873 2460 1764 1172 468 
1867 1116 2629 2243 2032 2064 2956 1715 1474 
2394 262 1287 196 624 2055 1534 2049 1760 
2764 308 1755 2030 1923 2023 1932 1612 2434 
2234 1788 2236 1791 1160 1868 1475 1410 1303 
4 2127 1795 2284 2403 2211 597 2197 2180 
2099 2411 1000 184 2146 486 1167 538 1631 
261 1514 1195 917 1401 2474 1758 2813 1903 
2992 1926 1108 645 1651 490 1542 759 1591 
577 1610 1724 176 651 1645 1627 1453 1050 
823 2497 1313 1891 2302 1770 1249 801 466 
1336 1713 359 1579 989 2110 1708 1422 1282 
825 2147 2523 2235 1307 1554 593 1147 1495 
908 1530 1266 2372 2126 56 269 762 156 
1239 670 1364 1062 2542 1951 1973 1823 1816 
1390 1980 2081 1922 2384 2327 1657 1211 2569 
3162 1189 768 1570 1143 2514 335 1717 2680 
2122 2843 2554 2775 2518 2866 2641 2046 2257 
2100 3086 3465 2528 2999 2911 2938 3002 3106 
2069 2685 1259 1598 3160 2845 3808 3564 3155 
2713 3025 3142 3955 3289 3713 2633 1906 2720 
2686 1996 1777 2349 2508 2918 2195 782 2303 
2247 2847 1581 2102 2250 2512 2977 2341 492 
2588 3540 2801 3235 2623 3013 1783 2421 1661 
2417 2208 2963 3098 2862 3529 2851 2262 3319 
3471 2096 3677 3822 2783 2106 1590 1681 2526 
2084 1626 2098 2840 2968 3413 2433 3636 2958 
4100 3362 2435 3707 2308 3844 3334 2825 1146 
2351 2383 1800 2959 2833 2975 2761 2506 3033 
3256 3099 2487 3315 3682 4002 3361 2455 2187 
2624 2684 2418 2378 3174 2448 3271 3060 3095 
3207 3378 3761 2930 3152 3165 2355 2932 2517 
2606 3464 2545 3215 2332 3734 2871 3187 3650 
2855 4051 2499 2747 2467 2616 2735 2809 2560 
2611 2689 2538 2675 1802 2806 1865 2443 2669 
2568 2339 2877 2533 1950 2596 2646 1382 2314 
2493 1991 2601 2041 2135 3193 1458 2483 2645 
2330 2556 2239 3469 3125 2597 3313 3847 2740 
1746 2613 3094 2746 3425 3391 3411 3851 3111 
3037 2929 4647 4255 2834 2291 2812 2767 2396 
3297 3027 3303 2516 3122 2795 3492 3221 3920 
2966 3325 2904 2661 2532 2510 1983 1414 1727 
1376 2276 2183 2368 2486 2120 2498 2673 3539 
2505 3286 3360 3346 2821 2015 1978 2765 2468 
2522 2953 2111 3079 2048 1866 2402 3249 2824 
2739 3553 3599 2808 2088 3078 3041 3522 1989 
1716 2964 3175 2423 2338 2515 2280 2415 3015 
2717 3699 2848 2659 3028 3721 2365 3572 3769 
2329 2173 2181 2298 2943 3024 3124 1737 2105 
2025 2450 1711 1817 2216 3828 3199 2896 3365 
2656 1378 2859 2429 2639 2610 3238 3789 2061 
1065 2886 1887 1773 2491 2385 2359 1700 3252 
2576 2389 2787 3451 2829 2805 2268 4089 3799 
3743 2142 2282 2177 722 3156 2816 2668 2708 
2363 3375 2387 3247 2858 2880 2231 2983 3614 
3345 3309 3000 3169 3260 2794 2399 1917 2151 
2103 2674 2457 3072 1781 3338 2581 3005 2477 
2168 2696 3388 1988 2916 2944 2182 2870 3040 
1942 3180 2694 2693 2838 2788 2984 1668 2600 
1264 2804 2333 1889 2736 2540 3772 3679 3143 
3418 2671 1840 2409 2846 3158 2687 2520 2432 
3211 3690 2534 2519 3208 2461 3090 3616 2895 
3306 3979 2440 2071 2745 2420 1965 2005 1987 
3924 2732 3542 3508 2241 1741 3336 2709 2370 
2322 2361 1531 3167 2757 3181 1658 2116 1803 
3063 2083 2579 2202 3185 2286 1539 2665 1924 
2935 3339 1896 2939 1667 3368 3445 3881 2544 
4075 2688 1969 2773 3258 2206 2082 2373 3029 
2482 1890 3250 3620 1916 2883 3548 3001 2995 
3100 3692 1723 2861 1431 1807 2875 1938 3455 
2772 2251 3039 2444 3892 1806 3150 3140 3466 
3746 4154 3157 1736 1200 1452 1815 1994 1877 
2207 2989 2678 2407 2922 3890 2897 2915 3767 
2894 1568 2521 1558 2786 1051 2950 3453 2704 
2263 2741 2484 2849 2130 2326 2595 2541 2737 
2820 2573 3012 2863 3214 2323 2536 2309 2481 
3326 3327 2567 3941 3545 2998 2603 2357 2978 
1786 2676 1545 3003 3189 2059 2405 2125 1985 
3129 3066 2986 3163 2699 2193 2192 2885 3569 
2614 3097 3075 3948 1732 1660 1689 1941 1900 
2220 2798 3257 1901 2749 2343 2835 2539 3333 
3498 1653 2422 2770 2881 2940 2814 3363 3316 
3858 2780 1805 3499 1735 1946 3149 3278 3506 
3633 2951 3757 3981 3877 3568 2488 3387 3694 
3023 2068 2473 2827 2677 3246 2572 3121 2899 
2169 2941 2344 2653 2912 3530 3007 2026 2079 
2077 2439 2424 2752 2070 2647 2222 2504 2325 
2306 2722 2356 1729 1909 1585 1825 1739 2564 
2476 2632 3574 2828 3016 2733 3470 3084 2830 
2630 2132 2657 2217 2969 3112 2164 2844 3179 
3071 3308 2738 2465 2393 2570 2642 2552 2971 
3161 2991 2500 1851 1820 2887 1039 2204 2404 
2865 1930 2724 2854 2313 3009 1857 2990 2337 
3109 2320 1646 2636 2503 1798 1956 2442 2725 
3196 2218 2249 3485 2382 2620 2524 3351 2931 
3602 3135 2817 3668 2584 1738 2638 1915 1621 
2682 2316 3054 2802 3273 3251 3439 2919 2797 
3486 3164 3305 2972 1797 2994 2253 3312 3666 
2462 2017 2934 2985 2011 3505 2763 3429 3842 
2615 3006 3390 3085 2604 2374 2785 3014 3874 
3552 2643 2701 1706 2799 3053 2592 2342 1409 
2587 3050 2413 2789 3700 2890 2471 3489 3448 
3480 3093 4309 3300 3702 3239 3047 2902 2923 
2352 2214 2274 1731 3234 2436 1947 2273 3373 
3337 2697 3213 3087 2803 3945 3827 4193 3991 
4077 2199 1465 1892 1204 2543 2480 2287 2447 
3105 1451 1799 2213 2201 2016 2608 2162 2961 
2908 2535 3403 4017 3123 3871 3419 3777 2792 
3835 2336 2702 2888 2230 2649 2029 2492 1894 
2137 3463 3398 2753 1918 2555 1854 2609 2723 
1974 3491 2463 3295 2884 2456 2175 2924 2321 
2751 236 1872 2288 3277 2625 3304 2045 2730 
3756 2233 3494 2925 3314 3329 3299 2186 1527 
1709 2281 2982 2654 2261 2933 2153 2655 1847 
2679 2437 3741 3760 1904 3074 3394 3352 2020 
2768 2019 2700 3432 2962 2227 2705 3151 3182 
1635 2898 1742 2495 2744 3138 3070 2605 2681 
2734 3178 3785 2853 3900 3660 4058 2174 2331 
1818 2602 2376 2578 3980 2315 2097 2715 3170 
2672 3546 2731 3737 3318 2800 3732 3307 2810 
2547 3232 2691 3280 3712 4228 2841 2525 2469 
3733 3190 2635 3803 3224 4108 3296 3968 3627 
3930 3017 2310 3045 2397 2502 1864 2729 2561 
3287 2184 3274 3225 2244 2496 2062 3893 3745 
2952 3065 2619 3559 2917 3626 3036 2089 2494 
2078 2727 3153 2644 3301 3219 3358 3330 3369 
3436 3836 2551 4041 2711 1473 2590 2580 2936 
2822 3202 2087 2882 2390 2703 2949 2311 2650 
3267 2874 2485 3091 3929 1601 2957 2784 2360 
3371 2627 2748 3145 3116 3818 2591 3367 2475 
3248 3736 3269 3901 3240 2188 2903 3270 2401 
2988 1784 2080 3292 2663 2831 3212 3397 2388 
2892 3119 3704 3290 3787 2766 2876 3603 2913 
2670 2948 3372 2706 2170 2631 2171 2107 2945 
3114 3747 2582 3034 3507 3495 3154 3454 2033 
2513 2942 2872 3400 2270 2593 2563 3460 2294 
3293 3081 3939 3937 3357 3059 3562 2791 3069 
3521 4505 2575 2586 2350 3201 3171 3266 3073 
3895 3263 4035 3565 3517 4194 3355 1034 3004 
2758 3442 3752 3684 3646 2489 3683 4096 3049 
2229 2369 2692 3561 3341 2255 3435 2085 3444 
2793 1520 2811 3823 3467 3843 3934 4087 4459 
2412 2778 2585 2909 3406 2144 3401 2246 2058 
2637 3268 3396 2479 3115 3884 3026 2028 2381 
2060 2662 3386 2002 2501 3172 3738 2266 3285 
3912 2856 1837 2937 3176 3120 2530 2574 3591 
3783 3320 3410 3759 3606 2970 3487 3089 3538 
3525 3581 3573 3641 2056 2131 2868 3630 3046 
4455 3807 3255 3718 3580 3509 3657 3532 2771 
3493 3288 2742 2836 3282 3804 4039 3118 2879 
3722 3446 3279 2718 3792 4166 3834 3703 4216 
2507 3056 4464 3958 4734 4267 3961 3331 3902 
3919 5177 3845 3639 2864 2634 4060 4618 4497 
3972 3607 4124 3404 3862 4367 3758 4168 4098 
4709 2891 3032 3790 3077 4129 3440 3148 3058 
3778 3654 4422 3276 4358 4392 5006 5163 4276 
4636 6024 3194 3723 3302 3405 4149 3632 3523 
3195 3985 3727 3547 3670 3977 4257 3147 4360 
4894 3472 2371 3433 3913 3831 3763 4139 4326 
2955 4388 3764 4310 3349 4286 4398 4318 4248 
3766 3618 3967 3379 4066 3735 4416 4642 4072 
4270 4918 4390 4738 5772 4818 4954 5312 4285 
5159 3768 3350 4439 3623 4211 3894 3800 3675 
2967 3711 3083 4375 4038 5535 4609 4027 4997 
3311 4415 2553 4661 4086 3537 3048 3500 3437 
3578 3708 3811 3868 3883 3717 4456 4395 4536 
4451 5032 4054 4424 5056 4200 3067 2189 4279 
4170 3478 2973 4188 4460 4251 5621 4418 4241 
4389 3662 3833 3450 2946 4637 4813 3715 4420 
4371 4169 4664 4463 5082 4580 4550 5157 3449 
2721 4000 3052 4480 3512 3516 4632 3993 3264 
4496 4284 4567 4543 4520 4225 3906 4581 2628 
2438 3186 4056 4475 3676 2832 3983 4521 4946 
4007 4705 4775 4361 4366 4136 4619 5340 4563 
2842 2907 3103 3188 3527 3794 3907 4742 2980 
4993 4797 3771 4093 4150 4648 4321 4838 4707 
4777 4449 3751 3898 3226 3353 4317 2648 3806 
3714 4198 3412 5425 3347 3990 4161 4202 4290 
3853 4519 4003 4783 4453 4539 4113 3096 3370 
3534 4559 4068 2976 3298 2777 4012 3674 5112 
3995 3923 5126 4696 2867 3774 3556 3528 4240 
3943 4413 3477 3615 3476 3826 3753 3482 4891 
3642 3409 4065 3754 4646 4001 4957 4071 4409 
3462 3813 3594 3415 3317 3518 4403 3231 4130 
4560 3126 3908 5739 2354 3651 3166 3931 4504 
3101 3634 3468 3242 3459 3963 3956 4175 3328 
3809 4745 2857 2927 3020 4259 3829 3624 4019 
3344 3773 3681 4700 4205 3376 3821 4924 4523 
3992 4405 4980 3457 3183 3848 3402 4537 3974 
4134 4064 3672 3640 3987 3323 3204 4466 4328 
3944 4809 4458 3294 4914 3423 3695 3244 3259 
2698 3730 3897 4525 4291 4387 3951 3253 3988 
4127 4440 3281 3817 4110 4876 3998 4376 3590 
2954 3825 3504 2726 4232 4253 3705 4120 3011 
3861 4374 4600 4870 4729 3434 5367 4517 3971 
5759 3849 3557 2769 2860 3706 3392 3092 4545 
4359 3377 3474 4242 3526 3814 4793 3784 4171 
5038 4324 3227 4281 2558 3655 3788 4575 4490 
4268 3611 3921 4699 3571 4590 2664 4444 4833 
4806 4448 3860 4485 4406 4635 3427 4306 3649 
4133 4597 4046 4754 3886 4477 4970 5026 4971 
5688 3882 3222 3422 3973 4103 3819 4084 4979 
3035 4340 3275 5458 4263 4230 3596 3563 2993 
3136 3237 3236 3399 3926 3191 4099 3652 3856 
4031 4184 4189 4393 3959 4025 4650 5108 4011 
2683 2819 3748 3927 3952 4125 2823 3108 4688 
4872 3577 4117 3481 5875 2617 2914 3229 3638 
2707 3685 3644 4262 3598 3139 3055 3698 4142 
4572 3940 4518 5404 4483 2293 3107 3272 3428 
3030 3837 3424 4753 4506 3127 3586 4109 4566 
4061 3490 4629 2947 2571 3549 3925 3810 4237 
3484 3550 3241 4570 4295 3104 4731 4937 4839 
4923 4454 3408 3393 4112 3356 3622 3786 3744 
4105 3592 4315 3473 4095 3742 5827 3612 4681 
2850 3935 3431 3762 4335 3859 3588 3891 3200 
4245 2419 3628 4585 3984 4233 4069 3324 4394 
4207 4465 4617 5247 5179 4443 4958 5076 4016 
5170 5301 3864 3936 3061 4402 4429 4349 3452 
3888 4778 5139 4462 5110 2928 3230 3243 3558 
3283 3044 4434 4528 4555 3496 4554 5510 4501 
4568 3456 4484 3665 3855 4128 3210 4156 3970 
4438 3824 3414 3458 3873 5066 3978 4608 2358 
2756 3022 3663 4217 2760 4114 3946 3332 4246 
3220 4261 4494 3910 5033 3113 4684 2599 3796 
2807 3197 2965 3205 3576 4024 3609 3867 3502 
3443 4386 4008 3989 3659 3838 4645 4435 4010 
3617 2815 2920 2997 3501 3680 3619 4020 3613 
3128 3689 4468 4090 3863 4239 4594 3820 3648 
4029 3374 5259 2926 2893 3601 3544 3198 3130 
4176 2974 3184 3144 4772 3830 4419 3922 4236 
4825 4365 3673 4165 3117 4083 3018 4531 4899 
3608 3687 3380 4235 2755 4327 4452 4344 4298 
4397 3887 3776 3088 3582 3795 3146 4053 4573 
3872 2979 3953 3755 4714 4045 2906 3177 3560 
3584 3366 4878 5626 4081 4137 3686 4203 3479 
3850 4062 3513 3750 4369 5001 4028 4331 3905 