# vtk DataFile Version 4.2
Generated by LIGGGHTS
ASCII
DATASET POLYDATA
POINTS 5999 float
-0.0175873 -0.0414091 0.0119456 -0.013798 -0.0427236 0.011987 -0.00979394 -0.0428428 0.0120221 
-0.0062033 -0.0445671 0.0116499 -0.00222537 -0.0440051 0.0119192 -0.0065164 -0.0405525 0.0121698 
-0.00277028 -0.0403764 0.0135799 0.00168356 -0.0449481 0.0118875 0.00901544 -0.0440486 0.0120735 
0.0051547 -0.0429703 0.0121393 0.00225487 -0.0401619 0.0121385 0.01534 -0.0420648 0.0122438 
-0.0305886 -0.033011 0.0119611 -0.0246442 -0.0376183 0.0120281 -0.0211936 -0.0396627 0.0119803 
-0.0212212 -0.0311972 0.0121964 -0.0211053 -0.035287 0.0120128 -0.0246255 -0.0333234 0.0119457 
-0.0277041 -0.0354224 0.0134523 -0.0140565 -0.0311401 0.0120102 -0.0143004 -0.0352986 0.0119197 
-0.0177104 -0.033167 0.0120508 -0.0116186 -0.0392475 0.0120063 -0.0177058 -0.0374019 0.0120516 
-0.0100497 -0.0319991 0.0123379 -0.00828186 -0.0369396 0.0121092 -0.00608027 -0.0310756 0.0120172 
-0.00214908 -0.0303749 0.0123669 -0.00356594 -0.0340613 0.0130674 -0.000575996 -0.037199 0.0125255 
0.00753636 -0.0353436 0.0120734 0.00656985 -0.0392287 0.012126 0.00852535 -0.0314592 0.0122768 
0.00347155 -0.0363465 0.0121765 0.000513414 -0.0333466 0.01268 0.00452635 -0.0324754 0.012438 
0.0105566 -0.0395726 0.0121368 0.0144203 -0.0368876 0.0121607 0.0186496 -0.0388578 0.0121305 
0.0170658 -0.031059 0.0122315 0.0113828 -0.0342562 0.0123786 0.0181287 -0.0349068 0.0125696 
0.0130702 -0.0305504 0.0123904 0.0260158 -0.036722 0.0122461 0.0221287 -0.0349248 0.0122572 
0.0291383 -0.0342148 0.0122496 0.0210932 -0.031037 0.0124068 0.0284938 -0.0300517 0.0122814 
0.0226477 -0.0388911 0.0122493 0.0253477 -0.0325275 0.012443 0.0319367 -0.0316709 0.0135561 
-0.0327721 -0.0295342 0.0119992 -0.0398017 -0.0209885 0.0120136 -0.0324392 -0.0220082 0.0122396 
-0.0363503 -0.023049 0.0122375 -0.0358848 -0.0270363 0.0124248 -0.0299285 -0.0255931 0.0120713 
-0.0287241 -0.0294134 0.0119775 -0.021299 -0.027193 0.0119544 -0.0283392 -0.0219004 0.0120821 
-0.0254817 -0.0252677 0.0121126 -0.0220004 -0.0232535 0.012224 -0.024733 -0.0292325 0.0122272 
-0.024672 -0.020272 0.0122448 -0.017663 -0.0291618 0.0120485 -0.0185535 -0.0211698 0.0121328 
-0.0137058 -0.025749 0.0120953 -0.0178556 -0.0251555 0.0121183 -0.014611 -0.021818 0.0124046 
-0.0107625 -0.0202106 0.0123343 -0.0118617 -0.0285926 0.0142389 -0.0099211 -0.0241217 0.0120982 
-0.00380766 -0.0237079 0.012114 -0.00856136 -0.0279339 0.0120768 -0.000984138 -0.0265484 0.0122476 
-0.00681345 -0.020912 0.0124239 -0.00475449 -0.0274554 0.0132466 6.34275e-05 -0.0226825 0.0121648 
0.00400323 -0.0218512 0.0121063 0.00566604 -0.0286271 0.0121386 0.00680361 -0.0247175 0.0121408 
0.00959391 -0.0275825 0.0122661 0.00292837 -0.0257097 0.0121634 0.00177289 -0.0295423 0.0122639 
0.0141995 -0.0248867 0.012164 0.0175657 -0.0270875 0.0121227 0.0168879 -0.0219077 0.0122143 
0.0129682 -0.0210763 0.0122737 0.0104202 -0.0239184 0.0136796 0.020311 -0.0241622 0.0120464 
0.0244382 -0.0237319 0.0121247 0.0227209 -0.0273693 0.0122235 0.0276604 -0.0210816 0.0123983 
0.0267581 -0.0266957 0.0136327 0.0302626 -0.0240905 0.0128664 0.0380664 -0.0238501 0.0121238 
0.0357784 -0.0272909 0.0125711 0.0317959 -0.0277702 0.0125011 0.0341226 -0.0230254 0.0126333 
0.0368538 -0.0200316 0.0126127 -0.0428963 -0.0109289 0.0122125 -0.0422557 -0.0153633 0.012916 
-0.0387433 -0.0171023 0.0121064 -0.0316512 -0.0146857 0.0120724 -0.0304881 -0.0185159 0.0121349 
-0.0356564 -0.014556 0.0121673 -0.0352975 -0.019142 0.0123684 -0.0392783 -0.0127498 0.0122829 
-0.0335332 -0.011164 0.0123108 -0.0245529 -0.0106396 0.0120315 -0.0278651 -0.0130746 0.0122337 
-0.0234644 -0.0147935 0.0122339 -0.0268389 -0.0169227 0.0126471 -0.0212441 -0.0182734 0.0127839 
-0.0121183 -0.0164449 0.0121342 -0.011933 -0.0123724 0.0122256 -0.0194588 -0.0147227 0.0123135 
-0.0159874 -0.0178989 0.0123482 -0.0183603 -0.0108748 0.0123757 -0.0155638 -0.0139436 0.0128269 
-0.00439902 -0.0132786 0.0121144 -0.00696507 -0.0102051 0.0121174 -0.00150944 -0.0160437 0.012244 
-0.00831948 -0.0140869 0.0121589 -0.00565251 -0.0170811 0.0123903 -0.00275789 -0.0198557 0.0123896 
-0.000994029 -0.0125184 0.0140713 0.00530854 -0.018071 0.0121787 0.00939238 -0.0150587 0.0121366 
0.0025473 -0.0127246 0.0121879 0.00605538 -0.0107927 0.0121607 0.00949023 -0.0190597 0.0121969 
0.00136369 -0.0188346 0.0122345 0.00579459 -0.01444 0.0137857 0.0171281 -0.0131657 0.0120644 
0.01296 -0.0170645 0.0122239 0.0127552 -0.0125819 0.0121651 0.0169306 -0.017249 0.0126762 
0.0192378 -0.01045 0.0142374 0.0201443 -0.0195829 0.0121345 0.0278459 -0.0130915 0.0121419 
0.0204616 -0.0154307 0.0121593 0.022445 -0.0117621 0.0122198 0.0279943 -0.0170882 0.0122461 
0.0244531 -0.0152329 0.0123827 0.0241081 -0.0192256 0.0125367 0.0318493 -0.0197288 0.0126475 
0.0352526 -0.0133069 0.0121705 0.0314529 -0.0149768 0.0120894 0.0394844 -0.0120836 0.0124222 
0.0382933 -0.0159008 0.0126477 0.0326608 -0.010484 0.0134389 0.034547 -0.016947 0.0136979 
0.0422462 -0.015242 0.0121656 0.0434018 -0.0110304 0.0124052 0.0407353 -0.0190663 0.0123001 
-0.0406895 -0.0075573 0.0121647 -0.0407839 -0.00331683 0.0122194 -0.0446004 -0.00596451 0.0125222 
-0.044429 -0.00169972 0.0129267 -0.0369786 -0.00530168 0.0120434 -0.0371865 -0.000304684 0.0120065 
-0.0370819 -0.00932058 0.0121562 -0.0315569 -0.00597012 0.012186 -0.0322132 -0.00184389 0.0126496 
-0.0298506 -0.00959462 0.0121326 -0.0275745 -0.00629878 0.0123626 -0.0209806 -0.00784033 0.0123033 
-0.0282392 -0.002349 0.0123176 -0.0229088 -0.00431504 0.0122829 -0.0106332 -0.00858049 0.0120982 
-0.019398 -0.00230793 0.0122875 -0.0147504 -0.00912638 0.012284 -0.015407 -0.00199519 0.0123718 
-0.0132676 -0.00537508 0.012425 -0.0172165 -0.0055813 0.013046 -0.0116313 -0.000642017 0.0124897 
-0.00277297 -0.00954774 0.0120533 -0.00598782 -0.00628574 0.0121544 -0.00384312 -0.00290598 0.0122465 
-0.00767943 -0.00176787 0.0124306 -0.000796117 -0.00548225 0.0126158 -0.00948861 -0.00509835 0.01371 
0.00319046 -0.00548274 0.012191 0.00700064 -0.00690544 0.0121708 0.00120291 -0.0089539 0.0122192 
0.00522442 -0.000582076 0.0122761 0.00135691 -0.00187569 0.0122734 0.00941165 -0.00174246 0.0142404 
0.00989656 -0.00967754 0.0121106 0.01343 -0.00780142 0.0120701 0.0105409 -0.0049978 0.0121654 
0.0174218 -0.00753514 0.0121779 0.014548 -0.00396148 0.0122014 0.018578 -0.00368283 0.0121416 
0.0126787 -0.000405587 0.0123495 0.0165119 -0.000520888 0.0134912 0.0248299 -0.0085435 0.0121458 
0.028602 -0.000301714 0.012133 0.0279458 -0.00537607 0.0122383 0.0213529 -0.00656208 0.0122387 
0.0251973 -0.00240975 0.0123842 0.0287102 -0.00926029 0.0129003 0.0317572 -0.00678852 0.0121098 
0.0349533 -0.00437134 0.0121328 0.0370282 -0.00838239 0.0120524 0.0341697 -0.000241995 0.012337 
0.0379324 -0.00167228 0.0122145 0.0314053 -0.00301184 0.0133857 0.0449117 -0.00234839 0.0123576 
0.0412172 -0.00407269 0.012299 0.044507 -0.00634823 0.0126022 0.0408761 -0.0079767 0.013103 
0.0416106 -8.58482e-05 0.0124832 -0.0445283 0.00626182 0.0120069 -0.0412241 0.000694081 0.012405 
-0.0449125 0.00227671 0.0122475 -0.0411038 0.00437013 0.0140065 -0.0387516 0.00746076 0.0119576 
-0.037288 0.0037363 0.0121192 -0.0337741 0.00181987 0.0120818 -0.0337014 0.00582754 0.0120922 
-0.0353209 0.00952725 0.0120063 -0.0314371 0.00913068 0.0130916 -0.0298014 0.00133343 0.0121331 
-0.0235722 0.00903083 0.012184 -0.0275591 0.00868247 0.0122189 -0.021229 0.00540695 0.0121468 
-0.0252743 0.00539289 0.0121498 -0.0208925 0.0014042 0.0121597 -0.0252296 0.000284184 0.0125478 
-0.0297636 0.00531401 0.0126318 -0.0147334 0.00194279 0.0121342 -0.0172664 0.00595675 0.0120754 
-0.0195737 0.00927297 0.0122143 -0.0100771 0.00305762 0.0121685 -0.0131688 0.00564158 0.0122888 
-0.0125559 0.00962869 0.012252 -0.00541464 0.00612651 0.0121301 -0.00124352 0.00471376 0.0121692 
-0.00618153 0.00193619 0.0121503 -0.00016881 0.00898686 0.012153 -0.00229139 0.000819452 0.0122169 
-0.00940275 0.00700027 0.0122368 0.00592916 0.00389212 0.0121911 0.00199664 0.00209125 0.0123629 
0.00255878 0.0060598 0.0122365 0.00932057 0.00177608 0.0123312 0.00666922 0.00783341 0.0121997 
0.0188334 0.00248383 0.0121868 0.0180327 0.00649951 0.0122081 0.0143036 0.0079584 0.012396 
0.0114465 0.00515505 0.0125996 0.0104379 0.00902252 0.012817 0.0148531 0.0030756 0.0128782 
0.022301 0.000350169 0.0124054 0.0223938 0.00435379 0.0123512 0.0216521 0.00828742 0.0122609 
0.0255559 0.00680481 0.0123805 0.0261143 0.00282456 0.0124953 0.0290584 0.00833476 0.0136305 
0.0300711 0.00343642 0.0123234 0.0380656 0.00235812 0.0122491 0.0365383 0.00606122 0.0122793 
0.0325905 0.00696014 0.0123196 0.0339223 0.0035235 0.0139471 0.0445314 0.00635074 0.0122106 
0.0448932 0.00235482 0.0122172 0.0405314 0.00631912 0.0123175 -0.0426732 0.0140845 0.0121292 
-0.0437996 0.0102104 0.0120969 -0.0414053 0.0176145 0.0135198 -0.0397594 0.011343 0.0119535 
-0.0377198 0.017152 0.0120341 -0.0321215 0.0129368 0.012062 -0.0363014 0.0134073 0.0120779 
-0.0338328 0.0164919 0.0127749 -0.0298764 0.0164265 0.0121769 -0.0258606 0.0164457 0.012147 
-0.0218619 0.0165677 0.012263 -0.0237514 0.0130252 0.0123276 -0.0277485 0.0128421 0.0124027 
-0.027833 0.0199651 0.0121769 -0.0198671 0.0198199 0.0141041 -0.0159907 0.011689 0.0121735 
-0.017871 0.0168379 0.012336 -0.0151442 0.0197673 0.0122629 -0.0113275 0.0184988 0.0122557 
-0.0140737 0.0155832 0.0122549 -0.0104925 0.0138137 0.0125496 -0.01965 0.013249 0.0126512 
-0.00399385 0.0101646 0.0120864 -0.00104545 0.0128935 0.0120742 -0.00796199 0.0107337 0.0122159 
-0.00774257 0.0166944 0.0121328 -0.0025937 0.0181514 0.0121629 -0.00494438 0.0139641 0.0130636 
0.000986696 0.0163492 0.0121566 0.00375908 0.0192422 0.0122637 0.00430626 0.014114 0.0122025 
0.00757427 0.0117665 0.0122756 0.00356057 0.0102476 0.0129491 0.00714087 0.017075 0.0127 
0.010723 0.0192217 0.0122017 0.0181701 0.0192267 0.0120637 0.0165469 0.014089 0.0121424 
0.0144479 0.017735 0.0121721 0.0103804 0.0146545 0.0122621 0.0132383 0.0118358 0.0122961 
[...]
POINT_DATA 5999
FIELD FieldData 7
id 1 5999 int
544 514 482 144 333 828 27 856 1092 
1037 589 307 1045 924 862 520 97 120 
598 379 135 145 107 52 228 53 263 
1095 426 158 336 408 706 476 1008 501 
203 246 230 992 41 404 364 245 247 
760 608 397 690 46 154 966 1316 274 
440 557 115 434 378 1019 623 816 874 
344 63 294 669 946 724 502 302 11 
546 704 424 1015 199 174 504 952 469 
365 684 776 276 114 8 149 758 1042 
310 614 876 54 112 516 509 401 210 
350 861 136 348 57 1107 437 787 349 
659 360 650 281 131 550 664 374 84 
311 345 487 429 175 42 99 113 296 
815 616 168 205 66 293 1126 1338 1144 
317 1494 875 1083 396 117 39 848 1077 
256 630 528 231 461 1035 962 788 523 
86 142 423 372 1214 1262 853 1503 134 
417 686 802 163 783 126 1096 20 731 
447 485 906 354 1071 1269 221 821 58 
612 584 1101 903 1105 931 1460 342 445 
441 427 1481 489 1486 627 1027 710 1142 
305 967 900 322 784 410 73 393 935 
421 1161 48 1032 108 458 128 241 914 
418 367 604 1014 292 105 673 1516 12 
224 755 857 766 813 558 781 5 16 
463 1128 23 971 352 1254 998 229 77 
594 206 78 563 1277 346 170 763 1106 
886 273 193 498 375 560 734 384 127 
517 1478 81 432 286 473 320 712 380 
88 1197 1073 155 313 1613 341 182 847 
745 1066 586 954 949 387 1024 1072 657 
535 915 214 592 836 165 244 394 298 
436 519 287 868 334 691 721 640 631 
191 996 64 260 98 671 79 579 225 
80 3 1040 266 356 75 337 576 910 
159 944 524 522 103 1124 347 316 361 
197 212 21 104 288 1016 1097 736 1220 
146 660 91 556 839 715 425 880 1745 
160 121 290 76 521 926 152 332 628 
28 569 406 177 478 748 1611 235 929 
312 1103 1368 428 226 116 227 799 928 
1084 705 220 1899 582 255 851 513 304 
96 388 1134 118 629 409 133 1703 181 
259 1484 299 642 264 140 15 1117 636 
45 6 529 173 289 769 213 916 507 
327 129 475 1025 141 899 497 207 904 
111 395 530 701 422 217 1489 268 215 
477 124 474 532 162 909 735 1790 780 
414 161 454 625 218 866 40 1461 328 
882 2618 1 877 18 455 250 122 885 
1323 67 995 1765 178 26 901 495 430 
1119 1350 531 864 2254 19 1213 1433 1044 
1171 505 200 100 680 1270 254 1098 390 
282 1477 997 1392 969 1957 551 450 153 
271 407 1328 1575 1828 1164 1620 647 1995 
1861 795 566 1326 2364 1079 2621 257 242 
464 194 515 209 10 1286 981 1650 1834 
452 1299 1289 1589 1846 65 1774 1690 1602 
1882 1705 219 773 138 185 83 596 400 
233 1446 665 892 2165 772 1232 2065 883 
1498 1878 1999 1718 777 907 567 109 338 
1033 391 1632 1067 696 1580 707 1471 1677 
1411 1688 605 968 47 1358 1387 1792 1284 
1434 852 1608 147 1543 1850 1421 1169 1251 
449 340 1485 1678 512 675 285 764 1280 
443 580 750 1188 323 1013 2027 889 411 
662 1341 1187 1186 33 713 94 1005 488 
198 1162 183 548 1563 493 574 1416 1017 
279 1275 1058 1785 1476 1506 402 119 49 
1043 953 1639 1463 1836 2042 744 2067 1026 
2300 2781 2347 1166 1028 1418 711 1640 55 
818 1331 1242 1023 1605 1059 1647 905 1843 
1734 1768 1538 2150 1943 371 1676 633 1285 
1179 1754 534 1789 2285 1855 2292 1159 1283 
1210 1944 2092 1883 2191 918 641 937 102 
392 2221 1697 943 1862 1074 1609 2109 1274 
938 1550 1170 1691 2345 1176 1036 844 858 
1412 2136 442 1217 1191 1491 785 69 1468 
1365 872 2296 1182 1258 2161 248 267 382 
22 779 1114 90 689 643 617 652 471 
800 1652 902 1047 1962 1224 2053 1403 413 
1057 249 921 2328 1327 1178 1829 506 223 
803 703 525 741 639 824 1113 578 1389 
1064 1398 961 319 1592 1265 1680 2228 68 
1537 125 243 533 1325 668 854 1407 977 
963 1683 2129 1345 1844 1561 655 1354 106 
1955 2066 1848 674 1208 1623 697 1722 1055 
1448 7 9 1672 832 2047 1749 1687 1594 
2209 2113 1562 2304 190 951 201 964 808 
403 747 990 986 179 1525 888 1201 1597 
1555 2490 1587 2093 1595 1814 38 980 718 
1152 1482 994 1404 1174 2128 1012 1684 1644 
1572 1240 1753 1701 1076 1061 211 1203 353 
1185 833 622 1177 1497 1710 726 270 1377 
1960 1913 1628 1852 1413 1183 1979 1272 2091 
1763 1288 291 819 859 635 1508 1931 1330 
240 1383 1369 1406 987 1199 2312 1223 611 
1256 1552 806 2277 123 1775 43 679 927 
658 1319 1132 834 1243 518 2278 1767 1308 
1347 1417 1811 1685 1493 314 590 1180 739 
754 1276 252 805 1355 692 139 1372 1222 
749 1324 894 1948 985 653 2205 1584 1123 
399 615 562 1212 1961 898 1118 222 1679 
835 1385 1329 1860 1250 1505 1835 1215 72 
1359 1772 1333 92 1233 1830 826 654 202 
767 613 25 1196 941 318 881 1500 978 
2014 2194 2348 863 1318 884 1443 496 369 
619 1231 1235 1310 1429 2307 1548 1472 694 
2299 1317 581 1109 1127 545 1130 727 1133 
278 1295 1618 508 376 1622 1099 1822 1081 
1536 1374 661 351 1380 1513 543 500 1586 
1140 1509 831 869 2104 1003 575 1839 491 
1356 1091 1263 2021 1479 1340 2297 1588 1088 
1569 695 830 1728 1876 1428 1366 1030 1125 
1964 479 1529 483 2038 1425 1809 1634 1049 
865 1692 855 537 1202 1674 1281 1444 1845 
1181 893 1630 1967 812 1279 1492 714 1348 
2159 770 2240 896 389 1120 1100 1145 1060 
1886 1982 1399 1702 1925 2346 959 1332 1921 
1573 2210 2395 933 842 137 751 1945 1914 
1041 1517 1577 1935 1137 1151 693 796 870 
1011 1557 1006 879 2043 1624 2451 2036 1104 
1009 756 24 1334 511 1228 1038 1221 873 
1353 1122 1719 2200 1002 1940 2037 1351 775 
610 890 1111 1744 982 983 110 1225 1842 
1357 585 2453 2024 2537 789 330 607 702 
499 920 1567 1131 1522 1928 1362 2362 794 
1158 2001 2139 1804 1435 1252 1496 2379 462 
667 682 1512 677 280 1871 2018 1907 843 
237 947 29 743 1975 1615 1455 1361 1821 
845 526 840 1300 1395 300 355 1226 878 
942 1480 728 838 717 1260 1720 1787 1342 
1541 2335 370 1168 1238 309 792 587 1320 
1148 570 381 1305 1518 606 761 1895 1750 
1593 678 297 719 189 362 1054 188 1089 
431 148 565 1707 555 1381 814 1046 1129 
549 934 956 171 975 527 730 368 1831 
1796 1010 1487 1139 723 993 1445 253 31 
1306 1031 1063 2264 2074 2400 377 1426 564 
984 1778 503 1112 1977 1400 1812 1391 1291 
187 1080 1149 1297 1450 1673 1301 2651 2269 
1524 295 1294 101 716 919 1439 1576 922 
632 2248 232 817 1370 366 2237 2319 2176 
1110 742 265 239 1018 1090 1523 867 167 
1078 1052 2279 2242 1312 1352 1553 1499 1675 
2260 1910 1007 303 988 827 32 419 588 
778 1344 700 1255 1884 1936 1826 1870 1556 
1714 2398 2034 1997 1419 1337 331 1193 572 
70 1086 1490 1335 1430 1394 2114 737 1972 
1879 733 459 1462 1339 2012 2133 1367 1237 
301 36 1020 746 1153 453 676 420 911 
2452 1540 1546 1721 1154 1664 82 1314 1766 
326 216 974 180 1150 541 1085 1311 930 
484 979 809 87 315 164 568 1535 822 
1743 1402 553 932 1302 646 283 186 955 
130 648 958 609 1976 1021 1682 192 940 
708 2115 2148 1469 1082 480 448 626 765 
238 1321 554 1069 405 561 74 150 887 
1236 358 1230 1115 2375 1583 50 1271 1384 
481 1207 1056 1963 656 51 573 2 849 
1135 13 740 60 1566 1532 620 1984 1247 
1029 1379 1849 2152 923 412 600 688 891 
1022 1343 841 1604 1459 435 559 1560 2010 
2225 2446 2318 2134 2750 2660 2223 93 472 
357 771 1346 925 439 1349 1617 790 1449 
1726 1257 2406 71 1048 1373 1551 258 1442 
1004 62 603 1819 1001 1897 325 774 644 
1102 470 2910 948 1971 1248 791 957 1246 
683 793 618 1309 1156 284 1625 681 1510 
1669 1934 2203 2039 1841 386 599 272 35 
277 251 725 1436 373 685 846 698 1859 
416 2158 456 2090 960 2272 709 976 1227 
638 738 1670 820 583 547 1695 1582 965 
752 1424 2035 1467 2219 1163 637 1565 329 
95 571 1205 850 34 85 804 1273 1267 
363 1423 1261 17 2198 972 1121 991 1655 
151 1959 1388 1053 1136 306 61 383 1165 
1296 1875 169 1873 2460 1764 468 1867 1116 
2629 2243 1725 339 275 798 14 89 1287 
196 1534 624 1172 2055 2049 2764 308 1755 
2030 1760 1923 1932 2023 204 1298 1571 1641 
2007 1160 1868 1167 1410 1475 1303 4 2051 
2127 2284 1795 2403 597 2211 973 166 1068 
811 591 649 184 538 2146 1000 486 261 
1631 1514 1195 917 1610 2474 1401 30 321 
666 324 438 1504 1108 1542 645 490 1651 
759 1591 577 1645 1724 176 1627 651 1453 
1050 433 195 415 143 59 157 1249 801 
466 1336 359 1713 989 1708 2110 786 1752 
1307 132 234 999 1173 1147 593 1495 1266 
1530 908 1290 552 729 510 56 269 762 
156 670 1364 1239 451 621 1209 542 1816 
1390 1980 2081 2384 1922 1657 2327 1211 829 
343 446 1189 768 1570 1143 1579 1856 2690 
1717 2680 2122 2843 2554 913 602 3284 1245 
2196 2641 2046 2257 3086 2100 3465 2528 2999 
2911 2938 3002 1386 601 2289 1638 1259 1598 
3160 2845 3808 3564 2713 3025 3155 2633 1906 
2720 2686 1777 1278 2349 2508 2918 797 2073 
1194 1564 1869 699 2195 782 2247 2303 1581 
2847 2102 2250 2512 2977 492 3540 2588 2464 
1547 2275 3348 2245 1603 2987 3013 2421 1783 
2417 1661 2208 2963 3098 2862 3529 2341 2851 
2157 1649 2527 2612 2121 2106 2526 1681 2084 
1590 1626 2098 2840 2433 3413 2968 3636 2958 
2435 2031 1175 457 1420 1488 2003 2825 1146 
2383 2351 1800 2959 1414 2833 2975 2761 2506 
3033 1614 1533 2472 2455 2187 2684 2624 3174 
2418 3271 2378 2448 3207 3060 3095 1519 1981 
3008 2377 2075 2355 2932 2517 2606 3464 2545 
3215 3734 2871 3187 3650 2855 1756 2295 2735 
2332 2416 687 1952 2044 1937 465 2611 2560 
2689 2538 2675 1802 2806 2443 1865 2669 1949 
1733 2143 1771 2391 2646 1382 2314 2493 2601 
1991 2041 2135 1458 3193 2483 2645 2239 2330 
2145 1633 1470 2185 1779 2869 2008 2746 2613 
1746 3094 3425 3411 3391 3851 3111 1696 1437 
2427 2305 2009 2291 2812 1619 2767 3027 2396 
3297 3303 2516 3122 2795 1908 970 1654 2470 
3082 2532 2510 2661 1983 1376 2276 1727 2486 
2368 2183 2498 3286 3539 1456 1483 1919 1953 
1686 2511 2015 1978 2468 2522 2765 2111 2953 
3079 2048 1866 2402 3249 2824 3553 2808 1659 
1780 540 1699 2408 1693 2562 1989 2964 1716 
3175 2338 2423 2515 2415 2280 3015 2717 2848 
1954 2013 37 2329 2173 2181 2298 3024 2943 
3124 1737 2105 2450 2025 1817 1711 2776 1093 
2271 1378 2429 2859 2639 2610 2743 1968 1184 
2004 1858 2667 1607 2061 2886 1887 1065 1773 
2491 2385 1700 2359 2576 2389 3252 3451 2557 
2779 2430 2226 2057 2177 2142 2282 722 3156 
2151 2816 2363 2708 2668 3375 2387 3247 2880 
2858 2714 2006 1662 1794 3173 2794 2399 2103 
2674 2457 3072 3338 1781 2728 1881 807 1155 
1253 1408 2190 1636 1988 2916 2182 2944 2870 
3040 1942 3180 1070 1966 939 1671 1668 2600 
1264 2804 2333 2120 1889 2736 1141 2050 1840 
2594 1405 2666 2549 1824 2671 2409 2520 3158 
2846 2687 2432 3211 3690 2534 2519 3208 2301 
2652 1087 2317 2179 2440 2071 2745 2420 1965 
2005 1987 1958 1642 2426 1663 1219 1198 2370 
2709 2322 2361 1531 1293 1905 2565 1863 1658 
2116 2579 2083 3063 2202 3185 1397 1893 2366 
1730 1805 2665 1539 1924 2935 3339 2939 1896 
3445 3368 1667 1759 1776 2774 2163 1969 2141 
2688 2773 3258 2206 2373 2082 2482 3029 1890 
3250 2787 3620 3548 2883 1268 2548 1902 2796 
1793 2712 1723 2861 2875 1807 3455 2444 2251 
2772 3039 1916 3892 3150 1643 1363 1396 1917 
1993 1452 1736 1200 1815 1994 1877 2678 2989 
2407 2922 1315 2478 1507 2172 2577 1704 2392 
1568 2521 1051 1558 2786 2950 2207 3453 2741 
1888 1454 1216 1927 2531 1637 2130 2112 2326 
2595 2573 2737 2820 3012 2676 2863 3214 2323 
2536 2309 2481 1838 1206 1694 2449 2607 2215 
2357 2603 1786 2978 1545 3003 3189 2059 2405 
2204 1985 1094 1447 2256 1833 1920 2118 2193 
2192 2885 2125 3569 1629 753 2086 1832 2584 
1660 1732 1689 1941 2699 1900 2220 2798 3257 
1901 2749 2343 536 172 1813 2466 1653 1803 
2422 2770 2940 2814 2881 3363 1616 2431 2290 
3499 1735 1946 3149 3506 3278 3633 3757 2951 
2052 860 2852 1769 1440 2488 3387 2232 1502 
2441 1885 1762 1990 2068 2473 1431 2827 1938 
2677 3246 2572 3121 2899 2169 2941 2344 2653 
2258 2154 1992 871 1808 2762 2026 2079 2077 
2439 2424 2752 2647 2070 2222 2504 2325 2306 
2849 2716 2425 2546 2140 945 1600 1909 1729 
2356 1825 1585 1739 2564 2632 3574 2476 3112 
2828 2589 2458 1599 1292 2830 2094 2630 2132 
2217 2969 2657 2164 2844 3071 3179 3308 2465 
2393 2738 2570 1578 1521 1466 1970 1432 2124 
2095 2500 1646 1851 1820 2649 1039 2887 2404 
2865 1930 2724 2854 2313 1501 1304 1360 1648 
1549 2636 2503 1798 1956 2442 2725 2218 3196 
2249 3485 2382 3009 2620 2524 1244 1911 1515 
1933 2459 1738 2638 1621 1915 2682 2316 3054 
2802 3273 3439 757 2072 1528 1761 1810 1797 
2994 2253 1874 2445 2462 2017 2985 2934 2011 
2615 3006 2604 3085 3390 2374 2785 2839 2414 
1526 2529 1656 2799 3053 2701 2592 1706 2342 
1409 2587 3050 2789 2413 3700 2890 2471 3213 
3489 3448 3093 1998 672 2367 2123 2386 2178 
3047 2902 2923 2352 2214 2274 1731 2436 1947 
2480 2273 3373 3337 2697 3087 1574 1218 2238 
1740 2759 2199 1465 1892 1204 2543 2184 2108 
1898 2658 1747 950 2167 2287 2447 1451 3105 
1799 2213 2201 2016 2961 2608 2162 2908 2535 
3403 1241 1415 1229 2324 1473 2336 2888 2702 
2230 2029 1894 2492 3398 2753 2137 3463 1918 
2555 1854 2609 2156 1190 1880 1075 2340 2175 
2924 2456 2321 2751 236 1872 2288 2625 3277 
3304 2045 2730 3756 3494 2233 539 810 1511 
1559 1666 1457 2076 2186 1527 1709 2768 2281 
2261 2982 2654 2655 3251 2153 2933 1847 3432 
1441 1138 2020 2019 2700 2227 2962 1827 2598 
1234 1192 2212 1427 1635 2898 1742 2495 2744 
3138 3070 2734 2605 2681 1665 1748 2622 2265 
2626 1818 2174 2331 2602 3307 2376 2578 3234 
2315 3980 2097 2715 2672 3170 4228 2119 2837 
2259 2283 2160 3031 1853 2900 1939 2810 2547 
3232 2691 3280 3712 2841 2525 2469 3733 3190 
2635 2101 2155 2022 1801 1596 2310 2397 1864 
3045 2502 3017 2729 2561 3287 2244 3225 3274 
2496 2062 3893 634 2559 3010 2583 1912 2089 
2063 2494 2078 2727 2644 3153 3301 3219 3358 
3436 3330 3369 444 2040 1698 1375 1712 2711 
2590 2580 2936 2822 2087 3202 2703 2390 2882 
2949 2311 2650 1393 2410 2000 2054 1322 897 
1601 2784 2360 2957 3371 2627 3270 3145 2748 
3116 2591 3818 2475 3367 3248 494 1757 460 
2138 1544 2188 2903 2381 2988 2401 2080 3292 
1784 2663 3212 2831 3397 2892 2388 2380 2766 
2876 2170 2032 2064 2956 1715 1474 2394 262 
2670 2948 3372 2706 2631 2171 2945 2107 3747 
2582 3114 1612 2236 2434 2234 1791 1788 2513 
2033 3400 2872 2942 2270 2593 3460 2563 2294 
3293 3081 3939 3937 2099 2197 2180 2411 2575 
2586 2350 3201 3120 3171 3266 3073 1758 2813 
1903 1926 2992 1034 3004 2758 3442 3752 3684 
823 1313 1891 2497 2302 1770 2229 2369 2692 
3561 3341 2255 3435 3444 2085 1520 2811 2793 
1422 1282 825 2147 2523 2235 2412 2778 2585 
2909 3406 2144 2246 3401 2637 3268 3396 2479 
1554 2060 2662 2372 2126 2002 2501 3172 3738 
2266 1062 1951 2542 1973 1823 2856 1837 2937 
3176 2574 2530 3591 3783 2569 3162 2970 3487 
3089 3538 2514 335 2056 2131 2868 3630 2058 
2775 2518 3255 2866 2771 3580 3509 2069 3106 
2685 2879 3493 2742 2836 3804 4039 3142 3289 
3955 3713 3722 3446 2718 3279 4166 3792 3834 
3282 1996 3703 4464 4216 2507 3056 3958 3961 
3331 3902 2801 4367 3235 2623 3845 3639 4200 
2864 4060 4497 4618 3972 3607 4124 3404 3862 
3758 4279 3319 2262 3677 2096 3471 3822 2783 
2891 4129 3790 3077 2634 3032 3440 3778 3276 
3058 3718 3654 3148 4100 3288 3707 2308 3362 
3844 3334 3194 3723 3405 3302 3632 3195 4149 
3985 3727 3547 3977 3670 4139 3099 3256 3682 
3315 4002 3361 3472 2371 3433 3763 3831 3913 
4326 4388 2955 3764 4310 3349 3378 2930 3761 
3165 4248 3766 3152 3967 3379 4066 3618 4416 
3735 4642 4918 4270 4072 4738 4051 2499 2747 
2467 2616 3768 3350 4439 3623 4211 3894 3800 
3675 2967 3711 3083 4375 4415 2809 3311 2553 
2533 2568 2877 2339 2596 1950 3537 3500 3048 
3437 3578 3811 3708 4086 3868 3883 3717 4456 
4536 4451 4891 4395 2556 3469 3125 2597 3313 
2740 3067 3847 2973 3478 4170 4188 2189 2929 
3037 4255 2834 4647 4389 3833 3450 4637 2946 
4813 3715 4169 4371 5082 4420 4664 3492 2966 
3920 3325 2904 3662 4000 3052 3449 3512 3523 
4480 3993 3264 4632 2505 3360 2487 3221 3346 
2438 2821 3186 2628 4056 2721 2832 3676 3516 
3983 4007 4946 4521 4775 4705 4361 2739 4286 
2673 3078 2088 3522 3599 2842 3041 2907 3188 
3103 3527 3794 3907 2980 4093 4797 3771 3699 
3721 2659 3572 3028 2365 3769 3226 3751 4317 
3353 3714 3898 3806 3347 3412 4198 5425 3990 
4161 4003 4038 4202 4290 3828 2216 3199 2896 
3365 2648 3534 3370 3096 3298 4559 2976 2777 
4068 2656 3238 3789 2867 3611 3774 4444 3528 
2829 2805 2268 3799 4089 3477 3743 3615 3476 
3826 3753 3482 3556 4065 3409 3754 3642 4001 
3614 2983 3345 2231 3309 3169 3000 3260 3594 
3813 3415 3462 3317 3518 3231 4130 4403 2581 
3005 2477 2168 2696 3388 3651 2354 3136 3931 
3166 4504 3101 3634 3468 3242 3459 4175 3963 
2694 2693 2838 2788 2984 2857 2927 3020 3829 
4259 3624 4019 3344 3681 3773 4700 3376 4205 
2540 3772 3306 3679 3143 3183 3457 3848 3402 
3974 4134 3640 3987 3672 3323 4466 4328 4742 
2461 2895 3090 3616 3418 3979 3244 3695 2698 
3730 3259 4525 4291 3253 4387 3951 4127 3988 
4440 3897 3924 2241 2732 3542 3508 2954 1741 
3590 3825 3504 4232 2726 4253 3705 4120 3861 
3011 4600 4374 3849 3167 2757 3181 3557 4113 
2860 2769 3392 3706 4545 3092 3377 3474 4242 
2286 3227 4281 2558 3655 3788 3881 4075 2544 
3921 4699 3571 4590 2664 4833 4806 4448 2995 
3001 3100 3692 3427 3649 4306 4133 4046 4597 
4754 3886 1806 3140 4560 3466 3157 3746 4154 
3222 4103 3422 3973 4084 4979 4340 3819 3890 
2897 2915 3767 2894 3563 2993 3236 3237 3399 
3926 3191 4031 4099 3856 3652 4184 2704 2263 
2484 2683 3748 2819 3952 3927 4125 2823 3108 
4688 3327 3326 2567 2541 3941 3545 2998 2617 
2914 3229 3638 2707 3685 3644 3204 4262 3598 
3139 3698 3576 3129 2986 3066 2293 3163 3109 
3428 3107 3272 3030 3680 3837 3424 4506 3127 
4753 3586 2614 3336 3097 3948 3075 2947 2571 
3925 3810 4237 4570 4295 3550 3241 3104 4731 
3786 2835 2539 3333 3498 3393 4454 3408 3484 
3356 4112 3622 3744 4105 3592 3628 3473 4315 
3316 3858 2780 3935 2850 3762 4335 3588 3200 
3859 3891 3981 3877 3568 4233 4069 3324 4394 
4207 4465 4617 5179 5247 4443 4958 3694 3023 
3864 3936 3061 4402 4429 3888 4349 2912 3530 
3007 3230 2928 3243 3558 3596 3283 3044 4309 
2722 3665 3855 4128 3210 3970 4438 4156 3824 
3470 2733 3016 3084 2358 2756 3663 4217 2760 
3946 4114 3332 3220 4246 2552 2642 2991 2971 
3161 2599 3796 3022 2965 3197 2807 3205 4024 
3609 3502 3867 3443 4386 4008 3134 2337 3351 
1857 2990 3613 2320 2815 3617 2920 3501 4020 
3619 3128 3520 4468 3689 3863 4239 2931 3602 
3135 3668 2817 2926 2893 2334 3601 3544 3130 
3198 4176 2974 3184 3144 3830 4772 4083 2797 
2919 3486 2972 3305 3164 4365 3673 3117 4531 
3018 4899 3608 3687 3380 4235 4327 3776 3312 
3666 3431 3088 3582 3795 4053 4573 3872 3505 
2763 3842 2906 3177 3560 3366 3584 3429 3014 
3874 3552 2643 4081 3686 4137 4203 3479 3850 
4062 3750 3513 4369 3915 3480 3300 3702 3239 
3775 3359 2960 3110 3575 4479 4018 4614 4347 
3447 3996 4183 2803 3827 4077 4193 3945 3991 
3950 3395 3816 4472 3749 4311 3805 4811 3631 
3610 4352 4206 4338 5195 4685 4116 4097 2826 
3779 3719 4736 3159 3600 4102 4673 4158 3589 
3960 4017 3123 3871 3419 2792 3835 3777 2428 
3643 3653 3720 3245 3541 3383 3593 3637 4364 
3739 4231 4080 2723 2884 1974 3295 3491 2463 
3216 2997 4187 4163 3233 3043 3343 2925 3329 
3314 1904 3299 3975 2889 4425 3262 3661 3019 
4486 4201 4256 4412 3488 3168 3852 2437 2679 
4165 3741 3074 3760 3394 2353 3832 3533 4288 
3420 4320 3514 3656 4204 3605 3218 2979 2705 
3151 3182 3068 3146 2224 2754 3904 3441 3178 
3785 3900 2853 3660 4058 4215 3554 3223 3042 
3133 3999 4146 3261 4487 4561 3546 3318 2731 
2800 3737 3732 4252 4250 4174 4219 3716 4591 
4258 3965 3865 3846 3731 3426 4272 3803 3968 
3224 4108 3296 3627 3930 3793 3629 3051 3876 
4152 2981 4047 4598 3693 4341 4999 5224 5294 
4727 3745 3559 2619 2952 2917 3065 3626 3036 
3407 2550 3878 3962 4157 4551 4860 3267 3836 
2551 3354 4041 3969 3597 3917 3697 3291 3064 
3782 4131 2921 4073 4042 3585 2485 2874 3091 
3929 4078 2719 3688 4234 4182 3725 3736 3269 
3901 3531 4107 4055 3916 4192 3587 3021 3340 
4589 4377 3678 4513 3240 3119 3704 3352 3290 
3787 3519 3389 3141 3515 2901 3382 3780 3131 
3461 4238 3603 2913 3671 4625 3034 3507 3495 
3454 3154 3421 3132 3691 4391 3802 3658 3384 
4273 3062 4717 5101 3059 3357 2791 3562 3069 
3521 4505 3321 3535 3798 4336 4044 3566 4274 
4943 3625 3869 4604 4094 4602 3895 4035 3263 
3565 4194 3355 3517 3342 4578 3430 4300 3322 
4135 4023 5232 4926 3646 3683 3049 3823 4009 
2489 4096 3192 4118 2905 4212 4316 3635 4801 
4224 4428 4040 4638 3467 3843 3934 4459 3080 
4087 3503 2878 3203 4305 4292 3664 3942 3765 
4921 4254 4185 4530 3115 3884 3026 2028 4091 
3076 4346 3709 4043 3543 3604 4447 3982 3667 
3386 3038 4079 3217 4076 3885 3285 3912 2695 
3701 4500 4275 4546 5152 3320 3410 3759 3606 