# vtk DataFile Version 4.2
Generated by LIGGGHTS
ASCII
DATASET POLYDATA
POINTS 5999 float
-0.0183148 -0.0410943 0.0116332 -0.014558 -0.0424742 0.0122833 -0.0107409 -0.0437033 0.012282 
-0.00680774 -0.0444834 0.0122134 -0.00286286 -0.043779 0.0123181 -0.0071067 -0.0406068 0.0131695 
-0.00330507 -0.0404043 0.014441 0.00807282 -0.044236 0.012099 0.000953577 -0.0449763 0.0121685 
0.00432217 -0.0428047 0.0121747 0.0014089 -0.0400612 0.0123489 0.0143537 -0.0416842 0.0121715 
0.0114002 -0.0435064 0.0142053 -0.0312363 -0.0322258 0.0122744 -0.0218539 -0.0392522 0.0122121 
-0.0251119 -0.0370845 0.0131547 -0.0250333 -0.033163 0.0122674 -0.0216105 -0.0352581 0.0122151 
-0.0215406 -0.0312458 0.0126588 -0.0284491 -0.0348311 0.0135357 -0.0180731 -0.0371547 0.01233 
-0.0116011 -0.0397002 0.0123261 -0.014524 -0.0352468 0.0122745 -0.0179325 -0.033147 0.0124867 
-0.0143622 -0.0312441 0.0125546 -0.0104103 -0.0318031 0.0122823 -0.0149798 -0.0387708 0.0143146 
-0.00645453 -0.0310948 0.0122061 -0.00862781 -0.0370112 0.0122933 -0.00245441 -0.0308735 0.0122533 
-0.00152653 -0.0372623 0.0123754 -0.0043872 -0.0344791 0.0128475 0.00624517 -0.0392931 0.0120984 
0.00436826 -0.0325947 0.0123326 0.0032267 -0.0364998 0.01206 0.00821714 -0.0314703 0.012453 
0.00725486 -0.0353988 0.0122363 0.000367047 -0.0337131 0.0124399 0.0103088 -0.0391778 0.012073 
0.017788 -0.0394066 0.0122668 0.0141594 -0.0375107 0.0121205 0.0166185 -0.0315576 0.0122006 
0.0126453 -0.0310052 0.0121714 0.011215 -0.0348017 0.0122643 0.0177433 -0.0354031 0.0123932 
0.0145192 -0.0341723 0.0144342 0.0206213 -0.0314137 0.0122903 0.0245225 -0.032331 0.0123528 
0.0217525 -0.0353113 0.0121702 0.0281662 -0.0344654 0.0124301 0.0252539 -0.0372312 0.012511 
0.0218061 -0.0393152 0.0125194 0.0280316 -0.0303998 0.0124441 0.0312372 -0.0323564 0.0139909 
-0.0401301 -0.0203457 0.0116611 -0.0305799 -0.0250539 0.0121182 -0.033028 -0.0286268 0.0121884 
-0.0363686 -0.0263787 0.0122149 -0.0332366 -0.0209612 0.0126885 -0.0369303 -0.0224779 0.0129717 
-0.0292779 -0.0212656 0.0122019 -0.0252919 -0.0208941 0.0122232 -0.0215174 -0.0272592 0.01228 
-0.0290299 -0.028792 0.0122468 -0.0220884 -0.0232914 0.0122602 -0.0256459 -0.0251538 0.0124287 
-0.0250474 -0.0291592 0.0123655 -0.0188664 -0.0209208 0.0122372 -0.0146226 -0.0269628 0.012326 
-0.0182795 -0.0248911 0.0123008 -0.0114178 -0.0245605 0.0122719 -0.0151402 -0.0223717 0.012454 
-0.0179886 -0.0291457 0.0124393 -0.0112676 -0.0205435 0.0124142 -0.00920607 -0.0278934 0.0123164 
-0.00455438 -0.0235878 0.0123275 -0.00726797 -0.0206294 0.0124094 -0.000553868 -0.0232557 0.0123092 
-0.00135254 -0.0271292 0.0132396 -0.00535435 -0.0273882 0.0133129 -0.00798058 -0.0241288 0.0143517 
0.00620242 -0.0247873 0.0122442 0.00916347 -0.0274814 0.0121387 0.00326804 -0.0220668 0.0123609 
0.00532593 -0.0286953 0.0122961 0.00238213 -0.0259723 0.0123522 0.00144311 -0.0298619 0.0122402 
0.00986324 -0.023747 0.0134843 0.0168175 -0.0275435 0.0119418 0.0132496 -0.02562 0.0122865 
0.0129744 -0.0215414 0.0122621 0.0167309 -0.0229506 0.0120935 0.0198486 -0.0204426 0.012093 
0.024168 -0.0243449 0.0119822 0.0231854 -0.0282236 0.0122046 0.0277699 -0.0215091 0.0121529 
0.0201827 -0.0249747 0.0122155 0.0240162 -0.0201363 0.0123393 0.0297839 -0.0249673 0.0123855 
0.0266035 -0.0269096 0.0138548 0.0378071 -0.0242475 0.0122636 0.0337005 -0.0238944 0.0121762 
0.0354894 -0.027515 0.0125015 0.0315834 -0.0285481 0.0123765 0.0360042 -0.0205937 0.0123461 
0.0317982 -0.0203753 0.0122937 0.0401542 -0.0202309 0.0126105 -0.0437335 -0.0105087 0.0119702 
-0.0424043 -0.0149655 0.0128086 -0.0360462 -0.0134974 0.0121809 -0.0397596 -0.0120063 0.0121535 
-0.034705 -0.0172685 0.0122163 -0.0386665 -0.0165972 0.0121413 -0.0306364 -0.0174761 0.0122544 
-0.0338342 -0.0101515 0.0122175 -0.0319575 -0.0137016 0.0123349 -0.026623 -0.017121 0.0122108 
-0.0244297 -0.0108553 0.0122512 -0.0234097 -0.0147363 0.0121975 -0.0220812 -0.0185118 0.0123894 
-0.0276343 -0.013252 0.0125288 -0.0162131 -0.0179259 0.0123025 -0.0123852 -0.0162028 0.012292 
-0.0194303 -0.015507 0.0123728 -0.0121463 -0.0122135 0.0124661 -0.0189186 -0.0115276 0.0126945 
-0.0157423 -0.0139619 0.0125686 -0.00320877 -0.0198216 0.0124093 -0.00456261 -0.0129084 0.0122756 
-0.00846718 -0.0137847 0.0122801 -0.00591399 -0.016867 0.012515 -0.0019639 -0.0159988 0.0124237 
-0.000893629 -0.01239 0.0137833 0.00466412 -0.0182847 0.0123231 0.00642113 -0.0109829 0.0123569 
0.000716676 -0.0189823 0.0123323 0.0097197 -0.015387 0.0122123 0.00283116 -0.0127469 0.0123393 
0.00922892 -0.0193728 0.0124065 0.0060338 -0.0147622 0.0136371 0.0181966 -0.0133426 0.0121652 
0.0129865 -0.0124081 0.0122036 0.0130947 -0.0175344 0.0122139 0.0170991 -0.0175249 0.0122892 
0.0209034 -0.0162995 0.0121209 0.0269776 -0.0132473 0.0120696 0.0229983 -0.0128413 0.0120633 
0.0289295 -0.0175584 0.0121889 0.0247193 -0.0163125 0.0133373 0.0204699 -0.0107524 0.0143854 
0.030904 -0.0140101 0.0121822 0.0378314 -0.0169807 0.0121316 0.0393451 -0.0117598 0.0122237 
0.0354737 -0.0137428 0.0122262 0.0327951 -0.0106235 0.0131879 0.0340747 -0.0172669 0.0135037 
0.0418645 -0.0163314 0.0116395 0.0434572 -0.0115463 0.0122522 -0.0410912 -0.00679527 0.0122414 
-0.0407346 -0.00280705 0.0122647 -0.0446854 -0.00503447 0.0123525 -0.0445265 -0.00104685 0.0126622 
-0.0370675 -0.0045721 0.0121443 -0.0330388 -0.00147904 0.0122084 -0.0326762 -0.00632034 0.0123343 
-0.0375489 -0.00868375 0.0124638 -0.0298399 -0.0099196 0.012297 -0.0273879 -0.00240033 0.0123626 
-0.0221189 -0.00419258 0.012211 -0.0280035 -0.0063614 0.0123428 -0.0207542 -0.00799015 0.0123328 
-0.0243765 -0.0071742 0.0138281 -0.0173113 -0.00595525 0.0122348 -0.0107486 -0.00846714 0.0122862 
-0.0186398 -0.00218345 0.0123484 -0.0147463 -0.00915443 0.0122856 -0.0133227 -0.00542177 0.0126263 
-0.0146476 -0.00165287 0.012387 -0.010957 -2.33149e-05 0.0123558 -0.00693574 -0.00966979 0.0121419 
-0.002972 -0.00920873 0.012443 -0.00562475 -0.00579987 0.0122597 -0.00336196 -0.00249454 0.0123985 
-0.000997179 -0.0057223 0.012462 -0.00724154 -0.00150224 0.0124498 -0.00939579 -0.00480201 0.0131471 
0.00679829 -0.00685312 0.0122531 0.00102477 -0.00917054 0.0122876 0.0030028 -0.00559534 0.0123956 
0.000974501 -0.00213638 0.0128461 0.00949377 -0.00167825 0.0140395 0.00589716 -0.00343001 0.0141203 
0.0179739 -0.00854572 0.0121556 0.013966 -0.00848664 0.0121671 0.0182997 -0.00455884 0.0123497 
0.0100278 -0.00922971 0.0121162 0.0104376 -0.00518275 0.0123081 0.0143183 -0.00420337 0.0122001 
0.0129411 -0.000453976 0.0124128 0.0169257 -0.000800938 0.0124774 0.0278408 -0.0056847 0.0123289 
0.0287206 -0.00961442 0.0123298 0.0248609 -0.00167587 0.0126871 0.0247607 -0.0092506 0.012774 
0.0215969 -0.00682224 0.0124651 0.0213864 -0.00303655 0.0143878 0.034674 -0.00426907 0.0120115 
0.0316555 -0.00689936 0.0121028 0.037138 -0.00830354 0.012139 0.0377115 -0.00156918 0.0121767 
0.0308636 -0.0029685 0.0121326 0.0339345 -0.000175086 0.0123032 0.0378552 -0.00491903 0.0143655 
0.041202 -0.00365307 0.0120815 0.041215 -0.00821016 0.0122781 0.0448952 -0.002102 0.0124896 
0.0445288 -0.00606387 0.012946 -0.0444319 0.00696983 0.0123114 -0.0408383 0.00521005 0.0123652 
-0.0408725 0.0012014 0.012298 -0.0445449 0.00295581 0.0124329 -0.0366913 0.000213994 0.012181 
-0.0379051 0.00833328 0.0122589 -0.0369161 0.00440256 0.0122877 -0.0333913 0.00250984 0.0123393 
-0.0334869 0.00651098 0.0123278 -0.0243255 0.000170011 0.0125126 -0.0298608 0.00481875 0.0123972 
-0.0297632 0.000817862 0.012298 -0.0200965 0.00158939 0.0123126 -0.020537 0.00557014 0.0123775 
-0.0215555 0.00945211 0.0124003 -0.0245585 0.00617246 0.0122842 -0.0287381 0.00865898 0.0124751 
-0.0252458 0.00972146 0.0141359 -0.0269146 0.00284743 0.014251 -0.0165316 0.00558328 0.0122854 
-0.0142068 0.00232742 0.0122933 -0.0175551 0.00945394 0.012258 -0.0123789 0.00590696 0.0123277 
-0.0124012 0.00992099 0.0123001 -0.00537069 0.00203129 0.0122764 -0.00117992 0.00503083 0.012294 
-0.00887127 0.00396976 0.0122932 -0.00149508 0.00104518 0.0124426 -0.0050676 0.00634568 0.0125846 
-0.00901798 0.00787276 0.0133165 0.00616677 0.000148369 0.012342 0.000217406 0.00877876 0.0122569 
0.00640171 0.00414919 0.0123418 0.00731048 0.00805623 0.0123701 0.0097418 0.00194822 0.012369 
0.00246213 0.00166062 0.0123844 0.0027368 0.00570753 0.0127499 0.0179088 0.00307437 0.0122393 
0.011427 0.00557703 0.0122092 0.0186264 0.00702522 0.0123021 0.0147167 0.00782751 0.0125938 
0.0110295 0.00956874 0.0124898 0.0141863 0.00309211 0.0138152 0.0285671 0.000321263 0.0122765 
0.0214847 0.000480487 0.0122875 0.0217708 0.0045413 0.0122548 0.025097 0.00231528 0.0123149 
0.0252852 0.00654402 0.01234 0.022116 0.00898907 0.0122909 0.0286173 0.00432655 0.0123482 
0.0380736 0.00278506 0.01237 0.035955 0.00620912 0.0126384 0.0314052 0.00742258 0.0124997 
0.0328246 0.00364456 0.0127472 0.0413189 0.000349432 0.0121964 0.040723 0.00712574 0.0131704 
0.0449264 0.00210693 0.0120894 0.0445052 0.0061017 0.0121924 -0.0436417 0.0108992 0.0123138 
-0.0424913 0.0147439 0.012283 -0.0411103 0.0182449 0.0136482 -0.0344737 0.010397 0.012264 
-0.0373812 0.017861 0.0122453 -0.0395745 0.0119861 0.0122402 -0.0319524 0.0135055 0.0123454 
-0.0359078 0.0141376 0.0122307 -0.0336332 0.0171765 0.0134996 -0.0298155 0.016888 0.0123027 
-0.0275814 0.0124895 0.0123829 -0.0258761 0.0161783 0.012257 -0.0216154 0.0164003 0.0123211 
-0.0234459 0.0199627 0.0123706 -0.0235816 0.0129 0.0122691 -0.0176086 0.0165516 0.0122779 
-0.013563 0.0164802 0.0122194 -0.0155284 0.0129415 0.0122548 -0.0107983 0.0135879 0.012412 
-0.0195645 0.0129322 0.0123896 -0.0107306 0.0199729 0.0122602 -0.0196883 0.0195237 0.0140185 
-0.00352167 0.0102439 0.0123368 -0.00255836 0.0179606 0.0122823 -0.000396096 0.0127425 0.012155 
-0.00741277 0.0114282 0.0123147 -0.00809299 0.0169263 0.0123094 -0.00452571 0.0141933 0.013128 
0.00390568 0.0100819 0.013115 0.00114379 0.0164421 0.012181 0.00429514 0.0139726 0.0122583 
0.00452466 0.0185776 0.0123018 0.00781482 0.012032 0.0125331 0.00761214 0.0161098 0.0129522 
[...]
POINT_DATA 5999
FIELD FieldData 7
id 1 5999 int
544 514 482 144 333 828 27 1092 856 
1037 589 307 901 1045 862 924 120 97 
520 598 52 107 135 145 379 228 551 
263 53 1095 158 426 408 501 476 706 
336 1008 203 230 246 992 364 41 404 
777 608 46 247 760 245 690 397 154 
1316 115 966 557 274 440 1019 344 378 
434 816 623 874 294 669 946 11 724 
63 502 704 546 1015 174 424 199 1166 
469 365 504 952 684 776 758 114 276 
149 8 396 310 614 876 1042 630 112 
54 516 210 509 401 350 528 423 861 
136 437 349 787 348 1107 659 57 131 
360 281 550 650 311 664 84 374 345 
487 296 429 99 113 42 815 616 66 
1126 168 205 293 1338 1144 1494 317 875 
39 117 848 1077 256 1083 461 962 1035 
231 788 523 86 142 372 1214 1262 853 
1503 802 686 417 163 1096 20 783 126 
72 1071 731 447 485 354 906 1269 175 
221 821 58 584 612 1101 1105 931 903 
342 445 543 489 427 627 441 1481 1486 
1027 710 967 784 322 1142 900 1692 73 
410 393 421 1161 935 896 1032 458 48 
108 241 367 914 418 134 604 1014 292 
105 558 781 12 813 857 224 766 755 
742 1351 16 5 463 23 971 998 1254 
1128 77 352 594 1460 229 206 346 1277 
78 563 170 886 763 1106 273 193 305 
498 375 384 734 560 517 1478 81 432 
286 128 712 320 473 88 380 1197 673 
155 1073 313 1613 341 182 586 847 745 
288 1066 1024 535 387 915 214 657 949 
592 394 836 165 244 298 334 436 287 
519 868 691 631 640 191 260 721 996 
64 98 579 671 80 79 225 910 356 
3 1040 266 576 337 159 944 524 75 
522 361 1124 103 197 347 316 954 104 
21 1016 1097 212 1072 736 1220 146 660 
715 556 91 839 880 425 521 76 160 
290 121 152 926 628 332 28 569 406 
177 1103 235 478 1611 929 312 748 116 
428 226 1368 227 928 1899 1084 705 220 
582 255 96 851 304 513 388 1725 1134 
118 409 629 1703 133 204 1484 181 259 
642 299 264 140 1117 529 15 6 636 
45 173 289 213 769 916 507 327 129 
475 1025 899 141 497 207 904 111 701 
395 530 422 217 268 1489 477 215 124 
474 532 780 162 909 1790 454 161 414 
625 218 866 40 1461 328 882 2618 1 
877 18 455 250 122 885 1119 1323 67 
995 1765 178 26 864 1386 495 430 1350 
531 1792 19 1213 1433 1044 271 505 680 
1171 100 1270 390 1098 1477 282 997 1392 
969 797 1194 450 407 1506 153 1328 1575 
1164 1828 1995 1620 647 1861 795 1299 566 
1326 2364 1079 2621 257 242 515 194 209 
10 1286 981 1650 452 1289 1834 1589 65 
1846 1774 1602 1882 1690 1705 138 773 596 
400 185 83 892 1232 233 1446 2165 665 
772 883 1999 1498 1878 1718 567 338 109 
1033 391 1067 1632 907 696 707 1580 1471 
852 1677 1688 1411 47 1358 605 1387 1176 
968 1284 1608 1434 147 449 1850 1543 1365 
1421 1251 1169 1258 340 1485 1187 512 285 
1280 675 580 764 443 750 1188 1013 323 
889 2027 411 662 1341 1186 2416 1058 200 
33 1005 713 94 254 1162 488 183 198 
548 1563 574 493 1416 279 1017 2300 1785 
1275 302 49 402 1476 119 55 1043 953 
1639 1463 2042 1836 744 2067 1026 2781 2347 
2145 1418 464 1640 1028 711 818 1331 1242 
1647 1023 1605 1059 2292 905 1843 1734 1768 
1943 1538 2150 371 633 1676 1285 1754 1179 
534 2285 1789 1855 1159 1944 1283 2065 2092 
1210 1883 2191 1654 844 918 641 392 102 
937 2221 943 1697 1862 1074 1609 938 1274 
2109 1550 1170 1691 2345 1036 858 1412 248 
2136 442 1330 1217 1191 1491 785 1406 69 
872 1468 2296 1182 2161 1780 1659 382 90 
267 1114 779 22 689 617 643 518 652 
471 800 1047 1652 902 1962 1224 2053 1958 
739 413 249 921 1327 2328 1678 1178 1829 
2776 223 525 803 703 741 639 824 1064 
1389 1113 578 1398 319 961 1265 1592 2228 
1680 2004 1184 68 125 533 1325 243 668 
854 1407 1683 963 977 1345 2129 1561 1844 
106 1354 655 1955 2066 2557 674 1623 1208 
1722 1055 697 7 1672 1448 9 2047 832 
1594 1749 2209 2113 1687 2304 1562 190 951 
201 808 964 403 747 990 986 179 1525 
888 1201 1555 1597 2093 1587 1595 1814 38 
980 718 1152 1482 994 1404 1174 1012 2128 
1684 1644 1572 1240 1753 1701 1076 2490 1061 
211 1979 1203 353 1185 622 833 1177 1497 
1710 726 270 1366 1377 1913 1960 1628 1852 
1413 1183 1272 2091 1141 1763 635 291 1288 
859 1508 819 1931 1383 240 987 1369 2312 
1199 1223 1630 1256 611 1552 806 2277 2301 
1308 123 679 1775 43 927 658 1132 1319 
834 1243 2278 1767 1493 1347 1417 1811 1685 
2426 1642 314 590 1180 754 1276 252 805 
1057 1355 692 139 1372 1324 1222 749 506 
653 2205 1397 1893 92 1584 1123 399 1212 
562 1961 1679 1118 898 222 1196 1329 1385 
985 1860 1250 1505 1215 1835 1537 1359 1772 
1233 1830 826 202 613 767 881 25 1500 
978 318 2014 2194 1318 863 1268 2348 1333 
619 884 496 1443 1231 369 1310 1235 1429 
1548 2307 1472 694 1317 2299 581 1109 1127 
1315 1643 1133 545 278 727 1130 1295 1618 
376 1622 508 1099 1822 1081 1536 1374 661 
1380 351 1513 1155 500 1586 831 1140 1509 
2104 869 575 1003 491 1839 1091 1356 1263 
2021 1479 1340 1588 2297 1088 1569 1876 830 
1728 695 1030 1964 1125 479 1529 483 2038 
1809 1425 1049 865 1634 1838 855 537 1674 
1202 1281 1845 1181 1444 893 1967 1279 812 
1492 2210 1348 714 2159 2240 389 934 933 
1120 1100 1145 1060 1886 1982 1702 1399 1925 
2346 959 1332 1921 1629 2395 842 751 137 
1945 1041 1914 1517 1391 1577 1935 1573 1137 
1151 693 796 1011 870 1557 894 1948 1006 
879 2043 1624 2451 2036 1009 1334 24 615 
511 1228 756 873 1221 1038 1353 835 1122 
1719 1002 2200 2037 2052 775 610 890 941 
654 1744 982 1111 1225 983 110 1842 1357 
585 2453 2024 2537 1502 330 607 702 920 
499 1131 1567 1522 1928 794 1362 2362 2001 
1158 2139 1804 1435 1252 1496 2379 462 1512 
667 677 682 1871 2018 947 843 1907 237 
743 1975 1615 1361 1821 2425 845 840 526 
1395 280 1300 300 355 1226 878 1480 942 
838 728 717 1455 1260 1720 1787 1342 1541 
2335 1168 370 678 1238 309 587 1428 792 
1320 1148 570 1305 381 1518 606 761 1895 
1750 1593 127 297 719 189 362 1054 188 
565 431 1089 148 1707 555 1381 1046 814 
1129 770 1501 549 956 171 730 975 527 
368 1010 1487 1796 1139 1831 993 723 1445 
253 31 1063 1306 1031 2264 2074 2400 377 
1426 564 984 1778 503 1400 1112 1977 1812 
1291 187 1080 1149 1450 1301 1673 1104 1524 
2651 2269 295 1516 101 919 1294 1439 1576 
922 2248 632 232 817 366 1940 1370 2176 
2237 716 265 1523 239 1018 867 1090 167 
1052 1078 2279 2319 2242 789 1312 1553 1499 
2260 1675 1910 1352 1007 827 303 988 419 
32 588 778 1344 1255 1884 700 1936 1826 
1870 1714 2398 2034 1556 1997 331 1086 1193 
572 70 1490 29 1430 1335 737 1879 1972 
459 733 1462 1337 1339 2133 1574 2012 1237 
301 36 1020 746 1153 676 420 2114 453 
911 2452 1154 1546 1721 1664 1314 82 326 
216 1150 180 974 1085 541 1311 979 930 
484 164 809 315 87 1402 1535 568 822 
932 553 1743 283 646 186 955 130 709 
958 609 648 1976 1682 940 1021 192 708 
2115 2148 1469 480 626 448 765 238 1321 
561 554 1069 405 887 150 74 1236 358 
1230 1115 2375 810 1583 50 1271 1384 481 
1207 1056 1963 1297 656 849 573 51 2 
1110 13 740 1532 60 1566 620 1984 1247 
1029 1379 2152 1849 412 923 891 1022 600 
688 1135 1459 841 1604 435 559 1560 2010 
2225 2446 2318 2134 2750 2223 2660 472 93 
357 771 1346 439 925 1343 1349 1617 1449 
1726 790 1257 71 1373 1048 1551 2119 62 
1442 258 1004 603 1394 1819 1001 1897 774 
2406 325 1367 1102 2051 470 2910 948 2155 
1248 1246 791 957 1971 683 793 618 1309 
1156 284 1540 681 644 1510 1625 1934 1669 
2039 1841 2203 386 599 35 272 277 251 
725 1436 373 685 846 698 1859 416 2158 
960 456 2090 2272 1227 1670 738 820 638 
583 547 1695 965 752 1582 2035 1424 1467 
2219 1163 1565 637 799 95 329 976 1205 
571 850 85 34 1273 804 1267 1752 363 
1423 1261 17 2198 972 991 1655 151 1959 
1053 1136 306 61 383 1165 1296 1875 169 
2460 1764 1873 1388 468 1867 1116 2629 2243 
339 275 89 798 14 1172 1287 196 624 
2055 1534 2764 308 1755 2030 1923 1760 1745 
1298 1571 2007 1641 1160 1868 1410 1475 2049 
1303 4 2023 1795 2127 2284 2403 2211 597 
973 166 1068 811 649 591 184 1000 2146 
486 1167 538 1631 261 1514 1195 917 1401 
2474 1758 321 438 324 829 666 30 1504 
1108 490 645 1651 1542 759 1591 577 1610 
1724 651 176 1645 1627 1453 1050 433 195 
143 415 59 157 1249 801 466 1336 1713 
359 1579 989 2110 1708 786 1307 1173 999 
234 593 1147 1932 908 1530 1266 132 1290 
552 729 510 56 1495 269 762 156 670 
1364 1239 1062 451 1209 621 542 1816 1390 
1980 2081 1922 2384 2327 1657 1211 2569 343 
446 1189 768 1570 1143 735 2690 1717 2680 
2122 2843 2554 913 602 1245 3284 2196 2641 
2046 2257 2100 3086 3465 2999 2528 2911 2938 
601 2289 1638 1259 1598 3160 2845 3808 3564 
2713 3155 3025 2633 1906 2254 2720 2686 1777 
3060 2195 2349 2508 2918 2073 1957 1564 1869 
699 782 2303 2247 1581 2847 2102 2250 2977 
2512 2341 492 2963 2588 3540 2464 1547 2275 
1856 2245 1603 2987 3013 1783 2421 2417 1661 
2208 2862 3098 3529 2851 219 1649 2527 2157 
2612 2121 1590 2106 1681 2084 2526 1626 2840 
2098 2968 3413 2433 3636 2958 4100 2031 457 
1175 1488 1420 2003 2825 1146 2351 2383 1800 
2959 2833 2975 2761 2506 3033 3256 1519 1614 
1533 2472 2455 2187 2624 2684 2418 2378 3174 
2448 3271 3095 3207 1981 2295 3008 2377 2075 
2355 2932 2517 2606 3464 2545 3215 3734 2871 
3187 2332 3650 2855 1756 2735 2809 687 1952 
2044 1278 1937 465 2560 2611 2689 2538 1802 
2675 2806 1865 2443 2135 1949 2143 1733 1771 
2391 2646 1382 2314 2493 1991 2601 2041 1458 
3193 2645 2556 2330 3469 2239 1746 1633 1470 
2185 1779 3348 2869 2008 2613 2746 3425 3411 
3391 3851 3111 1437 1696 2427 2305 2009 1253 
1619 2291 2812 2767 2396 3297 3027 3303 2516 
2795 3122 3492 2498 1908 970 2470 3082 2661 
2532 2510 1983 1376 1727 1414 2276 2183 2368 
2120 2486 2673 3539 2505 3286 1919 1483 1456 
1405 1686 1953 2511 2015 1978 2765 2522 2468 
2953 2111 3079 2048 2402 1866 3249 2824 2739 
3553 540 2408 1699 1693 2562 1989 2964 1716 
3175 2423 2515 2338 2415 2280 3015 2717 3699 
1403 1954 37 2013 2329 2173 2298 2181 2943 
3024 3124 2105 1737 2025 2450 1711 1817 1093 
1607 2271 1378 2429 2859 2639 3451 2610 2743 
1968 1858 2667 2061 2886 1065 1887 1773 2491 
2385 2359 1700 3252 2576 2389 2829 2805 1848 
2430 2779 2226 2057 2142 2282 2177 722 3156 
2151 2816 2668 2708 2363 3375 2483 2387 3247 
2858 2880 2714 1794 1662 3173 2794 2399 1917 
3094 2103 2674 2457 3072 1781 3338 2581 2728 
1881 807 1408 1636 2190 1988 2916 2944 2182 
2870 3040 1942 3180 1966 1070 939 1671 1668 
2600 1264 2804 2333 1840 1889 2736 2540 3772 
2050 2594 1824 2549 2666 2671 2409 2520 2846 
3158 2687 2432 3211 3690 2534 2519 3208 2652 
1087 2317 2179 2440 2071 2745 2420 1965 2005 
1987 3336 3924 1663 1219 2565 2361 1198 2709 
2370 2322 1531 1293 1863 1905 3063 1658 2116 
1803 2083 2579 2202 3185 2366 1730 2665 1539 
1924 2935 3339 1896 1667 3368 3445 1759 1776 
2774 2163 2141 2688 1969 2773 3258 2206 2082 
2373 3029 2482 1890 2787 3250 3620 1916 3548 
2548 1902 2796 1793 2712 1723 2861 1431 1807 
2875 3455 2772 2251 3039 2444 3892 1806 3150 
1363 1396 2006 1993 1736 1200 1452 1815 1994 
1877 2207 2989 2678 2407 2922 2897 1568 2478 
1507 2172 2577 1704 2392 1558 2786 2521 1051 
2950 3453 2704 2263 1888 1216 1927 1454 2531 
1637 2130 2112 2326 2595 2737 2820 3012 2573 
2676 2863 3214 2323 2536 2309 2481 1206 2449 
2607 1694 2215 2603 2357 1786 2978 1545 3003 
3189 2405 2059 2125 1985 3129 2204 1094 1447 
2256 1833 1920 2118 2699 2193 2192 2885 3569 
753 1832 2086 1732 2584 1660 1689 1941 1900 
2220 3257 2798 1901 2749 2343 536 172 1813 
2466 1653 2422 2770 2940 2814 2881 1616 2290 
1805 3499 1735 2939 1946 3149 3278 3506 3633 
2951 3757 860 1440 1769 2488 2883 3387 2232 
2441 1885 1762 1990 2068 2473 1938 2827 2677 
3246 2572 2899 3121 2169 2941 2344 1992 2258 
1808 2154 2762 871 2026 2079 2077 2439 2424 
2752 2070 2647 2222 2504 2325 2306 2140 1600 
2716 2849 2546 945 2356 1729 1739 1909 1585 
1825 2564 2476 2632 3574 2828 2589 2458 1599 
1292 2094 2830 2630 2132 2657 2217 2164 2969 
2844 3112 3179 3071 3308 2738 2465 2393 2570 
1521 1578 1466 1229 2124 2095 1432 2500 1851 
1820 2887 1039 2404 1930 2649 2865 2724 2854 
3009 1304 1360 1648 1549 1646 2636 2503 1798 
1956 2442 2725 3196 2218 2249 3485 2382 2620 
2524 1244 1911 2459 1515 1933 1738 2638 1915 
1621 2682 2316 3054 3251 2802 3273 3439 757 
2072 1528 1761 1810 1138 1797 2994 2253 2431 
2445 1874 2462 2017 2985 2934 2011 3505 2852 
2615 3006 3390 3085 2604 2374 2785 2839 2414 
1526 2529 2701 3053 2799 1706 2342 1409 2653 
2587 3050 2413 2789 3700 2890 2471 3489 3448 
1419 1998 672 2367 2123 2386 2178 3047 2902 
2923 2352 2214 2274 1731 3234 2436 1947 2273 
3373 3337 2697 3213 3087 1218 2238 1740 2759 
1465 2199 1892 1204 2543 2480 1766 1747 2108 
1898 2658 950 2167 2287 2447 3105 1451 1799 
2213 2201 2016 2608 2162 2961 2908 2535 3403 
1302 1241 1415 1970 2324 2336 2702 2888 2230 
2029 2492 236 1894 2137 3463 1918 3398 2753 
2555 1854 2609 1082 2156 1190 1075 1880 2340 
2924 2456 2175 2321 2751 1872 2288 3277 2625 
3304 2045 2730 3756 2233 3494 539 1559 1511 
1666 1457 2076 2186 1527 1709 2281 2982 2654 
2261 2655 2933 2153 1847 2679 2437 1441 2020 
2768 2019 2700 3432 2962 2227 2705 1827 2598 
2212 1192 1234 1427 1635 2898 1742 2495 2744 
3138 3070 2605 2734 2681 3178 1665 1748 1656 
2622 2265 2626 2592 2174 2331 1818 2602 2376 
2578 3980 2315 2097 2715 3170 2672 3546 2160 
2283 2837 2259 3031 1853 1939 2900 2547 2810 
3232 3307 2691 3280 3712 2841 2525 2469 3733 
4228 3190 2635 2101 2022 1801 1596 2310 3045 
2397 2502 3017 1864 3287 3274 3225 2184 2244 
2729 2496 2062 3893 2952 3745 2583 634 2559 
2561 3010 2063 2089 2494 2078 2727 3153 2644 
3301 3219 3358 3330 3369 444 2040 1375 1698 
1712 1912 2711 1473 2590 2580 2936 2822 3202 
2087 2390 2882 2703 2949 2311 2650 2410 1393 
2000 2054 1322 897 1601 2957 2784 2360 3371 
2627 3145 2748 3116 3818 2591 2246 2475 3367 
3248 494 1121 2138 460 1757 1544 2188 2903 
2988 3270 2401 1784 2080 3292 2663 2831 3212 
3397 2388 2380 2766 2876 2032 2064 2956 1715 
1474 2394 262 2670 2948 2170 3372 2706 2631 
2171 2107 2945 3114 3747 2582 3034 1612 2434 
2234 2236 1791 2033 2513 2942 2872 3400 2270 
2593 2563 3460 2294 3293 3081 3939 3937 3357 
1788 2197 2180 2099 2411 2575 2586 2350 3201 
3171 3266 3073 2813 1903 2992 1926 1034 3004 
2758 3442 3752 3684 823 2497 1891 1313 2302 
1770 2229 2369 2692 3561 3341 2255 3435 2085 
2793 3444 1520 2811 1422 1282 825 2147 2523 
2235 2412 2778 2909 2585 3406 2144 3401 3268 
2058 2637 3396 3115 2479 1554 2381 2060 2662 
2372 2126 2501 3172 3738 2266 2542 1951 1973 
1823 2002 2856 1837 2937 3120 2530 2574 3591 
3783 3320 3410 3176 3162 2970 3487 3089 3538 
3525 2514 335 2056 2131 2868 3630 3255 2775 
2518 2866 3718 3580 3509 3657 2771 3002 2069 
3106 2685 3493 3288 2742 3282 2836 3804 4039 
3834 3142 3955 3289 3722 3713 2879 3446 3279 
2718 3792 4166 4464 1996 3703 4216 2507 3056 
3958 3961 4738 2801 3331 3902 3471 3235 2623 
3822 3845 3639 2864 4129 4060 2634 4618 4497 
3972 4124 3404 2262 3319 2096 3677 2783 2891 
3032 3790 3077 4149 3148 3440 3058 4422 3778 
3654 3276 4358 4392 3362 3707 2435 2308 3844 
3334 3194 3723 3405 3302 3632 3523 3195 3985 
3727 3547 3670 3764 4139 3099 2487 3315 3682 
4002 3361 3472 2371 3433 3913 3831 3763 3618 
4326 2955 4388 4310 3349 3378 2930 3761 3165 
3152 4248 3766 3967 3379 4066 3735 4416 4642 
4270 4072 4918 4051 2499 2747 2467 2616 3768 
3350 4439 3623 4317 4211 3894 3800 3675 2967 
3711 4415 3083 4375 3311 2553 2669 2568 2339 
2533 2877 1950 2596 3048 3500 3437 3578 3708 
3811 3868 3717 3883 4456 4451 4536 4395 3125 
2597 3313 3847 4647 2740 3067 2189 4200 4279 
2973 3478 4170 3607 4188 4460 2929 3037 4255 
2834 4389 3833 3662 3450 2946 4637 3715 4813 
4371 4420 4169 4664 4463 5082 3221 3920 2966 
3325 2904 3449 2821 2721 4000 3052 4480 3512 
3516 4007 3993 4632 3264 4284 4496 4567 3360 
3346 2628 2438 3186 4056 3676 2832 3983 4521 
4946 4705 4775 4361 4366 4742 4136 4797 3041 
3527 2808 2088 3078 3522 3599 2842 2907 3898 
3103 3188 3794 3907 2980 3771 4093 4648 4150 
3990 3412 2659 2848 3028 4038 3721 2365 3572 
3769 3590 3751 3226 3353 2648 3806 3714 4198 
5425 3347 4161 4202 4003 4519 2216 3828 2896 
3199 3365 4113 3096 2769 3370 3534 4559 4068 
2976 3298 2777 4012 2656 3238 3789 2867 3774 
3556 4086 3528 4240 2231 2268 3799 3743 3537 
3477 3615 3476 3826 3753 3482 3409 3642 4891 
4065 3754 4646 4001 2983 3614 3345 3309 3000 
3169 3260 3462 3813 3594 3317 3415 3518 4403 
3231 4130 3126 3005 2477 2168 2696 3388 2354 
3651 3931 3166 4504 3101 3634 3468 3242 3459 
3963 3956 4175 2694 2693 2838 2788 2984 2857 
2927 3020 4259 3829 3624 4019 3773 3344 3681 
4205 3376 3672 4700 3679 3143 3418 3183 3457 
3848 3402 3974 4134 3640 3987 3323 3204 4466 
4328 3944 2461 3090 3616 2895 3306 3979 3695 
3244 2698 3259 3730 4232 3897 4525 4291 3951 
4387 3253 3988 4440 4127 4870 2732 3542 3508 
2241 1741 2954 3825 3504 2726 4253 3705 4120 
3849 3011 3861 4374 4600 3434 3167 2757 3181 
3557 2860 3706 3392 4281 3092 4545 4359 3377 
3474 3526 4242 2286 3227 2558 2850 3655 3788 
3859 3881 2544 4075 3611 3921 4699 3571 4590 
2664 4444 4833 4806 4448 3860 4485 3001 4089 
2995 3100 3427 4306 3649 4133 4597 4046 4754 
3886 5026 4477 3140 3466 3746 4154 3157 3222 
3973 3422 4103 4084 4560 4979 3035 4340 3890 
2915 3767 2894 3563 3237 2993 3136 3236 3399 
3926 3191 4099 3652 4031 3856 4184 3275 4189 
2741 2484 2541 2683 2819 3927 3748 3952 4125 
2823 3108 4688 4872 3326 3327 2567 3941 3545 
2998 2617 2914 3229 3638 2707 3685 3644 4262 
3598 3139 3698 3055 2986 3066 3163 2293 3428 
3272 3107 3030 3837 3424 3613 3127 4506 4753 
3586 4061 4109 2614 3097 3948 3075 2947 2571 
3925 4237 3810 3550 3484 4295 4570 3241 3104 
4731 4937 2835 2539 3333 3498 4454 3393 3408 
4112 3356 3622 3744 3786 4105 3592 4315 3473 
4095 2972 3363 3316 3858 2780 3935 3762 3431 
4335 3588 3891 3200 4245 2419 3628 3981 3877 
3568 4233 4069 3324 4394 4207 4465 4617 5247 
5179 4443 4958 5076 3694 3023 3692 3864 3061 
3936 4402 4429 3452 3888 4349 2912 3530 3007 
3596 2928 3819 3230 3243 3558 3283 3044 4434 
4528 2722 3665 3855 4128 3210 4156 3970 4438 
3824 3414 3458 3016 2733 3470 3084 2358 2756 
3022 3663 4217 2760 3946 4114 3332 4246 3220 
2642 2552 2971 3161 2599 2991 3796 2807 2965 
3197 3205 4024 3867 3609 3502 3443 4386 3576 
2313 1857 2990 2337 2320 3109 3617 2815 2920 
3501 4020 3619 3680 3128 4468 3689 3863 2997 
4090 2931 3351 3602 3135 2817 3668 2893 2926 
2334 3601 3544 3198 3130 4176 2974 3184 3144 
4239 4772 3830 2919 2797 3486 3164 3305 4365 
3673 4165 3117 4083 3018 4531 4899 3608 3687 
3380 4235 3776 2755 4327 3312 3666 3582 3795 
3146 3088 4053 3872 4573 2979 3755 2763 3842 
3177 2906 3560 3366 3584 3429 3014 3874 3552 
2643 4081 4203 3686 3479 3850 4062 3513 3750 
4369 5001 3480 3093 3300 3702 4309 3239 4137 
3775 3359 2960 3110 3575 4614 3996 4347 3447 
4183 3595 2803 3827 3945 4193 3991 4077 3950 
3816 4472 3749 3805 4018 4811 4311 3631 4338 
4352 3610 5195 4685 3395 4116 4097 2826 3719 
4736 3159 3779 4102 3600 4158 3589 4673 4551 
4017 3123 3871 3777 2792 3419 3835 2428 3653 
3720 3383 3245 3541 3593 4990 3134 3739 4639 
4231 4080 3643 2723 1974 3491 2463 3295 4187 
4163 3233 3343 3043 3520 2925 3314 3329 3299 
2889 3975 4425 4201 3262 3661 3019 4256 3488 
4412 3168 4565 3852 3741 3760 3074 1904 3394 
3352 2353 3832 3533 4486 4288 4320 3420 3605 
3656 4204 3514 3218 4033 3151 3182 3068 2224 
2754 3904 3441 3914 3785 3900 2853 3660 4058 
4215 3554 3223 3042 3133 4146 3999 3261 3915 
4199 4561 2731 3737 3318 2800 3732 4250 4174 
4219 4591 3865 3965 3846 4479 4272 4258 3731 
3426 4252 3803 3224 4108 3296 3968 3627 3930 
3716 3629 3051 3876 4152 2981 4047 4598 3693 
4341 4999 3740 5294 3065 2619 3559 2917 3626 
3793 3036 3407 2550 3878 4157 3962 5224 4860 
4823 3436 3836 2551 4041 3969 3354 3597 3697 
3917 3291 3782 3064 4131 2921 4073 3637 4042 
4428 3267 2884 2874 2485 3091 3929 3216 4078 
2719 3688 4234 3725 4182 3736 3269 3901 3240 
4107 3531 4055 3916 3021 4192 4589 3587 4377 
4513 2892 3119 3704 3290 3787 3519 3141 3389 
3217 3382 3515 3461 2901 3780 3131 4238 3570 
3603 3671 4625 3507 3495 2913 3154 3421 3132 
4391 3691 3802 5101 4273 3658 4717 3384 3062 
3059 3562 2791 3069 3521 4505 3321 3798 3535 
4336 4044 3566 4602 4274 4943 3869 3625 4727 
4604 3895 3263 3565 4035 4194 3517 3342 3355 
4578 3430 3322 4300 4023 4135 5232 4926 4094 
5133 3646 3683 2489 4096 3049 3192 4118 2905 
4316 4009 4212 3635 4801 4040 4224 4638 3647 