# vtk DataFile Version 4.2
Generated by LIGGGHTS
ASCII
DATASET POLYDATA
POINTS 6000 float
-0.0136656 -0.017455 0.00602274 -0.0117666 -0.0183142 0.0059983 -0.00962331 -0.0217632 0.00602422 
-0.00976299 -0.0172142 0.00602354 -0.0115121 -0.0209348 0.00602397 -0.00648108 -0.022738 0.00602161 
-0.00743942 -0.02017 0.00601444 0.00139839 -0.0186758 0.00601091 0.00322134 -0.0195295 0.00599873 
0.00312346 -0.021791 0.00600031 0.0051987 -0.0198281 0.00599852 0.00263102 -0.0237424 0.00600734 
0.00294978 -0.017365 0.0059981 0.00488991 -0.0178528 0.0059998 0.00656907 -0.0228978 0.00605134 
0.00702861 -0.0186265 0.00599932 0.00782819 -0.0167958 0.00599825 0.000681934 -0.0167837 0.00599896 
0.00887407 -0.0203961 0.00599745 0.00901596 -0.0184034 0.00600946 0.0106752 -0.0195227 0.0059987 
0.0139134 -0.0195243 0.00599893 0.0122947 -0.018352 0.00599899 0.0141288 -0.0175302 0.00599868 
0.0106152 -0.0172001 0.00599958 0.0172801 -0.0165066 0.00599904 -0.021572 -0.0103053 0.00603708 
-0.020368 -0.00861343 0.00600239 -0.0171926 -0.0104855 0.00600545 -0.00965513 -0.0151894 0.0060364 
-0.00984176 -0.0116136 0.00601858 -0.012929 -0.0136252 0.0059995 -0.0162381 -0.00869054 0.00601062 
-0.014116 -0.00860552 0.00599917 -0.00840003 -0.00976958 0.00599662 -0.00653124 -0.0133301 0.00600559 
-0.003079 -0.0124492 0.00603306 -0.00179751 -0.0108643 0.00599913 -0.000858889 -0.00909758 0.0059988 
-0.0049812 -0.00909099 0.0060011 -0.000368055 -0.014766 0.00599977 0.000189333 -0.0114143 0.00601409 
0.0040165 -0.015621 0.00599984 0.000985109 -0.0132546 0.00600377 0.00485499 -0.0123356 0.00600014 
0.00317573 -0.0100267 0.00600473 0.00117968 -0.00960886 0.00599803 0.00728427 -0.00991909 0.00600079 
0.00706078 -0.0126859 0.00600021 0.00248236 -0.0119221 0.00600771 0.0089224 -0.0134168 0.00599929 
0.00938426 -0.015374 0.00599979 0.0133517 -0.0156895 0.00599999 0.0116216 -0.0122194 0.00599931 
0.0113823 -0.0153543 0.0059989 0.0104697 -0.0105845 0.00599912 0.0145582 -0.0140962 0.00599931 
0.0145847 -0.0104437 0.00599954 0.00912987 -0.00900097 0.00599914 0.0156182 -0.0123544 0.00599838 
0.011129 -0.00869198 0.00600116 0.0165799 -0.0106026 0.00600159 0.0134459 -0.00857636 0.00599882 
0.0154878 -0.0086594 0.00599964 0.0165507 -0.0143039 0.00599969 0.0202533 -0.0127915 0.00599789 
0.0212573 -0.0110653 0.00599935 0.0185957 -0.0111253 0.00600061 0.0180156 -0.00921206 0.00599942 
0.0220756 -0.00924325 0.00599894 -0.0202132 -0.00455772 0.00599776 -0.0189975 -0.00691776 0.00600102 
-0.0209873 -0.00671092 0.00600161 -0.018274 -0.00505329 0.00599915 -0.021892 -0.00345728 0.00600033 
-0.0202375 -0.00233398 0.00599701 -0.0204172 -0.00034391 0.00600298 -0.0178371 -8.70711e-05 0.00601712 
-0.0120269 -0.00822311 0.00600149 -0.0162755 -0.00498863 0.00600062 -0.0105291 -0.00636338 0.00600481 
-0.0111039 -0.00367572 0.00600092 -0.00938959 -0.00471529 0.0059992 -0.0100166 -0.00199522 0.00599886 
-0.0122489 -0.0053185 0.00600292 -0.0152618 -0.00694681 0.0060008 -0.014288 -0.00520171 0.00600179 
-0.0114575 -3.63761e-05 0.00599926 -0.0121999 -0.00189339 0.00599896 -0.0141907 -0.00159632 0.00600009 
-0.00707109 -0.00826057 0.00599883 -0.00833094 -0.00642816 0.00600896 -0.00425421 -0.00722814 0.00600775 
-0.00466672 -0.00520222 0.0059989 -0.00252906 -0.0018067 0.00600001 -0.00673883 -0.00169081 0.00599941 
-0.00114601 -0.00326019 0.00600558 -0.00566971 -0.00345506 0.00599834 -0.00140795 -0.00717676 0.00599893 
0.00195031 -0.0076851 0.00599811 0.00389542 -0.00816356 0.0059989 0.00276125 -0.00420097 0.00600263 
0.00611444 -0.00338139 0.00599825 0.00661587 -0.00531679 0.00599882 0.000678414 -0.00241681 0.00600032 
0.0046893 -0.00478194 0.00599915 0.000428324 -0.00638761 0.00600277 0.00294023 -0.00187327 0.00599851 
0.00126155 -0.000504936 0.00599997 0.008187 -0.00191589 0.00599783 0.00804131 -0.0039151 0.00600182 
0.000753559 -0.00441525 0.00600046 0.00324125 -0.00615935 0.00600153 0.00736896 -0.00717851 0.00599973 
0.0156482 -0.00439041 0.00599926 0.0138842 -0.00257669 0.00599898 0.0106618 -0.00507299 0.0059991 
0.0137958 -0.00652387 0.00599976 0.0118947 -0.00349685 0.00599957 0.00991447 -0.00321831 0.005999 
0.0159182 -0.00240702 0.00599944 0.0104567 -0.00129489 0.00599909 0.0136112 -0.000415104 0.00599971 
0.0206119 -0.00788063 0.00599916 0.0171453 -0.00741336 0.00599918 0.0232525 -0.00559022 0.00599926 
0.0236306 -0.00362902 0.00600081 0.0179905 -0.0034289 0.00599834 0.0212944 -0.0060008 0.00599976 
0.0174076 -0.00534171 0.00599973 0.0200533 -0.0028656 0.00600093 0.0218823 -0.00204408 0.0059997 
0.0176799 -0.00145416 0.00600082 0.0238537 -0.00164421 0.00599926 0.0197918 -0.00088408 0.00599974 
-0.0236984 0.00131615 0.00599927 -0.0192811 0.00129986 0.00599798 -0.0199702 0.00317762 0.00599996 
-0.0235669 0.00389759 0.00599988 -0.0216126 0.00431866 0.00599873 -0.017712 0.00409826 0.00600043 
-0.0173101 0.00204399 0.00599981 -0.0195171 0.00512641 0.00599997 -0.0231252 0.00590558 0.00599936 
-0.0226001 0.00794774 0.00599998 -0.0187518 0.00804395 0.00599864 -0.0138896 0.00269048 0.0060007 
-0.0113106 0.0051821 0.00599809 -0.012032 0.0019455 0.00599786 -0.0154178 0.00139769 0.00599878 
-0.00930781 0.00496679 0.00599981 -0.0105836 0.00332127 0.00600302 -0.0158012 0.00335977 0.00600116 
-0.012995 0.00625641 0.00599858 -0.0105926 0.00704933 0.00600014 -0.00867603 0.00272788 0.00599901 
-0.0122182 0.00833078 0.00602236 -0.0029173 0.000154456 0.00599908 -0.00674727 0.000308192 0.00599783 
-0.00672213 0.00230865 0.00599944 -0.00173099 0.00399373 0.00600209 -0.00739301 0.00425875 0.00599765 
-0.00482807 0.00166829 0.0059996 -0.00542541 0.0038852 0.00600084 0.000149619 0.00331473 0.00599909 
0.00570732 0.00735445 0.00599938 0.00731256 0.00395686 0.00599877 0.00373976 0.00597721 0.00599947 
0.0037407 0.0020652 0.00599927 0.0057577 0.00521302 0.00599969 0.00505235 0.000557638 0.00599984 
0.00783507 0.0010392 0.00599941 0.00758188 0.00805584 0.0060112 0.0110089 0.00547659 0.00599941 
0.0133075 0.00641823 0.00599969 0.0144062 0.00337622 0.00599951 0.0127518 0.00449798 0.00600006 
0.0160108 0.00456925 0.00600126 0.0126832 0.00236165 0.00599854 0.00978195 0.000585574 0.0059999 
0.00916948 0.00469493 0.00599982 0.00928219 0.00252088 0.00599876 0.015587 0.0067708 0.00599893 
0.00946452 0.00674542 0.00600009 0.0164648 0.00169019 0.0059991 0.0238536 0.00035332 0.00599901 
0.0204765 0.000993805 0.00599994 0.018358 0.00104751 0.00599854 0.0223564 0.00168036 0.00600011 
0.0202513 0.00297939 0.00600054 0.0230226 0.00636615 0.00600177 0.0189772 0.00482672 0.00599956 
0.0237628 0.00310327 0.0060005 0.0218996 0.00413456 0.00600426 0.0190913 0.00694837 0.00599929 
0.0171642 0.00800835 0.00600013 -0.0217376 0.00982426 0.00599934 -0.0197381 0.00979778 0.00599943 
-0.0208894 0.0116343 0.00599964 -0.019831 0.0133303 0.00599952 -0.0187738 0.0115476 0.00599954 
-0.0177363 0.00976702 0.00599896 -0.0167663 0.0146908 0.00599867 -0.0161299 0.0127884 0.00600572 
-0.0111549 0.0109518 0.00599997 -0.0130122 0.0102101 0.00600201 -0.0103697 0.00909671 0.00600341 
-0.0128119 0.0141538 0.00600319 -0.0132446 0.0121972 0.00599929 -0.0149587 0.0111697 0.00599891 
-0.0148058 0.0142859 0.00599856 -0.010857 0.0145677 0.0059994 -0.00959782 0.0125943 0.00601144 
-0.0089957 0.016512 0.00599939 -0.014041 0.0161331 0.00599964 -0.0112335 0.0165509 0.00599954 
-0.00886167 0.0144592 0.00599959 -0.00166669 0.0146617 0.00599808 -0.00540819 0.0144897 0.00600018 
-0.001893 0.0101033 0.00603735 -0.006868 0.0130466 0.00599854 -0.0060637 0.0109726 0.00599853 
-0.00296931 0.0119138 0.00600293 -0.003505 0.0138734 0.00599953 -0.000938858 0.0121756 0.00599955 
-0.000429466 0.0163306 0.00600002 0.000183018 0.0138353 0.00600358 0.00317853 0.0103865 0.00599903 
0.00234932 0.0122074 0.00599884 0.00603658 0.00947865 0.00600056 0.00458418 0.0146682 0.00599934 
0.00621525 0.0114738 0.00599976 0.00434649 0.0121803 0.00600206 0.00619007 0.0134741 0.00600521 
0.00119554 0.0101359 0.0059998 0.00310951 0.0160279 0.0060094 0.00820756 0.0116287 0.00600482 
0.00828471 0.0136259 0.00599992 0.0145586 0.00848267 0.00599934 0.010356 0.0085343 0.00599978 
0.0152769 0.0158032 0.00599937 0.0114982 0.0101748 0.00599778 0.0116218 0.0162905 0.00600011 
0.0147982 0.011991 0.00599884 0.00992349 0.0147704 0.00599874 0.0118061 0.0141061 0.00599962 
0.0221417 0.00885384 0.00600018 0.0195243 0.00892074 0.00599954 0.0167891 0.0117864 0.0060002 
0.0188301 0.0116856 0.00599934 0.0175824 0.0161224 0.0059997 -0.0157787 0.0178789 0.00599881 
-0.0137061 0.0196558 0.00600074 -0.011715 0.0193811 0.0059992 -0.0109151 0.0212134 0.00599869 
-0.012941 0.017802 0.00599962 -0.00700886 0.0167314 0.00599826 -0.00801958 0.0206493 0.00600101 
-0.0081853 0.0183438 0.0059997 -0.00743989 0.0226902 0.00599894 -0.00646756 0.0193889 0.00599963 
-0.00545562 0.0229308 0.00599979 -0.00445931 0.0207557 0.00600081 -0.00270324 0.0217119 0.00599963 
-0.00141248 0.0199985 0.00599925 -0.00109949 0.0238297 0.00599992 -0.000310187 0.0183284 0.00600478 
0.000564885 0.0202944 0.00599916 0.00590942 0.0189252 0.00599967 0.00160708 0.0220325 0.0060053 
0.00359797 0.0218032 0.00600419 0.00557636 0.0215105 0.00599979 0.00708333 0.0173033 0.00599962 
0.00297993 0.0185575 0.00599912 0.00141575 0.0173051 0.00599943 0.00464856 0.0173731 0.00600478 
0.000899899 0.0239367 0.00599835 0.00288096 0.0236693 0.00600044 0.00727951 0.02045 0.00600103 
0.00833976 0.0221475 0.00599982 0.00967771 0.0167568 0.00600018 0.0123743 0.0186717 0.00600947 
0.0103709 0.0186332 0.00600124 0.0102592 0.0215903 0.00599881 0.0146836 0.0188598 0.00599916 
-0.00968712 -0.0196317 0.00602248 -0.0134182 -0.0197179 0.00601084 -0.0155868 -0.0181383 0.00625975 
-0.0143961 -0.0190452 0.00782847 -0.0105421 -0.0213584 0.00775696 -0.0105299 -0.0182725 0.00757037 
-0.0125105 -0.0173222 0.00766836 -0.0123888 -0.0195066 0.0077603 -0.00853498 -0.0182725 0.00731005 
-0.00872203 -0.0202726 0.00766119 -0.0161719 -0.0176126 0.00841833 -0.0094118 -0.0173251 0.00893735 
-0.00901761 -0.0220592 0.0090116 -0.0136679 -0.0176984 0.00925385 -0.0133933 -0.0196631 0.00983279 
[...]
POINT_DATA 6000
FIELD FieldData 7
id 1 6000 int
493 701 569 372 1212 1169 1714 1300 186 
587 108 561 195 179 1455 631 1081 1464 
1737 533 192 297 986 1540 1242 955 5931 
647 1307 539 501 840 1651 832 154 102 
404 259 479 399 663 455 712 67 946 
497 772 1429 700 1360 115 227 419 129 
298 219 13 867 581 239 1658 1092 989 
3170 230 833 371 578 273 1098 3467 454 
1247 4470 6070 4671 5775 5740 15 4697 143 
2215 4001 2169 1986 1615 189 124 1072 1530 
392 810 551 825 1349 866 611 1040 1031 
762 1395 362 692 132 658 646 607 805 
359 351 1205 988 274 1219 1764 95 171 
919 1104 30 934 88 415 691 1938 2669 
784 1868 2852 707 1460 590 215 1131 530 
3440 5977 5980 5616 5599 3345 3349 5825 4484 
5411 4332 5610 2923 3131 2720 1352 3524 5011 
2618 168 2154 2920 737 1126 3546 196 2481 
504 2799 520 482 1149 386 696 968 264 
1123 311 783 1286 674 1442 440 226 604 
1822 773 1481 321 516 765 423 188 826 
181 267 446 686 1125 918 1301 5928 6003 
5684 2432 3594 5261 5248 3762 5360 3996 4787 
5066 5704 1249 4198 4903 1333 5348 5692 5392 
6 3918 1350 544 3382 3080 1076 278 666 
979 960 1027 1867 517 1617 397 2268 865 
1670 3447 824 427 450 582 228 263 221 
1478 1931 492 266 325 1179 5 642 4974 
4117 4176 3742 5760 4519 5344 4032 5557 98 
3924 995 2458 336 3632 689 1133 184 3254 
1965 1032 939 57 3410 2245 2682 3949 1043 
425 317 240 74 2643 505 1278 595 628 
1226 1574 1890 1463 40 231 1154 1753 685 
1130 1310 723 588 494 1006 1343 2341 1329 
271 197 1371 750 775 1093 735 460 378 
1362 1425 1707 1751 1026 509 563 1652 1747 
632 441 285 727 508 260 1053 534 1048 
1017 1106 961 344 2497 901 708 353 874 
1141 393 941 562 817 204 210 468 1265 
713 781 1426 764 1047 407 888 1167 618 
1120 2160 1576 1703 84 1155 347 100 104 
309 1611 1260 225 94 1246 72 1143 368 
1797 1128 86 1174 803 854 999 990 224 
391 1095 837 49 556 944 896 630 1473 
889 412 14 234 719 1739 158 1685 1015 
572 1643 1180 83 789 1416 547 1789 1704 
68 443 785 217 2040 477 790 981 957 
367 624 1504 349 656 1733 1273 73 64 
1176 1674 1766 2081 1988 1690 1243 364 1633 
2163 1119 296 458 2136 148 417 1951 2423 
1145 976 2220 1655 37 222 305 300 591 
714 287 216 717 289 214 1147 1680 608 
1605 687 17 1543 428 1153 1555 206 1914 
1188 2078 1231 722 525 637 2123 585 2261 
33 1201 1319 2076 1357 8 4536 2011 4497 
1640 1585 2931 909 1921 5020 5773 3853 894 
629 1449 1593 1860 1435 2147 1750 1814 541 
4358 1422 1342 1564 3062 2470 5293 4443 4160 
2243 137 3526 1877 1480 1491 5581 2082 3607 
87 599 2674 2834 1199 1203 1662 1793 908 
1569 565 650 21 793 426 716 1034 1089 
816 1107 191 1609 1535 872 1586 1673 603 
769 232 2092 1339 2224 1400 1963 814 778 
1405 1084 1502 429 161 868 141 514 1138 
1940 1235 871 1820 704 32 1527 1588 1388 
1370 1037 617 1288 1280 395 706 606 1434 
757 1828 295 1804 640 1994 1254 250 1175 
1142 1184 1283 978 1982 182 330 163 741 
552 549 383 1132 1317 142 301 12 456 
1332 1443 2061 570 380 829 176 850 131 
318 1004 498 522 615 223 1508 1334 418 
151 521 846 545 1060 690 166 237 992 
598 2010 738 275 683 465 1233 244 1452 
983 416 931 242 2097 160 155 782 449 
1323 949 457 1275 43 1274 576 523 947 
655 873 369 1575 510 241 1083 892 462 
1884 726 276 718 1193 811 1682 1202 904 
1070 500 584 980 639 532 558 550 61 
724 207 373 81 777 1549 1517 1064 366 
879 1518 1158 435 1369 1510 1045 1110 1266 
885 394 248 1087 2 1309 1012 710 792 
235 156 1799 891 375 48 352 664 406 
302 974 975 1869 703 437 680 1223 559 
1291 1964 2157 779 117 56 1367 2113 279 
99 123 2293 2093 1255 199 1978 620 797 
2793 360 256 483 2616 4792 1439 1407 794 
1813 348 1716 1054 1139 1603 1096 1228 1100 
1698 1428 1937 1723 172 1904 5048 1562 1906 
2192 4351 1221 1363 2238 715 46 3073 1475 
1692 4281 3346 758 2443 26 1827 1136 605 
1380 2013 876 1052 1007 1038 438 326 331 
1390 3104 1553 1908 3168 1023 2141 2606 878 
1810 3275 596 2673 2399 1928 1772 1936 1621 
2997 3911 2115 1705 4502 2402 1102 5508 4137 
2424 3248 5774 6014 20 3090 5556 5068 2595 
3538 6001 818 5486 4036 4880 5334 5882 5926 
4843 122 3117 5833 3083 4056 5623 5850 3295 
3422 5904 2549 5793 4388 5891 5353 2658 5324 
5824 5018 3997 5805 4335 4191 5052 5957 4965 
5930 5464 4055 1823 5987 6017 4421 5901 6064 
4720 5779 5677 5472 3730 3792 5131 5231 4909 
5799 5141 6031 1492 5281 954 693 542 5766 
3713 308 616 333 1495 1715 1127 4426 431 
511 144 1299 2171 795 574 688 2194 1028 
4628 614 1069 695 3152 4073 162 1809 2802 
139 322 859 4222 4207 2625 2167 402 2104 
3259 2179 2246 356 2647 1187 213 4408 1454 
5430 5047 2535 5027 1397 1993 4848 3078 3922 
537 451 258 529 1468 385 1001 540 499 
97 673 469 265 1447 211 526 1356 678 
1671 119 3027 459 2761 834 721 134 150 
543 627 819 515 1108 175 220 1151 1399 
7 335 410 1770 1024 2500 312 756 1420 
1913 1331 16 1387 845 1059 2504 1627 173 
165 481 932 272 1044 93 1293 1080 387 
1337 2177 1613 994 2117 118 1385 1311 1466 
180 382 1111 354 1438 1036 350 1166 2156 
2666 668 973 1718 253 753 345 447 856 
315 357 34 638 808 4 238 959 1441 
92 564 649 59 725 101 763 461 1118 
860 958 863 613 1186 341 634 205 411 
676 153 1074 2045 90 1479 771 1787 1085 
138 906 1086 1851 1506 524 770 1557 852 
1051 1786 720 567 1889 791 496 1695 1519 
788 471 527 1348 698 355 1417 1565 1148 
27 1544 1450 1354 916 2960 323 495 1980 
1458 174 594 636 1103 396 774 433 1105 
1207 571 478 728 1285 935 245 1584 823 
897 177 998 1248 491 113 855 1377 3188 
473 327 390 42 1925 1537 1539 1654 1501 
1189 2083 746 2020 1948 1 2601 1494 1259 
1713 1394 1368 768 512 699 54 2282 342 
1308 560 62 1624 475 730 1090 787 1476 
1919 1436 2711 902 1591 365 251 1601 844 
1197 1313 45 1220 921 966 1063 105 208 
2105 474 71 711 623 1696 3250 953 1886 
671 1950 2166 1947 2339 3121 268 1725 2142 
1645 593 1968 1263 767 1240 546 120 80 
1406 307 675 531 78 1374 3397 147 910 
3536 77 2751 937 870 106 555 1010 1979 
1172 633 729 2588 1819 288 554 759 985 
893 1451 984 2400 3150 1489 5287 4473 3837 
5708 5757 4356 2708 6002 5119 951 3492 5139 
5492 1879 3517 4446 4639 4461 4735 5568 5567 
5709 5722 5966 5994 5155 3478 4748 5714 5951 
4887 5571 5143 4277 4860 4912 4616 4659 5082 
5670 5271 4571 5976 6008 5938 5235 5604 5002 
5967 4367 4209 6058 5252 6000 3388 3881 5660 
5100 5999 4557 5398 5521 5836 5339 4201 5663 
5213 4769 5466 4850 5932 5335 5171 2417 4248 
1561 5246 4539 4303 2608 3494 1689 5563 4819 
749 4430 1099 2941 3652 5910 3191 4019 5701 
2430 3838 5474 4157 3401 3681 5138 1871 2847 
5178 5847 2405 3642 5741 4110 1957 4675 4299 
3736 3894 2249 5520 3822 1923 5839 5432 5154 
4150 6007 3045 3477 669 1117 651 47 140 
2358 1945 65 799 1392 340 652 743 1217 
2094 2463 1647 1594 751 3108 1347 200 1290 
2532 849 1989 2098 813 1717 853 2307 116 
929 2152 2954 2262 400 377 877 659 2772 
2995 2335 2492 3186 1773 2516 1281 1761 2621 
1541 3424 1876 3603 2828 2043 2146 1678 3731 
2879 2677 936 1477 622 912 127 1635 58 
635 1116 754 869 580 681 346 1058 135 
1250 1330 381 1225 1881 1214 1066 626 1796 
807 306 1872 1269 159 164 821 1427 38 
583 880 2107 1097 838 1547 1412 1109 1003 
969 145 1706 420 2132 316 528 2453 915 
409 861 2202 28 1736 1409 2127 1983 1949 
467 667 917 338 1842 2336 170 1929 592 
2116 430 2183 1402 2784 731 1146 187 389 
1039 841 202 942 25 943 597 439 1386 
270 513 82 1801 1784 1287 1520 1985 1162 
281 1211 1668 660 1192 1496 798 1528 1582 
178 452 1408 1050 1720 149 1019 1748 1959 
157 1094 31 1341 1952 1691 1710 2573 1897 
945 1735 645 963 1653 2055 1423 2465 2100 
1895 1818 1497 1160 503 900 1306 2137 1483 
2471 3 1005 167 379 269 938 414 1580 
51 2131 490 1159 1272 1445 812 486 434 
1509 1756 445 1967 1891 987 246 1046 1752 
1926 29 2165 802 1846 236 2904 3234 1101 
1191 2324 2038 2197 2219 2752 22 1693 2138 
1216 1340 2687 1533 1503 2120 361 747 53 
1033 2679 2263 3943 1893 1646 1071 1433 2070 
4453 3114 1708 5743 4969 4213 5808 5118 5650 
5498 4101 3591 5600 6048 5359 5515 5608 6024 
5719 5861 5816 4166 5993 4895 6050 4417 5792 
5713 4852 5730 5923 4907 4214 5460 5241 6068 
5245 4851 5712 6051 5806 5731 5948 5469 5813 
4541 5185 4545 2829 4246 3962 4107 4368 5400 
5721 5223 5046 5527 5984 4598 3778 2570 6049 
5886 2391 5800 4014 5703 3064 4950 5236 4063 
4723 5619 4525 5414 5736 5828 5612 3819 3649 
5311 5514 5403 3836 243 5896 4058 5301 4991 
5424 5389 6065 4172 5300 5075 4602 4407 4874 
5585 4972 5535 5383 5449 4833 5435 5879 5624 
5587 2642 4422 1630 1234 3402 1848 1785 303 
3606 313 1381 2313 2583 254 2308 4910 4901 
2735 2912 107 3225 2351 2684 2486 3101 2867 
5394 1600 4118 3863 3862 3960 4917 4610 2281 
2223 3373 3279 2714 4514 4489 4436 2789 4546 
4924 3740 4167 4100 5158 4413 2947 3047 4726 
4188 4330 3249 3572 3151 5099 4656 4711 3709 
4523 3563 733 752 2536 52 1424 1378 1927 
376 76 786 684 2041 485 1836 19 2291 
35 621 1453 1728 575 1068 96 1524 2099 
2501 1782 1661 75 470 1875 2242 2880 1915 
1383 881 2029 3154 1916 2632 2866 2300 1622 
2484 3626 2325 2373 3539 1769 4006 3127 4531 
4268 2899 2760 4486 4692 1008 233 448 110 
1009 111 277 1056 1322 487 363 424 847 
2449 1419 1614 1573 2162 2629 612 480 2478 
2080 2851 1847 2433 839 2074 2831 1734 2409 
1204 1556 1758 2109 2865 2915 2121 2548 2056 
2649 3369 1780 3771 3019 3725 3431 2421 2538 
3471 2925 3343 3905 1688 2265 2902 4133 2071 
3521 3720 914 566 1318 1365 1181 835 464 
996 971 809 670 1834 1014 907 600 3400 
2893 1583 506 2347 109 24 2375 2306 875 
2112 1403 1446 1981 1771 1649 2228 2494 2499 
1467 2746 2652 2126 3003 3380 3379 3893 1218 
2615 5630 5959 5195 5204 5280 5491 5786 6020 
5998 5522 5699 5458 5110 5707 4346 5869 5767 
5351 6018 5818 5206 5667 4369 5140 5763 3981 
5168 5379 4821 5844 3861 4561 3377 3463 3873 
5037 1011 3395 5381 1258 2661 6045 5355 4158 
4701 3022 5764 5006 4147 2993 2524 4323 4070 
4076 3635 4580 4494 3812 3845 4582 4937 3043 
3957 3655 3566 5307 3437 3945 5166 4657 3537 
4405 5013 5142 1115 3811 6055 4120 3936 5852 
2297 3611 776 1579 398 804 304 2290 702 
2288 255 79 169 2633 2296 1156 3084 1883 
2522 3227 41 91 1073 112 328 2640 2379 
3672 2018 1185 2436 2354 3122 2284 2050 3766 
3604 4463 2103 2786 3434 2585 2699 4145 3859 
3799 3576 4313 3614 3361 4012 4314 3885 4016 
1500 282 198 679 2596 343 830 2164 1656 
421 4424 3354 291 780 1182 890 2381 2004 
2729 3134 1984 3051 3106 1806 3469 2158 2657 
1742 2110 3567 3549 3274 3775 4048 3787 3716 
3659 4234 3937 2718 3072 1874 1251 1075 682 
2188 2274 114 89 2129 857 2376 2455 2009 
2007 1679 453 2028 2850 1030 463 2067 2656 
2457 384 2309 3091 183 5778 2345 4169 3800 
2203 2644 2744 2814 3133 3010 4601 5443 5555 
4597 2217 4955 4882 2464 1224 1222 320 1021 
1414 1253 69 466 519 1091 1421 1314 1592 
2396 800 1336 1457 2204 1992 1498 337 1844 
284 1057 884 1829 905 1295 2022 923 557 
2721 1513 2185 913 370 1078 2411 694 2250 
662 1953 1525 1316 2940 2023 1865 2491 1863 
3785 2765 3638 1482 2680 3016 1905 2622 2906 
3129 2987 3944 1805 1954 3596 3988 5232 4533 
4066 5662 3794 828 2006 1025 10 1572 152 
2328 553 1152 1552 1018 11 1022 55 1215 
1701 1523 2389 1013 1261 1355 965 619 2431 
2542 1312 1628 2697 283 1597 1382 1859 1514 
3693 2091 2332 2144 60 4412 2148 3735 4647 
5559 2541 2663 2425 2189 2059 3548 2614 1997 
5350 962 4236 1888 1536 3017 5375 1493 5117 
4361 4958 128 4840 1570 1778 4648 1660 4983 
2096 3694 2184 1840 1554 314 1486 193 2233 
293 3774 2264 332 2072 2725 3020 2683 2348 
5831 1808 2447 2653 2519 1729 2617 2046 1909 
3322 1854 5194 2612 1636 2016 2031 2919 374 
2962 3784 4420 1432 4090 1346 4591 3002 2890 
3281 2568 2748 4712 822 2742 2804 1173 3324 
2969 2186 2395 5384 5056 5544 1619 103 5012 
3272 2554 5843 1849 3071 3146 3340 2515 2310 
2929 4312 2759 4918 3501 2876 5004 2135 1448 
4963 3233 3753 3950 2485 5790 1229 1484 2514 
760 1620 1213 858 2075 1194 1411 2175 2482 
641 4896 2731 2386 2077 4691 4429 1744 1930 
2605 887 2269 1239 1292 5373 3224 50 2380 
2085 2051 2734 1577 1642 1328 2272 4841 3196 
5257 739 2014 1122 1461 1898 3474 930 3351 
2807 3983 993 4416 3031 3059 5657 4386 1991 
2159 925 18 1571 2111 2384 63 1664 39 
1738 1612 1462 1077 146 970 2118 36 261 
1515 1000 218 848 408 1531 586 1932 1041 
1917 1035 1779 294 927 1113 1837 1732 2260 
126 820 928 755 507 1232 1529 1124 2366 
1321 1303 2201 2452 740 1198 2057 247 2017 
1767 2212 1568 1802 1960 991 1899 538 1754 
1268 1345 3677 249 2730 299 2195 1990 643 
1892 1995 1638 190 1538 1144 422 133 1164 
2280 502 1999 66 201 1548 1843 488 734 
1016 653 358 1901 589 2237 2928 2058 1684 
579 1413 1042 2234 1719 815 1759 1134 1398 
203 1590 1237 1327 432 1900 1775 329 1681 
1020 661 1227 2350 2229 842 1210 1488 1741 
2406 2155 1082 2025 1657 1852 1922 1648 2315 
2321 2609 2459 1161 1430 1238 1526 2610 886 
1289 1625 2559 2756 4886 2531 1587 3075 2333 
3102 2738 2226 1444 1364 1245 1121 2418 4375 
1065 2413 1241 2329 2620 4121 1942 864 3262 
1792 3706 3187 2393 1389 3370 2456 1471 1866 
2416 1800 3592 2882 2119 3535 1683 3332 2540 
4271 2267 2252 2978 3331 2773 2651 3126 2561 
2378 1918 2000 3198 2678 4687 2722 2270 3897 
4490 1749 3857 3472 2513 1578 1788 2628 2862 
2285 2488 3928 1270 2564 2474 4673 3878 1939 
2963 2139 4520 3801 3195 3666 4829 3358 3149 
334 4103 3765 2886 130 2533 4285 3359 2977 
2935 4730 3444 4143 4287 4390 4861 3118 3303 
2747 3788 3532 4808 3966 4083 5001 3461 4655 
3529 2970 3223 5628 3908 5385 3060 2035 4135 
3622 2461 2225 5946 5539 2102 4674 5292 5356 
4679 5794 5266 5788 4976 5073 3176 5214 5229 
4728 4459 4807 5538 5105 2979 2705 3938 3980 
4573 3901 2462 4700 5442 5576 3763 5635 5554 
5815 3648 5690 5734 3258 3620 3455 5569 4651 
5900 5804 5239 4768 5846 3883 4776 5429 6028 
5125 5737 4959 5744 5631 3696 5309 3416 5675 
4961 5561 5446 6052 4801 5326 4370 5377 5725 
4897 5911 3820 5081 5296 5605 5607 4534 1150 
2209 1878 6038 761 3193 3302 1850 2569 2240 
2551 3171 3892 4757 3292 5029 806 3618 1545 
3507 3014 3109 2518 5163 3586 4105 5220 4425 
5173 4003 5310 4862 4758 1855 2754 4156 1546 
2258 3362 5986 4452 4500 3074 3099 2193 1598 
3553 5323 2302 4111 4226 23 489 2703 1665 
229 895 1566 1376 1731 518 1437 1372 85 
1366 2210 1384 956 339 1830 1472 1567 1558 
1326 1864 1344 1687 922 252 1325 310 1856 
898 2956 2248 319 1663 2360 1267 677 1755 
1666 484 1178 1244 1639 1114 2768 1163 1765 
1783 2577 2627 1817 2151 1271 1209 997 1659 
1183 2048 2401 1305 1743 1465 1815 1171 1791 
2277 1955 2521 1061 2283 2952 1934 3205 1781 
2392 286 280 185 70 1137 2429 665 1623 
476 405 1499 1157 1379 2145 766 1841 836 
1262 950 194 1304 2419 1393 1282 1618 1589 
882 940 705 601 2052 977 1700 1599 1256 
697 1055 2483 1699 403 2153 2298 1456 843 
2084 2567 933 2255 1973 1294 1088 1359 1824 
1862 2254 831 1794 1845 1062 2331 413 1776 
1760 1415 2024 2557 1129 1961 1353 2365 1606 
1165 1946 2001 2032 1774 2412 2670 1903 1252 
2367 1697 2580 2771 1029 1512 1757 1208 548 
1996 1474 1629 257 125 1595 577 3011 2008 
1297 1002 2108 2710 654 1487 3627 2917 2819 
3708 3420 4381 1200 2582 1858 948 2049 1894 
1049 2343 2230 1276 2505 1516 1839 2528 2161 
2352 3360 2388 2187 2706 1873 2357 1302 2574 
3044 3831 2479 3105 1902 2700 2086 2709 3641 
2079 2253 796 967 1721 2520 926 1987 899 
1190 1284 1812 1604 2785 736 1608 2087 2545 
3319 2437 4718 1375 745 648 2286 1361 1835 
1279 2303 5776 1277 2898 827 4949 1298 2289 
2810 2221 1977 2589 2739 2322 3390 2591 3488 
1431 5611 2704 2809 3232 1607 3917 2855 4377 
3698 3732 5146 625 3888 1469 4216 4354 2878 
5199 5208 4310 4727 5419 5728 5537 6040 5803 
4617 4129 5758 4900 4677 4152 5638 5919 6026 
5409 4920 4834 6006 5656 5095 4820 5578 5116 
5256 4343 4428 5622 5685 5090 5565 5461 5590 
5135 5028 5040 4894 4229 4341 5321 5821 5130 
5501 5878 4890 4023 4702 5039 5112 4747 4922 
6016 5358 4235 5439 4360 4739 5873 5676 5644 
6029 5618 3093 5059 5080 2921 5534 5584 5872 
5687 4391 4631 3856 5995 5290 4442 5150 5288 
5405 5196 3219 5939 5420 4319 5724 3623 4178 
5870 3462 5342 3578 4938 5308 3160 4028 5674 
3348 4664 4902 5519 4681 4232 4522 4719 4203 
5877 4278 3335 6023 6053 5669 5470 5494 5592 
4365 4977 3926 4668 5017 4595 5475 3238 5856 
3903 3076 5025 5227 4872 5858 3870 4995 5551 
4263 5791 5909 5224 2496 5144 4814 5137 4889 
5625 5276 3394 4612 4693 5543 2604 2553 3053 
1315 1206 1650 4400 2128 4661 2818 1135 2626 
3021 3970 3179 4696 3050 2911 2603 4049 4592 
4556 2191 2438 4197 2968 4925 2257 3192 2218 
4164 2440 3628 1972 3975 2390 3300 2619 2861 
2631 2723 3598 3645 3181 3802 5387 2864 2889 
2770 2414 3414 4256 4252 3605 3848 3407 2948 
2949 3135 3375 2397 3128 3817 3815 2859 3574 
2326 324 1335 742 2624 1230 2168 2088 964 
2063 1831 1616 1079 136 1505 2480 972 1924 
4327 2896 1795 2239 1722 2815 2106 1702 2408 
2312 2019 2976 748 2587 2613 2797 3419 2377 
1634 2346 2090 1910 3209 1626 1857 2292 2441 
2547 2849 2967 1880 1641 1727 2845 2383 2026 
3333 1956 2550 2342 2330 2638 3318 3790 1790 
2398 2172 1257 1974 4480 3353 610 1969 1712 
2205 3386 3520 536 121 3088 1724 1644 3534 
862 3688 1826 1911 4507 2435 1170 1358 2782 
1803 4007 1861 2311 2073 2571 2961 2420 2575 
1825 2334 2654 2901 2943 2460 3008 2214 2877 
2689 2778 5060 1730 3049 2232 2503 2530 3793 
2955 3307 4415 3920 3235 1798 4705 3772 2276 
4738 2685 5467 5502 1112 2983 2062 3096 4180 
1404 3481 6042 262 1296 2634 2526 2206 3046 
2510 4221 4372 3190 1470 3342 3180 2672 2779 
3942 644 2047 5238 5104 2527 4495 3070 4161 
4250 3518 1351 4577 3199 4516 3978 3629 4225 
4113 4708 2446 4676 1976 4485 5756 5700 2934 
3427 4607 4045 2775 5152 5418 3167 4136 4505 
4722 5621 1966 4704 4535 4108 2355 4783 5972 
4943 4054 4682 6061 4471 3026 3124 4863 4492 
2344 4037 5549 5015 5207 5975 5875 5177 5410 
4650 5898 4513 5468 6037 5739 5079 4844 5588 
4793 4770 5153 4952 5883 4987 5203 5864 5425 
3267 5071 4635 4913 4742 5354 4788 5992 5506 
4043 4501 4464 5968 3896 4549 5283 4618 3999 
5441 5531 5817 4759 4665 4119 5627 4939 4261 
2064 5523 4383 5647 4585 5322 5189 6022 4997 
5550 4732 5845 4986 5888 4165 5745 5941 5936 
4575 5964 5542 5211 5996 5336 5312 4406 4512 
3164 5717 5471 5366 5390 5404 4521 4568 5485 
4946 4827 4439 5106 4387 4669 5863 5960 5933 
4813 5906 4423 5637 5903 6069 3527 4775 5167 
5198 5094 5320 4684 5908 5295 5686 4779 5929 
5651 5718 5415 4734 3701 4249 5249 5243 4565 
4552 5145 4168 5440 3808 5371 5955 2863 2753 
4816 3201 3963 4338 2933 2724 3430 5762 4389 
3504 3865 2812 3826 4599 3898 5428 4017 4186 
3660 4021 5393 3409 3392 4973 4382 4966 3247 
5895 4954 3954 3457 3142 4878 3941 3453 5298 
5340 4781 3776 5349 5230 4403 2846 4154 4562 
3872 4350 5570 4170 4929 5327 4200 2646 3069 
4891 3525 3366 4427 3601 5802 4548 5201 4845 
4547 3000 5391 4746 5615 4981 4686 4124 3451 
4589 4835 5192 3325 2985 5723 5822 3608 2795 
5033 4340 3669 4242 2950 3393 3347 1418 2353 
2374 2798 4127 3141 2787 2964 2231 2476 2140 
2562 3712 3221 3242 3460 2913 3288 4317 3499 
3285 3433 3032 4106 3959 3991 2607 3286 4329 
3443 6067 2648 2764 2900 6034 3298 5444 2837 
3304 3707 5297 5781 2908 2844 4794 5827 2387 
5698 2871 3355 1887 4130 3446 1885 3220 4334 
3639 3858 4838 3876 3132 3294 2426 4260 4627 
2953 3921 5267 2888 3915 3100 3795 3496 3927 
2030 4345 3082 3184 4074 2924 2848 4279 3406 
5408 4293 3710 3243 3844 3089 4569 3583 2509 
5331 5253 5574 2806 3441 4809 3617 4804 3182 
5413 5275 5109 4806 4755 3498 4192 3767 5233 
1768 1581 5772 5180 4488 5810 3803 4220 3236 
4009 6043 3438 1935 3879 5452 5507 3041 2727 
3722 4112 1762 5262 5103 3237 4320 2984 3764 
4116 3907 2349 3306 1832 5784 2565 1672 2885 
2800 3473 4438 3038 3511 2788 6027 4441 3544 
3350 4971 4455 4092 3468 4749 5541 5455 3729 
4993 4196 3866 5456 2428 2758 4864 5643 4493 
3653 4846 4432 5222 4698 3542 5345 5961 5927 
5317 4683 5422 4393 4856 4756 5924 5445 4795 
5907 5526 5917 5694 5397 5101 3266 5548 5573 
4885 5997 4087 5122 5575 4175 5899 5490 5010 
4587 3751 3580 5036 5070 2560 5361 5981 4956 
4812 5871 5925 5244 5369 5782 6039 4653 5785 
4318 4837 5614 4378 5666 3684 5083 4640 5226 
4632 3895 4960 5478 4942 3479 5120 3610 4163 
5072 5513 4574 5096 4550 3929 2579 2966 5484 
5200 3933 4089 4690 5747 5165 4542 3589 4875 
5382 2853 3299 5547 5969 1816 4567 4151 5050 
1920 4159 4270 2534 5681 3541 5330 5645 5944 