# vtk DataFile Version 4.2
Generated by LIGGGHTS
ASCII
DATASET POLYDATA
POINTS 5999 float
-0.0177814 -0.0413338 0.0101861 -0.0140121 -0.0426732 0.0103111 -0.0100299 -0.0430535 0.010271 
-0.0195352 -0.0405174 0.0136873 -0.0158422 -0.0420489 0.0138386 -0.00632319 -0.044558 0.0102589 
-0.00235484 -0.044061 0.0103311 -0.00684554 -0.040598 0.010483 -0.00303898 -0.0403589 0.0116947 
-0.00973767 -0.0402199 0.0136999 -0.00833053 -0.0442293 0.0137038 -0.00436976 -0.0447875 0.0137926 
-0.00589761 -0.041128 0.014386 0.00871603 -0.044128 0.0102095 0.00178716 -0.0403589 0.0102931 
0.00154269 -0.0449575 0.0102726 0.00493153 -0.042832 0.0102559 0.00888067 -0.0409559 0.0131715 
0.000139901 -0.041737 0.0137001 0.00663297 -0.0444523 0.0136183 0.00424715 -0.0411253 0.013813 
0.00268969 -0.0449155 0.0141043 0.0146613 -0.0410693 0.0102335 0.0120633 -0.0433435 0.0122544 
0.0170564 -0.0416453 0.0133858 -0.0308492 -0.0327491 0.0102804 -0.0319749 -0.0316476 0.0139832 
-0.0248749 -0.0331642 0.0102085 -0.0214796 -0.0352812 0.0102272 -0.0214162 -0.0395398 0.0102554 
-0.0248461 -0.0374418 0.0103761 -0.0213751 -0.0313109 0.0107866 -0.0280007 -0.0352096 0.0116385 
-0.0271996 -0.0315463 0.0130407 -0.0231237 -0.0340841 0.0138771 -0.023535 -0.0300813 0.013987 
-0.0116487 -0.0393921 0.0102506 -0.018044 -0.0373323 0.0102596 -0.0143568 -0.0351027 0.0102641 
-0.0139821 -0.0311033 0.0104845 -0.0179397 -0.0333109 0.0103117 -0.0105955 -0.0333976 0.0102167 
-0.0148671 -0.0384339 0.0124288 -0.0114937 -0.0363153 0.0128076 -0.0199297 -0.0365327 0.0136959 
-0.0121842 -0.0324984 0.0137843 -0.0160367 -0.0303224 0.0138303 -0.0157454 -0.0343255 0.013952 
-0.0193558 -0.0325845 0.0139977 -0.00632161 -0.0311605 0.0101749 -0.00847736 -0.0369533 0.0102486 
-0.00236216 -0.0305993 0.0102486 -0.000830477 -0.0373278 0.0102995 -0.00390189 -0.0342533 0.0110613 
-0.00752445 -0.033979 0.0127488 -0.00549611 -0.0374253 0.0129103 -0.00821277 -0.0301093 0.0136 
-0.00431349 -0.0309974 0.013718 -0.00154457 -0.0341604 0.0143889 -0.000326088 -0.0304082 0.013725 
0.00674798 -0.0392675 0.0102369 0.00346971 -0.0365736 0.0102668 0.00862975 -0.0315236 0.0102877 
0.0043476 -0.0326591 0.0102765 0.00734247 -0.035311 0.0102651 0.000287472 -0.0335297 0.0108783 
0.00565733 -0.0373043 0.013547 0.00964736 -0.0366253 0.013263 0.00169327 -0.0380454 0.013556 
0.00367722 -0.0302936 0.0136763 0.00303164 -0.0342751 0.0136916 0.00710088 -0.0335843 0.0139964 
0.0107464 -0.0389988 0.0102203 0.0143525 -0.0370807 0.0102663 0.0167676 -0.0313959 0.0102217 
0.0182142 -0.0392038 0.010304 0.0128061 -0.0308426 0.0102697 0.0112666 -0.0345348 0.0102563 
0.0178844 -0.0352227 0.0105553 0.0144852 -0.0337572 0.0125072 0.0129532 -0.0395251 0.013516 
0.010872 -0.0321156 0.0135495 0.0165044 -0.0376856 0.0135865 0.0187843 -0.0323374 0.0135459 
0.0218756 -0.0351526 0.0102093 0.0207759 -0.0312913 0.010234 0.0246623 -0.0322596 0.0102577 
0.0285996 -0.0343572 0.0102909 0.0255894 -0.036992 0.0103191 0.0222127 -0.039137 0.0103862 
0.0281882 -0.0303602 0.0102679 0.0236377 -0.0340964 0.0136601 0.0201703 -0.03609 0.013721 
0.027251 -0.0358224 0.0137667 0.0239512 -0.0380631 0.0140678 0.0270265 -0.0318534 0.0142101 
0.0234742 -0.0300997 0.0136573 0.0316071 -0.0320145 0.0115233 -0.039882 -0.0208628 0.0100472 
-0.0327288 -0.0292185 0.0102433 -0.0360274 -0.0269518 0.0102958 -0.0328811 -0.0214435 0.0106703 
-0.0365581 -0.0230241 0.0108552 -0.0302613 -0.0254249 0.0102674 -0.0334591 -0.0249447 0.0126281 
-0.0307292 -0.0278394 0.0134246 -0.0346367 -0.0286507 0.0137129 -0.0391205 -0.0221347 0.0138229 
-0.0370331 -0.0255112 0.0143511 -0.0351394 -0.0216516 0.0143617 -0.0287276 -0.0291583 0.0102191 
-0.0289116 -0.021658 0.0101972 -0.0211578 -0.0273517 0.0102428 -0.0249993 -0.0208204 0.0102196 
-0.0219712 -0.0234332 0.0102395 -0.0255384 -0.025244 0.0102985 -0.0247252 -0.0291624 0.0102727 
-0.0276048 -0.0237232 0.0133703 -0.0229698 -0.0259587 0.0135306 -0.0266543 -0.0276047 0.0136091 
-0.0239826 -0.0221056 0.0138885 -0.0186934 -0.0211259 0.0102227 -0.0143969 -0.0270031 0.0102141 
-0.0111298 -0.024681 0.0102311 -0.0178925 -0.0250434 0.0103309 -0.0176657 -0.029318 0.0103174 
-0.0146094 -0.0223068 0.0102645 -0.010719 -0.0201813 0.0105336 -0.0118642 -0.0286145 0.0128619 
-0.015386 -0.0248651 0.0134487 -0.0196934 -0.0231772 0.0135173 -0.0121361 -0.0225279 0.0134498 
-0.0198149 -0.0286142 0.0137935 -0.00407224 -0.0237359 0.0102645 -0.00126532 -0.0267509 0.0102418 
-0.0088989 -0.028025 0.0102345 -0.0067675 -0.0207649 0.0103113 -0.000158831 -0.0228998 0.0102283 
-0.00506457 -0.0274792 0.0112693 -0.00757516 -0.0242652 0.0121276 -0.00187111 -0.0244916 0.0135262 
-0.000630005 -0.020686 0.0135557 -0.00456826 -0.0215481 0.0137715 -0.00855645 -0.0207985 0.0138925 
0.00375928 -0.022093 0.0102473 0.0065424 -0.0249657 0.0102602 0.00544755 -0.0288135 0.0102825 
0.00265904 -0.025939 0.0101977 0.00155565 -0.0297865 0.0102504 0.00954066 -0.0276281 0.0103053 
0.00694138 -0.0216995 0.0126429 0.0020542 -0.0237211 0.0134824 0.00762938 -0.029471 0.0135734 
0.00504258 -0.0264211 0.0136737 0.0170867 -0.0274081 0.0102105 0.0169119 -0.0232029 0.0103455 
0.0135032 -0.0256262 0.010306 0.0132383 -0.0216203 0.0103367 0.019785 -0.0204095 0.0102375 
0.0101495 -0.0238419 0.0115731 0.0122821 -0.0281408 0.0131729 0.0173761 -0.0253961 0.0136624 
0.016201 -0.0292195 0.0136917 0.0181217 -0.0214619 0.0137374 0.0134312 -0.0236087 0.0138484 
0.0105237 -0.0208668 0.0142226 0.0242891 -0.0242346 0.0102086 0.023158 -0.0280726 0.0102202 
0.0275479 -0.0214635 0.0102122 0.020398 -0.0251651 0.0102763 0.0200273 -0.0282604 0.0127844 
0.0267585 -0.0269532 0.0118031 0.0219727 -0.0224146 0.0129227 0.0260174 -0.022985 0.0135935 
0.0233056 -0.0261037 0.0137279 0.0299391 -0.029149 0.0137613 0.0300571 -0.0245707 0.0105119 
0.0378986 -0.024127 0.0102213 0.0356638 -0.0274538 0.0103377 0.0317335 -0.0281993 0.0103149 
0.0338456 -0.0232885 0.0102823 0.0364373 -0.0202401 0.0103144 0.0300549 -0.0216649 0.013416 
0.0385762 -0.0218849 0.0134808 0.0328611 -0.0256212 0.0133819 0.0339794 -0.0205638 0.0136543 
0.0339858 -0.0294578 0.013545 0.0369133 -0.0257464 0.0137603 -0.0436314 -0.0109239 0.0101599 
-0.0421987 -0.0155358 0.010366 -0.0409824 -0.0185857 0.013277 -0.0431136 -0.0128669 0.0136628 
-0.0385163 -0.0171033 0.0101825 -0.0319356 -0.0142549 0.0102635 -0.0305264 -0.0179974 0.0101805 
-0.0359311 -0.0140502 0.0101934 -0.0396166 -0.0124701 0.0102195 -0.03457 -0.0178284 0.0101731 
-0.0337484 -0.0106834 0.01022 -0.0367879 -0.0117071 0.0133223 -0.0392483 -0.0148624 0.0134253 
-0.0303298 -0.0123307 0.0133845 -0.0325866 -0.0186761 0.0135454 -0.0344335 -0.0151275 0.0137469 
-0.0370332 -0.0181704 0.0138163 -0.0243351 -0.0109775 0.0102099 -0.0233428 -0.0148536 0.0102618 
-0.0217282 -0.0185136 0.0103258 -0.0266126 -0.0171574 0.0102617 -0.0276124 -0.0132981 0.0106086 
-0.0218821 -0.0123853 0.0130514 -0.026997 -0.0101373 0.0130769 -0.0272893 -0.0197353 0.01333 
-0.0239873 -0.0174477 0.0135381 -0.0288673 -0.0160614 0.0134578 -0.0255207 -0.0137875 0.0140444 
-0.0201719 -0.0158349 0.0141879 -0.01595 -0.0181971 0.0102176 -0.0120575 -0.0164182 0.0102313 
-0.0119521 -0.012419 0.0102416 -0.019365 -0.0152747 0.0103021 -0.0182453 -0.0113126 0.0104404 
-0.0155093 -0.0142296 0.0105117 -0.0133659 -0.0187247 0.0132267 -0.0143005 -0.0117268 0.0134079 
-0.0172017 -0.0197676 0.0136793 -0.0120855 -0.0150146 0.0139993 -0.0161017 -0.0159275 0.0140888 
-0.0181168 -0.012394 0.0144102 -0.00286143 -0.0198852 0.0103296 -0.00428663 -0.013155 0.0102718 
-0.00822247 -0.0138678 0.0102601 -0.00559001 -0.0169398 0.0103955 -0.00153196 -0.016078 0.0103999 
-0.00675161 -0.0100022 0.0102281 -0.000730424 -0.0123701 0.0119285 -0.00890831 -0.01702 0.0126273 
-0.00949709 -0.0112033 0.0131653 -0.00460923 -0.0107863 0.0135285 -0.00330669 -0.0176957 0.013649 
-0.00590632 -0.0145793 0.0136489 0.00286299 -0.0129498 0.0102699 0.00585542 -0.0186865 0.0102383 
0.00644134 -0.0111582 0.0102315 0.00109114 -0.019098 0.0102628 0.00973948 -0.0196337 0.0103793 
0.00982861 -0.0154983 0.0102279 0.00610116 -0.0149155 0.0115613 0.00199779 -0.0160322 0.0126699 
0.00327304 -0.0197938 0.0135612 0.00772699 -0.0179239 0.0138464 0.00646828 -0.0119058 0.0141703 
0.00246909 -0.0118108 0.0142648 0.0180981 -0.013277 0.0102188 0.0131595 -0.012622 0.0102037 
0.0132178 -0.0176201 0.0103234 0.0172087 -0.0173514 0.010352 0.0158767 -0.0110397 0.0126825 
0.0150723 -0.0149786 0.012811 0.010209 -0.0125469 0.0129049 0.014289 -0.0196221 0.0136577 
0.0115731 -0.0166777 0.0138556 0.0238161 -0.0199862 0.0103285 0.0271954 -0.0132312 0.0102166 
0.0232142 -0.012686 0.0102208 0.0209872 -0.0160457 0.0102056 0.0285966 -0.0173584 0.0101978 
0.0248158 -0.0162476 0.0113471 0.0204133 -0.0107352 0.0123264 0.0268233 -0.0190748 0.0133465 
0.0213448 -0.0184683 0.0133688 0.025326 -0.0121351 0.0135795 0.0279809 -0.0152525 0.013582 
0.0298177 -0.0116969 0.013605 0.0218931 -0.014199 0.0136835 0.0317346 -0.0198577 0.0102659 
0.031077 -0.0142076 0.0102902 0.0354529 -0.0135224 0.0102297 0.0380411 -0.0165761 0.0102422 
0.0395149 -0.0119537 0.0103911 0.0343103 -0.0171067 0.0116059 0.0328721 -0.0105444 0.0110598 
0.0364609 -0.0109907 0.0131679 0.0388592 -0.0144014 0.013498 0.0332541 -0.0138405 0.0136646 
0.0310477 -0.0178111 0.0138184 0.0373879 -0.0180925 0.0139688 0.0434946 -0.0115249 0.010236 
0.0420088 -0.0159979 0.0101737 0.0404012 -0.0197857 0.0106054 0.0428153 -0.0138098 0.0134542 
0.0414102 -0.0175599 0.0138472 0.0403447 -0.0107312 0.0141102 -0.0409014 -0.00711351 0.0102511 
-0.0410073 -0.00310236 0.0101734 -0.044642 -0.00568003 0.0103786 -0.0449378 -0.00123647 0.0109279 
-0.0403574 -0.00986191 0.0131689 -0.0441255 -0.00850608 0.0133598 -0.0420765 -0.00506782 0.0135001 
-0.0414754 -0.000573069 0.0142565 -0.0370347 -0.00512972 0.010182 -0.0327155 -0.00180998 0.0102022 
-0.0324754 -0.00686868 0.0102502 -0.037432 -0.00911619 0.0103369 -0.0302628 -0.00439751 0.01264 
-0.0342498 -0.00429086 0.0129406 -0.0382033 -0.00250879 0.012986 -0.0347882 -0.0082442 0.0132232 
[...]
POINT_DATA 5999
FIELD FieldData 7
id 1 5999 int
544 514 482 477 215 144 333 828 27 
414 454 161 625 1092 589 856 1037 877 
18 455 250 122 307 901 495 1045 19 
120 97 862 924 520 598 1044 505 200 
107 52 135 379 145 228 551 450 271 
407 1506 1328 153 263 53 1095 158 426 
257 242 464 194 209 515 408 476 706 
501 336 1008 138 773 185 400 596 83 
203 246 992 230 364 41 404 777 567 
1033 109 338 247 608 46 760 245 690 
397 1358 47 605 968 1387 1176 154 1316 
966 557 274 440 115 512 285 1280 675 
580 764 434 1019 378 344 816 623 874 
33 713 1005 94 294 669 11 946 63 
724 502 302 49 402 1476 119 546 424 
704 1015 174 199 1166 1028 1418 1640 711 
504 469 952 684 776 365 371 1676 633 
1285 114 8 276 149 396 758 918 641 
102 392 937 2221 310 614 876 1042 844 
54 1036 858 1412 248 112 516 509 401 
210 350 1114 267 382 779 90 22 861 
136 413 249 348 57 1107 437 349 787 
659 223 525 803 703 741 639 360 281 
550 131 650 68 1537 125 533 1325 243 
668 311 664 374 84 345 487 674 1623 
1208 1722 1055 697 296 429 99 113 42 
175 815 190 951 201 808 964 205 616 
66 1126 293 168 1338 38 718 1152 994 
1482 1144 1494 317 875 353 1185 980 622 
833 630 117 848 39 1077 256 1083 635 
291 1288 859 1508 819 528 461 231 962 
1035 523 788 123 679 1775 43 927 142 
86 423 314 590 1180 372 1214 1262 853 
1057 1355 692 139 1503 802 686 417 92 
1584 1123 399 615 562 1212 163 1096 20 
783 126 72 1359 1772 1233 1830 731 447 
1071 485 1269 354 906 1333 884 619 1443 
369 496 221 821 58 584 612 1101 727 
545 1133 1130 278 903 1105 931 342 445 
543 500 831 1140 1586 441 427 1481 627 
1486 489 1027 710 1088 1569 830 1876 1728 
695 784 967 1142 322 900 1692 855 537 
1674 1202 410 73 393 421 1161 935 896 
389 934 933 1120 1100 48 1032 458 128 
108 842 751 137 241 418 914 367 1151 
693 796 134 604 292 1014 105 1009 1334 
24 756 511 558 813 12 857 224 766 
755 781 1351 775 610 890 5 16 463 
23 971 330 607 702 499 920 1567 1131 
998 1254 1128 77 352 594 462 667 1512 
682 677 229 206 78 346 563 1277 1460 
845 840 526 280 1300 300 1395 170 1106 
886 763 273 193 1168 370 678 1238 498 
734 305 375 384 560 517 127 297 719 
189 362 1478 81 432 286 956 171 527 
975 730 320 473 712 377 1426 564 984 
88 380 1197 1080 673 155 313 1073 1613 
341 295 1516 919 101 1294 1439 182 847 
586 745 1066 742 716 265 1018 239 1523 
1072 387 1024 535 657 214 915 949 303 
827 32 988 419 588 592 836 165 394 
244 298 556 331 1193 572 1086 70 436 
287 519 868 691 334 1237 301 36 1020 
957 631 640 191 260 721 996 64 974 
326 216 541 1085 1150 180 98 671 579 
79 225 80 283 646 186 955 130 266 
3 1040 576 910 337 356 75 480 626 
448 238 765 159 944 524 1583 50 991 
361 103 347 316 1124 197 522 656 573 
849 51 2 954 288 21 104 1016 1097 
212 412 923 891 1022 600 688 736 1220 
146 660 388 93 357 472 1346 771 439 
925 715 91 839 425 880 1745 62 1442 
258 1004 76 160 290 521 121 181 152 
926 1248 1246 791 628 332 28 406 569 
386 599 35 277 272 251 177 478 1103 
235 748 312 1611 929 1227 976 1670 638 
428 116 226 1368 227 799 95 329 1205 
571 928 1655 1084 1899 705 220 582 1053 
1136 306 61 383 255 851 96 304 513 
1725 339 275 14 798 118 1134 409 629 
133 497 204 89 1298 1571 2007 1703 1484 
259 642 299 264 973 166 1068 811 636 
15 6 140 1117 529 45 438 321 324 
829 30 666 1504 289 173 213 769 916 
507 195 143 433 415 59 327 129 475 
1025 1173 132 999 141 899 207 904 1290 
552 729 111 701 395 530 422 451 621 
1209 268 217 1489 343 446 124 474 532 
780 162 909 735 1790 1856 218 866 40 
1461 328 882 2618 1 913 602 885 1323 
67 995 1765 178 864 26 1386 601 2289 
1638 430 1119 907 1350 531 2254 1792 1213 
1433 1278 680 1171 100 1270 390 1098 282 
1477 997 1392 969 797 1194 2073 1957 1564 
1575 1164 1828 1995 647 1620 1861 795 566 
1326 2364 1079 2621 2464 2275 1547 3348 10 
1286 981 1650 1289 452 1834 1299 1589 65 
1846 1774 1690 1882 1602 1705 219 1649 2157 
2527 892 233 1446 1232 2165 665 772 1999 
883 1498 1878 1718 2031 1175 457 1488 1420 
391 1067 1632 696 1580 707 1471 852 1677 
1688 2109 1411 1614 1519 1284 1608 1434 147 
449 1850 1543 1365 1421 1169 1251 1258 1981 
2295 3008 340 1485 1756 1678 443 750 1188 
1013 323 889 2027 411 662 1187 1341 1186 
2416 687 1952 2044 254 1162 488 183 198 
548 1563 574 1416 493 279 1017 2300 1275 
1058 1949 1733 2143 1771 55 1043 953 1639 
2042 1463 1836 744 2067 1785 1026 2781 2347 
2145 1633 2185 1470 1779 818 1331 1242 1023 
1647 1605 1059 905 2292 1843 1734 1768 2150 
1538 1943 1437 1696 2427 2305 1179 534 2285 
1789 1855 1159 1944 1283 2065 2092 1210 1883 
1654 2191 1908 2470 970 2009 1754 1697 943 
1862 1074 1609 938 1274 1550 1170 1691 2345 
1483 1919 1456 1405 1686 1953 2136 442 1330 
1217 1191 1491 1406 785 69 872 1468 2296 
1182 2161 1780 1659 540 2408 1699 689 643 
617 652 518 471 800 1047 1652 902 1962 
1224 2053 1403 1954 37 2013 739 921 2328 
1327 1178 506 1829 2776 1093 2271 824 1064 
578 1389 1398 1113 319 961 1265 1592 2228 
1680 2004 1184 2743 1968 1858 1607 2667 854 
1407 1683 963 977 1345 2129 1561 1844 106 
1354 1955 2066 2557 1848 2430 2779 7 1448 
1672 9 2047 832 1749 1594 655 2209 2113 
1687 2304 1562 2714 1794 1662 403 747 990 
986 179 1525 888 1201 1555 1597 1587 2093 
1595 1814 2728 1881 807 1408 1636 2190 1404 
1174 2128 1012 1684 1644 1572 1240 2490 1753 
1701 1076 1061 211 1203 1966 1070 939 1979 
1177 1497 1710 726 270 1377 1913 1960 1628 
1852 1413 1183 1272 2091 1763 2594 1931 240 
1383 987 1369 1630 2312 1199 1223 1552 611 
1256 806 2277 1141 2301 2652 1087 2317 658 
1319 1132 834 1243 2278 1767 1347 1417 1811 
1308 1685 2426 1958 1642 1219 1663 1493 754 
1276 252 805 2565 1293 1905 1863 1372 1222 
1324 749 894 653 2205 1397 1893 2366 1730 
1961 1118 898 1679 222 1329 1385 1196 1860 
985 1250 1505 1215 1835 1759 1776 2774 826 
202 767 613 25 941 1500 978 318 2014 
2194 1318 863 2348 1268 2548 1902 2796 1231 
1235 1310 881 1429 1548 2307 1472 694 2299 
581 1317 1109 1127 1643 1315 1363 2006 1396 
508 1295 376 1618 1622 1099 1822 1081 1536 
1374 661 351 1380 1513 1155 2478 1507 2172 
1509 869 2104 575 1003 491 1839 1091 1356 
1263 2021 1479 1340 1588 2297 1888 1216 1454 
1927 2531 1428 1366 1030 1964 1125 479 1529 
483 2038 1809 1425 1049 865 1634 1838 1206 
2449 1694 2607 1281 1845 1444 1181 893 1967 
812 1279 1492 714 1348 2159 2240 770 1094 
1447 2256 1833 1145 1060 1886 1982 1702 1399 
1925 2346 959 1332 1921 2210 1629 2395 753 
1832 2086 1945 1041 1914 1517 1391 1577 1935 
1137 1573 536 172 1813 2466 1011 870 1557 
1948 1006 879 1624 2451 2036 1616 2290 1228 
873 1038 1221 1353 835 1122 2043 1719 1002 
2200 2037 2052 860 2852 1440 1769 654 867 
1744 982 1111 1225 983 110 1842 1357 585 
2453 2024 2537 1352 2232 1502 2441 1885 1928 
1522 794 2362 1362 1158 2001 2139 1804 1435 
1252 1496 2379 1992 1998 2258 1808 2154 871 
2762 2018 1871 1907 843 237 947 29 1975 
743 1615 1361 1455 1821 2425 2716 2140 1600 
2546 945 355 1226 942 878 1480 728 838 
717 1260 1720 1787 1342 1541 2335 2589 2458 
1599 309 587 792 1320 1148 570 1305 381 
1518 606 761 1895 1750 1593 1521 1578 1466 
1054 188 565 1089 431 148 1707 555 1381 
1046 814 1129 549 1501 1304 1360 1648 368 
1010 1487 1796 1831 1139 723 993 1445 253 
31 1306 1063 1031 2074 2264 2400 1911 1244 
2459 1778 503 1112 1977 1812 1291 187 757 
2072 1528 1761 1149 1297 1450 1104 1673 1301 
2651 1524 2269 2431 1576 922 2248 632 232 
817 366 1370 1940 2176 2237 1110 2319 1090 
167 1078 1052 2279 789 2242 1553 1499 1312 
1675 2260 1910 1007 2839 2414 1526 2529 1656 
778 1344 700 1255 1884 1936 1826 1870 1556 
1714 2398 2034 1997 1419 672 2367 2123 2386 
1449 1490 1430 1335 1394 737 1972 1879 459 
1367 733 1337 1462 1339 2133 2012 1574 1218 
2238 746 1153 420 676 453 2114 911 2452 
1546 1721 1154 1664 82 1766 2108 1898 2658 
1747 950 1311 979 930 484 164 87 809 
315 1535 1402 822 932 553 568 1743 1970 
1302 1241 1415 1229 2324 709 648 958 609 
1976 1682 1021 940 192 708 2115 2148 1469 
1082 1190 2156 1880 1075 1321 561 554 1069 
405 74 150 887 1236 358 1230 1115 2375 
810 539 1559 1511 1271 1400 1384 481 1207 
1056 1963 1441 13 740 1532 60 1566 620 
1984 1247 1029 1379 2152 1849 1827 2598 1192 
2212 1234 1135 841 1604 1459 435 559 1560 
2010 2225 2446 2318 2134 2750 2223 2660 1665 
1748 2622 2265 1343 1349 1617 790 1726 1257 
71 1373 1048 1551 2119 2160 2283 2837 2259 
3031 1853 603 1819 1001 1897 774 2406 325 
1102 2051 470 1971 2910 948 2155 2101 2022 
1801 1596 618 683 793 1309 1156 284 1540 
681 1625 644 1510 1934 1669 1314 2039 1841 
2203 634 2559 3010 2583 725 1436 373 685 
846 698 1859 416 2158 456 2090 960 2272 
444 1375 2040 1712 1698 820 738 547 1695 
583 965 1582 752 1424 2035 1163 1467 2219 
637 1565 2410 1393 2000 2054 1322 850 85 
34 1273 804 1267 363 1752 1423 1261 17 
2198 972 1121 494 2138 460 1757 151 1959 
1165 1296 1875 169 2460 1873 468 1388 1867 
1116 2629 2243 2032 2064 2956 1715 1474 2394 
1287 196 624 2055 2049 1172 1534 2764 308 
1755 2030 1923 1760 1932 1612 2434 2234 2236 
1791 1641 1160 1868 1475 1410 1303 4 2023 
2127 1795 2284 2403 1788 2211 2197 2099 2180 
2411 591 649 1000 184 2146 486 1167 538 
261 1631 1514 1195 917 1610 1401 2474 597 
1758 2813 1903 2992 1926 1108 645 1651 490 
759 1542 1591 577 1724 176 1645 1627 651 
1453 1050 823 1891 2497 1313 157 1249 466 
801 1336 1713 359 1579 989 2110 1708 1422 
1282 825 2147 786 1307 1554 1764 234 593 
1147 1266 1530 908 2372 2126 510 56 269 
1495 762 156 670 1364 1239 1062 1951 2542 
1973 542 1816 1390 1980 2081 1922 2384 2327 
1657 1211 2569 3162 1189 768 1570 1143 2514 
335 2690 1717 2680 2122 2843 2554 2775 2518 
1245 3284 2196 2641 2046 2257 2100 3086 3465 
2528 2999 2911 2938 3002 3106 2069 1259 1598 
3160 2845 3808 3564 2713 3155 3025 3142 3955 
2633 2720 1906 2686 3060 1777 1996 2349 2508 
2918 1869 699 2195 782 2303 2247 2847 1581 
2102 2250 2512 2977 492 2341 2588 3540 2801 
3471 3235 2245 1603 2987 3013 2421 1783 1661 
2417 2208 2963 3098 2862 3529 2851 2262 3319 
2096 3677 3822 2121 2612 2106 1590 2526 1681 
2084 1626 2098 2840 2968 3413 2433 3636 2958 
4100 3362 2435 3707 2308 2003 2825 1146 2351 
2383 1800 2959 2833 2975 2761 2506 3033 3256 
3099 2487 3315 3682 4002 1533 2472 2455 2187 
2624 2684 2953 2418 3174 2448 2378 3271 3095 
3207 3378 3761 2930 2377 2075 2355 2932 2517 
2606 3464 2545 3215 2332 3734 2871 3187 3650 
2855 4051 2499 2747 2467 2735 2809 1937 465 
2560 2611 2689 2538 2675 1802 2806 1865 2443 
2669 2568 2339 2877 2533 1950 2391 2646 1382 
2314 1991 2493 2041 2601 2135 1458 3193 2645 
2330 2556 2483 2239 3469 3125 2597 2869 2008 
2613 3094 1746 2746 3425 3391 3411 3851 3111 
3037 2929 1253 2291 2812 1619 2767 2396 3297 
3027 3303 2516 3122 3492 2795 3221 3920 2966 
2498 3082 2661 2532 2510 1983 1414 1727 1376 
2276 2183 2368 2486 2120 3286 2673 3539 2505 
3360 3346 2511 1824 2015 1978 2468 2765 2522 
3079 2111 2048 1866 2402 3249 2824 2739 3553 
2808 2088 3078 3041 1693 2562 1989 2964 1716 
3175 2515 2423 2338 2415 2280 3015 2717 3699 
2848 2659 3028 3721 2365 3572 2329 2173 2181 
2298 2943 3024 3124 1737 2105 2450 2025 1711 
1817 2216 3828 3199 2896 2656 3063 1378 2859 
2429 2639 2610 3238 3789 2061 3451 2886 1065 
1887 1773 2491 2385 2359 1700 3252 2576 2389 
2787 2829 2805 2268 3799 4089 2231 2226 2057 
2142 2282 2177 722 2816 3156 2151 2708 2363 
3375 2668 2387 3247 2880 2858 3614 2983 3345 
3309 3000 3173 2794 2399 2103 2674 2457 3072 
1781 3338 2581 3005 2477 1988 2916 2944 2182 
2870 3040 1942 3180 2694 2693 2838 1671 1668 
2600 1264 2804 2333 1889 2736 2540 3772 2549 
2666 2050 2671 2409 1840 2846 3158 2687 2520 
2432 3211 3690 2534 2519 3208 2461 3090 3306 
3616 2895 2179 2440 2071 2745 2420 1965 2005 
1987 3336 3924 2732 3542 3508 2241 1741 1198 
2709 2370 2322 2361 1531 3167 2757 1658 2116 
1803 2579 2083 2202 3185 2286 2665 1539 1924 
2935 3339 1896 1667 3368 3445 3881 2544 4075 
2163 2141 2688 1969 2773 3258 2206 2373 2082 
3029 2482 1890 3250 1916 3620 3548 3001 2995 
1793 2712 1723 2861 1431 2875 1807 3455 2772 
2251 3039 2444 3892 3150 1806 3140 3466 1993 
1917 1736 1452 1200 1815 1994 1877 2989 2678 
2207 2407 2922 3890 2897 2915 2577 1704 2392 
1568 1051 2786 2521 1558 2950 3453 2704 2741 
2263 2484 1637 2112 2130 2326 2595 2737 2573 
2820 3012 2863 3214 2323 2536 2309 2481 3326 
3327 2567 2541 3941 2215 2603 2357 1786 2978 
2676 1545 3003 3189 2059 2405 2125 1985 2204 
3129 3066 2986 1920 2118 2699 2193 2192 2885 
3569 2614 2584 1732 1660 1689 1941 1900 2220 
2798 3257 1901 2749 2343 2835 2539 3333 3498 
1653 2422 2770 2940 2814 2881 3363 3316 1805 
3499 2939 1735 1946 3149 3278 3506 2951 3633 
3757 3981 3877 3568 2883 2488 3387 3694 3023 
1762 1990 2068 2473 2827 1938 2677 3246 2572 
3121 2899 2169 2941 2344 2653 2912 3530 3007 
2026 2079 2077 2439 2752 2424 2070 2647 2222 
2504 2325 2306 1729 2356 1909 1825 1739 1585 
2564 2849 2476 2632 3574 3112 2828 2733 3470 
3016 1292 2094 2830 2630 2132 2217 2657 2969 
2164 2844 3071 3179 2738 3308 2465 2393 2570 
2642 2552 2124 2095 1432 2500 1851 1820 2649 
2887 1039 2404 2865 1930 2724 2854 2313 3009 
1857 2990 2337 1549 2636 2503 1646 1798 1956 
2442 2725 3196 2218 2249 3485 2382 2620 2524 
2931 3351 3602 3135 1515 1933 1738 2638 1915 
1621 2682 2316 3054 2802 3273 3439 2919 3486 
2797 3164 3305 1810 1797 2994 2253 3312 3666 
2445 1874 2462 2017 2934 2985 2011 3505 2763 
2615 3006 3390 3085 2604 2374 2785 3429 3014 
3874 3552 2701 2799 3053 1706 2592 2342 1409 
2587 3050 2789 2413 3700 2890 2471 3489 3448 
3480 3093 3300 3047 2178 2902 2923 2352 2214 
2274 1731 3234 2436 1947 2273 3337 3373 2697 
3213 3087 2803 1740 2759 2199 1465 1892 1204 
2543 2480 2167 2287 2447 3105 1451 1799 2213 
2201 2016 2608 2162 2961 2908 2535 3403 4017 
3123 3871 3419 3777 2336 2702 2888 2230 2029 
2492 1894 3398 2137 3463 2753 1918 2555 1854 
2609 2723 1974 2884 2340 2456 2175 2924 2321 
2751 236 1872 2288 3277 2625 2045 3304 2730 
3756 2233 3494 2925 3314 3329 1666 1457 2076 
2186 1527 1709 2281 2261 2982 2654 3251 2933 
2153 2655 1847 2679 2437 3741 3760 1904 3074 
1138 2020 2768 2019 2700 2962 3432 2227 2705 
3151 1427 1635 2898 1742 2495 2744 3138 3070 
2605 2734 2681 3178 3785 3900 2853 3660 2626 
2174 2331 2602 1818 2376 2578 3980 2097 2315 
2715 3170 4228 2672 3546 2731 3318 2800 3737 
1939 2900 2810 2547 3307 3232 2691 3280 3712 
2841 2525 2469 3733 3190 2635 3803 3224 4108 
3296 2310 2397 2502 3045 1864 3017 2729 3287 
3274 2184 2244 3225 2496 2062 3893 3745 2952 
3065 2619 3559 2917 2063 2089 2494 2078 2561 
2727 2644 3153 3301 3219 3358 3330 3369 3436 
3836 1912 1473 2711 2590 2580 2936 2822 2087 
3202 2703 2882 2390 2949 2311 2650 3267 2485 
2874 3091 897 1601 2784 2360 2957 3371 2627 
2748 3145 3116 3818 2591 3367 2475 3248 3736 
3269 3901 1544 2188 2903 2381 2988 3270 2401 
1784 2080 3292 2663 3212 2831 3397 2388 2892 
3119 3704 2380 2766 2876 3603 262 2670 2948 
3372 2706 2170 2631 2171 2107 2945 3114 2582 
3747 3034 3507 3495 2913 3154 2513 2033 2942 
3400 2872 2270 2593 2563 3460 2294 3293 3081 
3939 3937 3357 3059 3562 2791 3069 2575 2586 
2350 3201 3171 3266 3073 3895 3263 4035 3565 
1034 3004 2758 3442 3684 3646 2489 3683 2302 
1770 2229 2369 2692 3561 3341 2255 3752 3435 
3444 2085 1520 2793 2811 3823 3467 3843 3934 
2523 2235 2412 2778 2585 2909 3406 2144 3401 
2246 2058 2637 3268 3396 2479 3884 2060 2662 
3115 2501 3172 3738 2266 3285 3912 1823 2002 
2856 1837 2937 3120 2530 2574 3591 3783 3410 
3320 3759 3606 3176 2970 3487 3089 3538 3525 
3641 3581 3573 2056 2868 3630 3046 4455 2131 
3255 2866 3718 3580 3509 3657 3532 2685 2771 
3493 3288 2742 2836 3282 3804 4039 3118 3834 
3289 3713 2879 3722 3446 3279 2718 3792 4166 
3703 4216 2507 3056 3958 4464 4734 3961 3331 
3902 5177 2623 3845 3639 2864 4060 4618 4497 
2634 3972 3607 4124 3404 3862 3758 4367 4098 
4168 2783 2891 3032 3790 4129 3077 3440 3058 
3148 3778 4422 3654 3276 4358 5006 4392 4636 
6024 5163 3844 3334 3194 3723 3405 3302 4149 
3632 3523 3195 3985 3727 3547 3670 3977 4257 
4360 3147 4475 3361 3472 2371 3433 4139 3913 
3831 3763 4326 2955 4388 4310 3764 3349 4286 
4398 3152 3165 4248 3599 4738 3766 3967 3618 
3379 4066 3735 4416 4642 4072 4270 4918 4390 
5772 4818 4321 2616 3768 3350 4439 3623 4317 
4211 3894 3800 3675 2967 4415 3711 3083 4375 
4038 5535 4027 4609 3311 2553 4661 2596 3537 
3048 3500 3437 3578 3708 3811 3868 3717 3883 
4456 4395 4451 3919 4536 5032 4251 4424 4054 
3313 3847 2740 3067 4647 4200 2189 4279 2973 
3478 4170 4188 4460 5621 4255 2834 4389 3833 
3662 3450 2946 4637 4813 3715 4371 4169 4420 
4664 4463 5082 4550 3325 2904 3449 2821 2721 
3052 4000 3512 4480 3516 4632 3993 3264 4496 
4284 4567 4520 4543 4225 2628 2438 3186 4056 
3676 2832 3983 4946 4521 4007 4705 4775 4361 
4366 4136 4742 4619 4458 5340 4563 4993 3522 
2907 2842 3103 3527 3188 3794 3907 2980 4797 
4093 3771 4150 4648 4838 4707 3769 3898 3751 
3226 3353 2648 3590 3714 3806 4198 3412 3347 
5425 3990 4161 4202 4003 3853 4290 4519 4783 
4453 3365 3096 4113 2769 3370 3534 4559 4068 
2976 2777 3298 3674 4012 5112 2867 3774 4086 
3556 3528 4240 3743 3477 3615 3476 3826 3753 
3482 3642 3409 3754 4065 4646 4891 4001 4957 
4071 3169 3260 3594 3813 3462 3415 3317 3518 
3231 4403 4130 4560 3126 3908 2168 2696 3651 
3388 2354 3166 3931 4504 3634 3101 3468 3242 
3459 3963 3956 4175 3328 2788 2984 2857 2927 
3020 4259 3829 3624 4019 3344 3681 3773 4700 
3376 4205 3672 3821 4924 4523 3992 4117 3679 
3143 3457 3183 3848 3402 3974 4134 3987 3640 
3323 3204 4466 4328 3944 4064 3294 4914 4809 
3418 3979 3695 3244 3259 2698 3730 4525 4291 
3897 4387 3951 3253 3988 4127 4440 3817 3281 
4110 3998 2954 3825 3504 2726 4232 4253 3705 
4120 3849 3011 3861 4374 4600 4870 4876 4729 
3434 5367 3181 3557 2860 3706 3392 4545 3092 
4359 3377 3474 4242 3526 3742 4793 3814 3784 
5038 4171 3227 2558 4281 3655 3788 4575 4490 
4268 3611 3921 4699 3571 4590 2664 4444 4833 
4806 4413 4448 3860 4485 4406 4635 3100 3692 
3427 4306 3649 4133 4597 4046 4754 3886 4477 
5026 4970 4971 5688 3882 4154 3746 3157 3222 
3422 3973 4103 3819 4084 4979 3035 4340 4263 
4230 3596 3767 2894 3563 3136 2993 3237 3236 
3399 3926 3191 4099 3652 3856 4031 3275 4189 
4393 4025 4484 2683 2819 3748 3927 3952 4125 
2823 3108 4688 4184 3577 4872 3481 3545 2998 
2617 2914 3229 2707 3638 3685 3644 4262 3598 
3139 3055 3698 4142 4483 4572 4518 3163 2293 
3272 3107 3428 3030 3837 3424 4753 4506 3586 
4109 4566 4061 3490 4629 3613 3097 3075 2947 
3948 2571 3925 3810 4237 4570 3550 4295 3484 
3127 3241 3104 4731 4937 3549 4839 4923 4454 
3393 3408 4112 3356 3622 3744 4315 3786 4105 
3592 3473 4095 5827 3612 3858 2780 3935 2850 
3762 3431 4335 3588 3891 3200 3859 4245 2419 
3628 4585 3953 4233 4069 3324 4394 4207 4465 
4617 5247 5179 4443 4958 5076 4016 5170 5301 
3864 3936 3061 4402 4429 3452 3888 4778 5139 
4462 5110 4349 2928 3230 3243 3558 3283 3044 
4434 4528 4554 5510 3496 2722 3665 3855 4128 
3210 4156 3970 4438 3824 3458 3414 3873 3978 
3084 2358 2756 3663 4217 2760 4114 3946 3332 
4246 3220 4261 3910 4494 5033 2971 3161 2599 
3022 3796 2807 3197 2965 3205 4024 3609 3867 
3502 4386 3443 3576 4008 3659 3989 3838 3109 
2991 2320 3617 2815 2997 2920 3501 4020 3680 
3619 3128 4468 3689 3863 4594 3820 4029 3648 
3668 2817 2926 2893 2334 3601 3544 3130 3198 
2974 4176 3184 3830 3144 4772 4239 4419 3922 
4197 2972 4365 3673 4165 4083 3117 3018 4531 
4899 3608 3687 3380 4235 4327 2755 4452 4344 
4298 3887 3776 3582 3146 3795 3088 4053 4573 
2979 3872 4045 3755 4714 3842 3177 2906 3560 
3366 5138 2643 4081 3686 3479 4203 4062 3850 
3513 3584 3750 4369 4028 4331 5001 3905 3702 
4309 3239 4137 3775 3359 2960 3110 3575 4614 
4479 4347 3996 3447 4183 4555 3595 4747 4148 
4005 4193 3827 3945 4077 3991 3950 3816 3395 
4311 4472 3749 4018 3805 4811 3631 4338 4352 
3610 5195 4206 4685 4674 4116 4097 2826 3719 
4736 3159 3779 4102 3600 4158 3589 4673 4249 
3960 5346 3835 2792 2428 3643 3653 3720 3383 
3245 3541 3593 3637 3739 4990 4080 4231 4639 
3134 4364 5094 3295 3491 2463 4187 4163 3233 
3043 3343 3520 4090 3417 3299 2889 3262 3975 
4425 3438 3019 3661 4486 4201 4256 3488 4412 
3168 3852 3928 4565 4342 3781 4048 3394 2353 