# vtk DataFile Version 4.2
Generated by LIGGGHTS
ASCII
DATASET POLYDATA
POINTS 6000 float
-0.016805 -0.0168977 0.0122599 -0.00986252 -0.0216204 0.0122537 -0.0153633 -0.018358 0.0121851 
-0.00959945 -0.0194634 0.0120928 -0.011476 -0.0183586 0.012211 -0.0134068 -0.0177087 0.0125257 
-0.0133578 -0.0197516 0.0124135 -0.0117052 -0.0208605 0.0127556 -0.00865641 -0.0179936 0.0132002 
-0.0105028 -0.01718 0.013536 -0.0142909 -0.0188313 0.0139246 -0.0151938 -0.0168306 0.0135025 
-0.00801359 -0.0207206 0.0132072 -0.00784483 -0.0224743 0.0122327 -0.000294495 -0.0222151 0.012247 
-0.00345825 -0.0235839 0.0129705 -0.00156111 -0.0238561 0.0122463 -0.00377056 -0.0174373 0.0122729 
-0.00722364 -0.0191029 0.0122761 -0.00531363 -0.0232962 0.0122741 -0.00252232 -0.0190045 0.012532 
-0.00396847 -0.0217941 0.0122303 -0.00177644 -0.0208398 0.0122541 -0.00610222 -0.0214428 0.0125567 
-0.00173175 -0.0170902 0.0121968 -0.00478334 -0.0198657 0.0123147 -6.08156e-05 -0.0197981 0.0121955 
-0.00712728 -0.016986 0.0123321 -0.00558757 -0.0181118 0.0129479 -0.00181965 -0.0223087 0.0136145 
-0.000356511 -0.0209448 0.0138156 -0.000776171 -0.0187219 0.0137908 -0.00660731 -0.0230034 0.0138077 
0.000201245 -0.0178098 0.0122095 0.000962743 -0.0238262 0.012271 0.000909806 -0.022545 0.0138371 
0.00142196 -0.021163 0.0122925 0.00317311 -0.023695 0.0123212 0.0021784 -0.0192745 0.0122699 
0.00567257 -0.0213907 0.0122476 0.003843 -0.0205519 0.0122908 0.00604928 -0.0181172 0.0122131 
0.00511917 -0.0233073 0.0125681 0.004046 -0.0185584 0.0122852 0.00716371 -0.0227593 0.0122513 
0.00762491 -0.0208029 0.0122686 0.00785054 -0.0172186 0.0121919 0.00209344 -0.0170137 0.0122578 
0.00290912 -0.0219941 0.013346 0.00537676 -0.0196878 0.0132612 0.00754024 -0.0188398 0.0133428 
0.00107141 -0.0194774 0.0139277 0.00253127 -0.0181103 0.0138795 0.00859499 -0.0204066 0.0140006 
0.00907135 -0.0221809 0.0124365 0.00918538 -0.0195301 0.0123024 0.00980709 -0.0178054 0.0131632 
0.0128096 -0.0180789 0.0122856 0.0108284 -0.0212284 0.0123273 0.0152629 -0.0183376 0.0121937 
0.0111809 -0.0192523 0.0123193 0.0112962 -0.016768 0.012304 0.0138677 -0.019524 0.0131766 
0.0121829 -0.020518 0.0136197 0.0168345 -0.01696 0.0123362 -0.0193687 -0.0140396 0.0122321 
-0.0218026 -0.00999459 0.0121949 -0.020778 -0.0117102 0.0123008 -0.0187648 -0.0121097 0.0122702 
-0.0194377 -0.0101998 0.0126171 -0.0182949 -0.00853968 0.0123131 -0.0204214 -0.00849144 0.012278 
-0.0181452 -0.0154214 0.0131287 -0.0171716 -0.0131277 0.0129859 -0.0171775 -0.00839878 0.0139691 
-0.0174886 -0.0104474 0.012126 -0.00923657 -0.0163449 0.0122185 -0.0152772 -0.013183 0.0122132 
-0.0163676 -0.0148778 0.0120883 -0.0144499 -0.015492 0.012181 -0.0114066 -0.0160468 0.0121382 
-0.0143149 -0.0112354 0.0121944 -0.0104324 -0.0113748 0.0122835 -0.00857489 -0.0104818 0.0122593 
-0.00834449 -0.0145126 0.0122511 -0.01102 -0.00938616 0.0121747 -0.0105138 -0.0136439 0.0120806 
-0.0133007 -0.0136512 0.0121677 -0.00872782 -0.0124878 0.0122848 -0.0129734 -0.00974517 0.0124289 
-0.0161901 -0.00861293 0.0122431 -0.012972 -0.0159888 0.0135277 -0.0124444 -0.0118333 0.0125764 
-0.00986974 -0.0149071 0.013578 -0.0155799 -0.010073 0.0134973 -0.0119593 -0.0141927 0.0136388 
-0.00948298 -0.00902011 0.0134635 -0.0151495 -0.0120097 0.0138441 -0.0144061 -0.0140915 0.013781 
-0.0114823 -0.0105047 0.0137692 -0.0107104 -0.0126025 0.0139 -0.00103205 -0.0151971 0.0123097 
-0.00529491 -0.0161428 0.0123326 -0.00484874 -0.0114627 0.0122524 -0.00161153 -0.00911218 0.0122851 
-0.00320018 -0.0103269 0.0122542 -0.00123476 -0.0131908 0.0123006 -0.0030831 -0.0124149 0.0123477 
-0.00635419 -0.0142049 0.0122508 -0.00428539 -0.0141018 0.0123457 -0.00301499 -0.0156596 0.0128144 
-0.00678082 -0.0120074 0.0122655 -0.00135642 -0.0111066 0.0122584 -0.004829 -0.00915498 0.0123332 
-0.00663277 -0.0100143 0.0124747 -0.00282442 -0.0138853 0.0137267 -0.00543517 -0.0129085 0.0135068 
-6.70192e-05 -0.0120605 0.0134675 -0.0071765 -0.0154382 0.0137183 -0.00489789 -0.0150742 0.0139957 
-0.000373944 -0.0140551 0.0138873 0.000232563 -0.00988718 0.0122588 0.00083083 -0.0143339 0.0122437 
0.000549859 -0.0160808 0.0131798 0.00400828 -0.0165861 0.0126463 0.00610998 -0.0161106 0.0124299 
0.00149463 -0.0124375 0.0122762 0.00658968 -0.0141773 0.0122447 0.00267112 -0.0151029 0.0124197 
0.00466393 -0.0147145 0.0122894 0.00315947 -0.0112204 0.0122782 0.00649312 -0.0105401 0.0123011 
0.00461215 -0.0098435 0.0122958 0.00261977 -0.0092903 0.0123297 0.00333599 -0.013215 0.0123656 
0.00687702 -0.0123666 0.0130441 0.00491676 -0.0120584 0.0127738 0.00799864 -0.0092227 0.0123486 
0.00612301 -0.00857329 0.0126307 0.00838561 -0.0111865 0.0124503 0.00157966 -0.0108017 0.0134352 
0.00118728 -0.00879618 0.0136374 0.00788306 -0.0155622 0.0135036 0.00555151 -0.0138555 0.0139255 
0.00544997 -0.0104515 0.0140085 0.0150921 -0.0163148 0.013151 0.00859127 -0.0141146 0.0122555 
0.00872422 -0.0127671 0.0137364 0.0131905 -0.0161158 0.0123033 0.00947844 -0.0159339 0.0123254 
0.0144684 -0.0145775 0.0122859 0.0120118 -0.0106637 0.0123 0.0157033 -0.0130052 0.0123502 
0.0101478 -0.00976829 0.0123731 0.0144693 -0.011218 0.0123536 0.0135395 -0.00928218 0.0123209 
0.0103041 -0.0117638 0.0123767 0.0125283 -0.0140926 0.0123455 0.0155373 -0.00952479 0.012355 
0.010557 -0.0137501 0.0123732 0.0164289 -0.0150002 0.0123648 0.0166063 -0.0112206 0.0123553 
0.0138965 -0.0129137 0.0132566 0.0119579 -0.0124098 0.0133033 0.0117471 -0.00884362 0.0131589 
0.00965044 -0.0145243 0.013979 0.0131569 -0.0104141 0.0139329 0.0091578 -0.00910899 0.0139839 
0.0166152 -0.00877802 0.0140397 0.0154213 -0.0141239 0.0139849 0.0134741 -0.0149606 0.0139845 
0.0176607 -0.0134165 0.0123263 0.018426 -0.0152792 0.0123896 0.0175356 -0.00943486 0.0123275 
0.0185667 -0.0116259 0.0123256 0.0196818 -0.0135556 0.0124111 0.0207793 -0.0118637 0.0123922 
0.0217509 -0.010097 0.0123389 0.0204572 -0.00852996 0.0122766 0.0224331 -0.00821768 0.0123152 
0.0197839 -0.0102319 0.0130838 0.0175837 -0.0106479 0.014005 0.0186342 -0.00878876 0.0138713 
-0.0225364 -0.00811553 0.0122627 -0.0191902 -0.00673074 0.0122644 -0.0211615 -0.00669695 0.0127752 
-0.0172408 -0.00681912 0.012742 -0.0230625 -0.00618144 0.0122891 -0.0177332 -0.0023693 0.0122101 
-0.017636 -0.0048684 0.0123752 -0.0215326 -0.00470246 0.012324 -0.0210352 -0.00109172 0.01229 
-0.0190529 -0.000830905 0.0122542 -0.0199105 -0.00299045 0.01225 -0.0224183 -0.00253668 0.0122699 
-0.023491 -0.00422558 0.012242 -0.0238295 -0.00114469 0.0125915 -0.0171289 -0.000281628 0.0123124 
-0.0196246 -0.00486124 0.0129155 -0.0185896 -0.00335208 0.0137288 -0.0199046 -0.00174781 0.0138316 
-0.0212451 -0.00331647 0.0137369 -0.017907 -0.00120378 0.013909 -0.0236923 -0.0031235 0.0139762 
-0.0142179 -0.00815873 0.0121854 -0.0152779 -0.00771997 0.0138348 -0.0122658 -0.00780735 0.0125215 
-0.0102188 -0.00753664 0.012212 -0.0122398 -0.00228543 0.0122767 -0.0141272 -0.00296653 0.0122934 
-0.0106063 -0.00554929 0.0122561 -0.0123986 -0.00460603 0.0122522 -0.0158019 -0.0017791 0.0122653 
-0.0159544 -0.00378363 0.0122948 -0.0106817 -0.00354706 0.0122493 -0.00883535 -0.00462024 0.0122567 
-0.0135435 -0.00627349 0.0122618 -0.0104589 -0.00134126 0.0123393 -0.0155325 -0.00586871 0.0122763 
-0.00892146 -0.00261432 0.0125069 -0.00845023 -0.000675343 0.0123724 -0.0140402 -0.00105825 0.0128862 
-0.0121948 -0.000314018 0.0126777 -0.0142826 -0.00469005 0.0133016 -0.0120154 -0.0061034 0.0135683 
-0.0128089 -0.0034446 0.0138316 -0.0110645 -0.00246422 0.0139124 -0.0102066 -0.00451534 0.0139338 
-0.0165623 -0.0026893 0.0138977 -0.00957857 -0.00641444 0.013741 -0.0157201 -0.000626658 0.0139692 
-0.00823265 -0.00668438 0.0122731 -0.00669162 -0.00798025 0.0123673 -2.12092e-05 -0.00788359 0.0123086 
-0.0030881 -0.00749609 0.0123719 -0.00164191 -0.00478673 0.0122764 -0.00505499 -0.0042552 0.0123394 
-0.00663036 -0.00548589 0.012274 -0.00653835 -0.00133022 0.0122803 -0.00710495 -0.00349445 0.012381 
-0.00130785 -0.000626051 0.0123161 -0.00348527 -0.00550829 0.0125758 -0.00477333 -0.0022763 0.0122565 
-0.0050235 -0.00676161 0.0122829 -0.00320011 -0.0035109 0.0124666 -0.00138914 -0.0026284 0.0123894 
-0.00302479 -0.00150208 0.0128507 -0.0048347 -0.000278116 0.0123593 3.64152e-05 -0.00588172 0.0123657 
-0.0078688 -0.00537744 0.0138439 -0.0013951 -0.00687186 0.0133565 -0.00760876 -0.00193333 0.0138594 
-0.00582394 -0.00294902 0.0138439 -0.000714824 -0.00410917 0.0139147 -0.00611591 -0.00692102 0.0139641 
-0.00434961 -0.00792463 0.0138632 4.64374e-05 -0.000276917 0.0137483 0.000419878 -0.00378078 0.0122805 
0.000389857 -0.00171243 0.0123757 0.00408573 -0.00791193 0.0123046 0.00567324 -0.00663311 0.0123533 
0.00401931 -0.000864343 0.0123486 0.00186369 -0.00720837 0.0122942 0.0059964 -0.00125371 0.0123417 
0.00189495 -0.00514577 0.012305 0.00524817 -0.0046712 0.0123755 0.00237769 -0.00200653 0.01235 
0.00464774 -0.00276335 0.0123332 0.00371705 -0.00595407 0.0124832 0.00760191 -0.00717769 0.0123667 
0.00662637 -0.00321682 0.0123972 0.00706048 -0.00529056 0.0129691 0.00170443 -0.000121737 0.0123564 
0.00795605 -0.00172054 0.0123386 0.00307011 -0.00373075 0.0130935 0.00127172 -0.00280086 0.0138166 
0.00299836 -0.00744426 0.0139283 0.00359358 -0.00201695 0.0140228 0.000837416 -0.00679262 0.0139667 
0.00498236 -0.000316849 0.0140248 0.00948574 -0.00788099 0.0123926 0.00847292 -0.00399406 0.0123817 
0.0148873 -0.00763658 0.0125208 0.0128954 -0.00738605 0.012384 0.0162468 -0.00302525 0.0123334 
0.0110438 -0.00662737 0.0123934 0.00915055 -0.0059075 0.0123676 0.0114102 -0.00130766 0.012376 
0.0120726 -0.00319661 0.0123438 0.0156778 -0.00494271 0.0123058 0.0138398 -0.00201134 0.0123951 
0.0139009 -0.00401169 0.0123309 0.00979707 -0.00249051 0.012497 0.0104485 -0.00437935 0.012365 
0.00957598 -0.000506102 0.0123402 0.0122218 -0.00510542 0.0129373 0.0145123 -0.000130116 0.0124821 
0.0140607 -0.0058863 0.0130257 0.0158119 -0.00132215 0.0134299 0.0122954 2.1874e-05 0.0135844 
0.0166458 -0.00418061 0.0140013 0.0149936 -0.00305362 0.0140055 0.0159692 -0.00606238 0.013939 
[...]
POINT_DATA 6000
FIELD FieldData 7
id 1 6000 int
1265 789 561 944 587 837 14 49 1789 
393 630 391 349 1455 631 1655 1737 158 
367 68 179 556 719 296 980 1416 412 
195 108 1605 443 1504 2220 1081 1176 2078 
533 222 227 297 591 714 37 192 305 
1242 419 639 428 525 717 1202 287 216 
986 1540 117 876 326 605 955 1136 1810 
4285 833 1048 1212 1130 569 588 1203 493 
727 260 429 1106 186 874 708 204 224 
1017 383 1132 1300 151 441 534 12 961 
372 1167 632 2497 1154 285 131 1714 508 
713 353 712 1464 584 500 1360 904 61 
1053 373 1158 663 1070 67 741 1045 558 
81 1095 785 1087 946 123 234 300 298 
700 279 348 620 56 2113 581 1429 1716 
1367 219 989 1658 867 550 1064 483 1054 
797 578 1255 2293 1908 256 1038 1938 273 
323 1827 707 239 1092 3250 13 1380 1063 
1096 3170 174 2192 3188 1248 2105 1772 1390 
691 371 105 2852 1098 2669 784 590 1131 
966 2142 1460 595 1793 1662 816 1226 1640 
565 1400 5020 4536 909 8 908 4358 1651 
1034 1569 1107 1963 1307 2931 142 344 549 
456 15 426 1317 552 716 21 392 399 
1089 143 650 810 4001 832 1986 501 102 
154 954 2061 514 1004 1586 301 259 1395 
455 607 551 1332 258 451 1349 1031 825 
479 1001 611 385 1040 762 615 772 1447 
678 988 829 522 673 362 658 1219 495 
345 532 1718 253 1205 805 692 132 171 
351 30 359 604 646 315 4 447 638 
564 919 88 1868 1764 516 594 1104 226 
415 215 187 1458 731 636 773 95 674 
934 202 1442 1159 1039 921 474 530 208 
765 1125 3 440 423 267 826 188 446 
686 1005 181 266 623 414 3853 1593 5931 
2011 1921 4880 5068 2595 4470 2424 5775 6014 
3467 4671 6070 5556 5774 5287 5904 1615 5567 
2549 693 3248 2215 189 1072 2720 1530 5740 
5610 4697 3349 5766 124 5011 2169 1715 144 
3713 3131 2481 499 537 4248 3524 2154 866 
1352 1468 1126 2799 3546 308 504 2923 1561 
737 340 3027 1123 529 752 303 651 520 
1477 264 196 669 127 696 912 386 58 
1945 1670 135 1392 968 1481 263 311 1146 
783 321 110 1635 448 1149 582 1027 1286 
482 427 397 233 824 450 1822 389 517 
167 918 566 325 282 1478 1301 1365 5 
1009 1008 1181 1318 642 492 421 1500 228 
809 914 505 363 5623 3837 5977 4137 5616 
4356 4484 5599 3440 1879 3517 5708 5571 4539 
5171 4332 5261 5757 4735 4277 5825 3492 5980 
3594 3478 4446 4860 5119 4616 4101 168 2618 
5360 2920 3996 2417 4787 4198 4368 5118 3494 
47 1333 2642 3080 1076 1630 6 2829 278 
666 5185 1350 544 3382 1867 4422 4545 254 
1848 865 960 2268 3918 689 2536 3447 1617 
1133 3254 939 1424 52 1579 4561 1785 1011 
2245 3410 76 2041 221 2596 198 3949 304 
1032 74 398 240 1043 776 317 679 2708 
4969 5411 5928 5498 5861 5684 5600 5993 4461 
5713 4417 4214 3762 5692 5248 2432 4974 5816 
5491 3591 4166 4541 5066 5650 5886 4213 5869 
4895 4246 5403 5704 5699 3819 2570 5721 4117 
3962 4176 5760 4903 5344 4519 5348 5392 3742 
4032 5959 5204 5630 5195 5800 5786 5280 336 
2682 98 995 5557 3632 2458 3924 5381 3861 
618 1260 547 83 217 2040 1047 1704 803 
981 364 1685 1155 854 1015 1988 1643 104 
1013 1243 10 1143 1797 1174 1457 1128 466 
1572 1414 1025 1829 2022 905 800 11 370 
662 1355 1382 2389 1316 2189 1865 2411 1261 
2148 1119 148 608 73 1680 957 624 2081 
214 889 1633 477 1473 790 2261 2233 1152 
1273 458 2184 1766 828 585 1869 1018 976 
1808 1552 2617 2328 2136 619 1701 1145 1215 
2163 314 1690 1892 1628 1597 553 2697 1022 
2962 2423 2072 3322 2542 152 3735 2144 2046 
1312 3289 3693 2332 60 4236 962 5559 3584 
2683 589 5194 965 2663 3290 1859 2431 4647 
2725 3020 2541 4983 1733 206 99 687 17 
1914 1543 289 1153 1147 1188 1555 1201 1319 
1439 2123 33 722 2418 435 2016 4420 2450 
2653 193 1486 1554 4792 2447 1840 2076 1121 
1729 332 1357 2616 1854 2612 1942 2456 2348 
293 1866 3774 2264 4121 3535 1432 1636 4784 
2416 1389 2519 1792 374 3370 2267 2474 2459 
4829 3002 4591 2378 2000 3291 2031 172 1231 
794 3073 438 4351 2013 230 331 3168 1553 
46 637 1102 2673 596 4375 3149 3346 4281 
2997 4502 3104 3275 3911 1221 4103 3765 2977 
2935 2393 3966 2919 3897 4687 3359 4271 4808 
4861 4712 4390 3857 4730 3444 3788 2886 3529 
2115 2533 817 197 40 701 1169 271 1006 
1574 888 941 1576 494 1890 1278 2204 2396 
1747 1426 990 231 682 1329 750 378 2092 
1021 1057 1652 2129 857 69 114 1075 460 
1362 1222 2345 2457 2007 1026 1679 2721 453 
337 685 1498 368 468 223 562 598 84 
309 781 896 764 94 2160 210 347 275 
407 2097 1141 242 1703 901 738 1274 1953 
100 1314 1575 1611 160 320 225 1120 1246 
72 510 999 873 1253 86 276 1224 775 
563 1462 2159 1592 1421 1077 241 1844 1992 
519 576 1508 1523 1091 1932 913 557 884 
1336 1991 2250 2940 1531 923 2185 1513 463 
2111 1917 1515 284 694 1041 970 1078 1295 
1525 2023 927 572 498 1517 724 207 1110 
1549 570 497 1180 1739 64 850 318 2 
1674 885 1012 48 1266 1309 1060 949 777 
244 891 156 656 1510 1223 1951 1369 792 
710 947 974 1799 1884 2006 523 437 417 
235 302 975 734 18 406 39 2234 680 
1083 1538 1995 1638 422 55 2384 1999 1144 
1684 2280 133 66 1775 1134 1164 502 2118 
1000 579 653 1413 2091 1548 1590 394 115 
129 1428 879 2960 1518 1103 1978 199 1937 
2093 1698 1228 1723 352 1562 1363 1584 1291 
758 715 3592 1948 1906 1813 1964 1475 2329 
1241 1476 1407 3187 1436 1065 3331 2237 864 
1759 2157 2252 1843 2540 1208 1901 2773 201 
2119 3011 488 1499 2651 1016 3198 1157 1852 
358 1800 2270 2025 26 177 2793 334 5048 
1603 878 360 268 1100 1139 1313 1904 998 
327 3706 2238 1368 2020 1263 1928 3928 2747 
3262 2141 2402 1692 2413 2443 2601 2978 2711 
910 768 257 2620 125 729 3118 2561 2678 
3126 2882 3150 2008 548 2253 2710 1683 1996 
1601 2520 1608 1749 3332 1190 2582 2049 3627 
2722 2343 2545 1023 1007 1374 2399 45 1052 
1197 71 711 593 953 2606 1725 307 1645 
546 130 1705 1936 3397 1950 1406 531 1968 
78 106 675 1947 2751 2166 77 3536 1621 
870 2588 1819 2339 893 1489 3319 633 985 
2400 967 1812 745 735 1463 1288 1673 723 
232 1753 840 628 1435 814 603 161 599 
868 541 629 1860 2147 894 1585 1535 1527 
1084 1707 1751 1371 2341 1310 769 250 1093 
778 1235 1138 1940 1370 395 87 2171 3526 
1422 1343 706 1564 617 1750 1820 978 1199 
1828 1814 2674 640 2224 1342 2082 1449 2075 
1425 1982 1339 1804 2243 1037 137 1213 2834 
1480 1491 1251 2514 330 1175 1283 2274 760 
1173 2742 1229 1452 846 793 511 1502 333 
97 616 237 539 1405 191 380 1609 176 
2194 1443 1028 521 1388 1334 872 162 141 
1184 155 1280 704 992 418 688 2010 1233 
871 295 627 1588 795 983 931 1994 139 
606 416 32 1434 459 859 655 402 757 
782 574 726 1254 925 1612 356 1142 2246 
43 1682 1044 1397 146 118 1620 182 811 
63 1239 382 1411 1878 229 1484 175 404 
753 211 540 166 1671 265 834 469 973 
721 366 545 819 1151 808 763 457 7 
248 150 683 1108 220 205 34 664 690 
410 958 465 153 1770 173 16 375 1275 
312 449 1024 1913 481 994 1787 1331 756 
1051 90 932 852 1323 369 387 93 272 
718 703 1080 462 1293 1348 649 1385 1111 
180 892 559 1354 1438 1311 23 1695 350 
1571 1193 2156 190 1664 1148 1036 2429 1376 
1731 1566 1980 59 856 774 274 238 357 
634 959 681 1105 433 725 897 1441 613 
92 863 101 860 341 1118 159 1186 113 
1539 461 1377 38 1557 1512 779 2083 138 
676 1074 411 823 1506 1479 1086 2045 524 
1189 1085 906 1494 771 62 471 1851 838 
1713 1786 720 409 567 1889 791 698 1519 
560 1565 496 788 527 467 355 916 1417 
1949 1919 420 70 1544 27 1137 1474 1881 
1595 476 1450 665 1623 185 280 1654 1220 
728 42 1537 571 82 841 478 1285 935 
270 396 245 942 1207 491 812 855 1211 
1801 473 281 1720 1925 390 1240 1408 1528 
3121 342 1308 1624 902 54 452 1259 1 
746 512 844 1019 157 699 1341 1501 1483 
2282 1520 1959 1090 937 730 1394 1748 645 
1895 963 1757 1987 475 787 1591 1451 1985 
251 1629 503 1423 365 1818 1287 900 1790 
1002 1974 767 1886 671 120 1580 269 1445 
938 1272 434 2131 1696 490 802 379 51 
987 486 246 445 1752 29 80 1046 2165 
1846 759 899 147 1172 555 554 1191 1979 
1926 3234 1216 1101 1509 2219 2197 2324 2752 
22 2687 1010 1967 2038 2904 1693 2138 2263 
1893 1756 1891 288 984 262 1646 3943 1433 
1071 1708 2526 2206 3046 2510 1721 1296 20 
2470 1492 5293 5773 4443 5508 122 4497 3090 
1247 818 3083 5833 6001 647 5486 3422 5850 
5793 5334 2658 5281 4056 5324 454 5891 4473 
5353 3062 5882 4160 4843 3295 3117 5901 5824 
4335 6064 5018 4388 4055 5805 5464 5987 3997 
4421 5799 3607 5930 5472 1877 5926 5131 1823 
3792 5231 5946 5635 4674 5229 5794 5073 5266 
2102 5581 5554 3176 4628 1127 431 3538 4639 
4426 1495 4036 4748 542 614 3152 2802 4073 
2104 1809 4207 695 1069 4191 6017 5568 4222 
2625 2167 3642 5047 5563 2179 322 1454 5430 
5027 3894 1957 5292 3078 2535 4408 2647 4848 
213 1187 3822 5150 761 5196 4807 6038 3193 
4319 2240 3477 4679 2551 3922 1993 1850 5029 
2569 4522 3462 354 526 1399 3838 2608 1689 
134 749 1356 2358 652 1217 65 4430 1299 
2532 119 515 751 2504 200 3652 1099 3108 
3259 849 4019 2098 1290 799 1647 1387 3191 
2307 543 2262 335 2500 845 1989 1717 116 
2152 3401 1420 929 2847 2492 165 2516 2249 
668 1627 2117 2954 2621 377 2405 400 2828 
1761 1166 1923 1613 2043 1337 2094 2177 936 
2761 2677 2463 1541 1466 1281 1678 3053 1315 
2666 3623 4400 3578 2553 1665 2703 1650 1117 
140 622 635 346 580 754 1058 1330 1066 
684 743 1347 164 1250 1842 338 1929 853 
770 1427 1594 1214 821 626 1269 807 1728 
813 880 1412 583 969 2772 1059 1547 1782 
1109 659 1097 1876 1915 145 1003 877 2501 
2132 1773 861 3424 316 2202 28 2453 1409 
2127 667 2300 1983 1622 2879 2336 430 2604 
513 25 660 943 869 1225 111 1386 1116 
597 1784 376 1668 733 381 178 1872 1614 
1453 306 1691 31 1050 1952 1162 1496 1847 
96 1192 1796 798 915 621 1735 2449 1094 
149 528 1897 2029 1706 2107 1661 1710 945 
2055 1497 1204 75 2100 1556 1736 1758 1875 
2137 917 2866 1653 1780 2573 2162 1419 2632 
2056 2925 3725 1160 1688 1769 236 464 361 
506 600 424 2478 1179 2306 996 1014 1834 
907 439 487 1056 971 24 480 847 1981 
2071 109 2433 1340 1503 1533 2070 2465 4221 
835 53 3114 1033 2915 1582 839 1403 2831 
2494 2112 2228 670 747 2120 1573 1446 1771 
3019 875 1734 2499 890 2652 2471 3400 1583 
1649 5743 3521 2109 3369 2746 2347 4133 4453 
3003 3471 2409 2629 3905 2126 2421 2893 2679 
2538 3379 3380 3893 5155 5139 5709 951 5143 
4659 5951 6008 5271 5966 5779 4571 4209 6000 
5082 5052 5957 4965 3730 5141 4367 5722 4557 
5663 5677 5466 5339 6031 4201 4850 5537 4900 
4909 5788 5199 5419 5356 4152 5105 5919 5758 
5538 5685 4976 5622 6002 4887 5938 3881 3345 
5910 5492 5670 5976 4912 5719 6003 5714 5235 
3388 4157 5967 5836 5178 5398 5660 6058 5701 
5424 3045 4428 4720 5847 5432 5994 4727 5213 
5521 5100 5288 5252 5335 4299 5839 6024 5932 
5535 4769 4617 6007 6040 4310 5520 5674 5803 
5420 5177 5409 4677 5817 5939 4959 6026 4459 
5208 5590 5724 5308 5090 5638 4229 5728 5470 
5256 5519 5996 4922 5028 5227 4028 5501 5669 
5565 5877 4303 4819 4107 1249 4014 5619 5246 
5400 5236 5223 2430 3064 2941 4525 4063 5736 
5154 5741 5046 2146 5138 5612 6065 1871 4675 
5301 3649 4991 5474 3681 5585 4833 5527 3186 
4110 4910 5435 4759 2064 4924 4172 3736 6022 
4150 4598 3603 4119 4602 4178 6023 3219 4938 
5870 4939 5845 3731 5099 5745 5405 5647 4338 
4568 4986 4719 4665 4546 5471 3963 5342 4661 
4049 4977 313 2583 3402 1234 2313 1927 2391 
6020 3606 3836 2486 5703 2684 107 1381 2867 
3225 2308 2735 4917 2099 2351 2912 5394 2335 
1600 4489 4118 3862 5311 2995 3960 2661 2789 
5158 4610 3863 2223 2281 470 3373 4436 4167 
3279 4901 4656 1916 2714 4100 4514 4726 2947 
4158 3249 4413 4188 3151 3539 3865 3047 3709 
4523 4711 2933 3572 4531 3127 4389 4021 3563 
3504 485 1378 2291 1836 575 1965 979 79 
786 57 2297 35 19 184 702 169 2633 
2296 2290 1068 2436 612 41 1883 2993 804 
1524 2354 91 1185 2522 2103 2018 2786 3635 
2880 3655 881 2649 2484 2284 1383 3799 3859 
2373 2242 2699 3361 3227 3084 3626 4145 2325 
3437 4006 3771 4486 4268 4313 3549 1931 2375 
277 1322 343 2080 2164 2643 425 255 2640 
112 1182 830 291 2851 1467 2074 2379 780 
2004 1656 2729 328 2865 1984 2381 3134 3051 
3434 1806 3106 2718 2548 2158 2657 3469 2121 
1742 3567 2110 3274 3775 3614 3431 3787 4048 
5604 5999 5461 4851 5359 6050 5792 5002 5730 
5808 6048 4852 5515 5245 5241 6068 5923 5731 
4037 5739 4129 5813 5806 5948 5608 5410 5875 
5469 5975 5015 4650 5627 4513 5468 5898 6037 
5549 4952 5883 5425 5153 4770 4788 4043 5864 
4635 4913 5968 5079 5460 4950 3778 5351 5707 
5075 5828 4907 5667 6051 5522 5389 4972 5383 
6049 5896 5300 4346 5624 5206 3981 5818 5514 
5414 5523 5189 4585 5712 5984 5587 5449 5458 
5879 5222 5207 5888 4732 4432 4383 5961 4997 
5936 4987 5485 5336 5643 4393 4846 5366 5941 
4165 3542 5863 5390 5550 3267 4439 3266 5908 
5404 4521 5686 5907 5717 5094 5312 4493 5548 
4756 5320 5573 4387 5295 5106 4885 5844 4723 
5767 243 4058 6018 5998 3101 4369 5110 3740 
5763 4407 4874 4494 5140 4698 4701 5168 4261 
4330 5166 3812 5345 4821 5379 5322 5526 4405 
6045 5013 5355 5927 5317 5762 3936 5917 4812 
4575 5614 5422 5694 5782 4120 4856 3684 5397 
5428 4837 3611 1258 3463 3377 3873 1156 5006 
5037 2524 3395 4323 5764 3672 2288 3022 3043 
4580 4147 3845 4070 3957 3566 5307 4937 3122 
4076 2050 1073 4463 4582 5142 3537 3766 1115 
5852 3576 3604 6039 6055 2585 2988 3548 128 
2987 3944 2906 1905 1514 4066 4648 1570 4517 
3988 2059 3733 5662 5034 5232 4457 3835 4296 
5350 3092 5074 4294 2801 4717 3931 3123 3977 
5991 4695 3809 2211 3721 4064 2938 3005 4233 
4745 3824 5746 3017 1227 5117 3281 4868 2732 
3317 1997 1909 1888 4934 2490 4412 5395 3597 
2614 2738 1493 5375 4361 4394 4840 5399 5562 
2928 4892 3784 4474 1778 6063 3432 5915 2190 
3338 3297 5061 3486 3951 3676 3012 4886 2537 
5093 4958 4050 2320 4433 5583 1542 5831 4477 
3159 4183 5682 3582 3846 4999 1660 2741 3015 
2005 3558 2932 5495 3773 4716 9 5436 3356 
4264 3588 4989 1485 4374 5942 4153 4025 4506 
3102 2822 4385 1578 2963 2701 2475 3590 2592 
5771 2568 2513 2999 3376 2862 2839 4520 3714 
4282 3464 2872 1444 5217 4020 4254 3658 3703 
2323 3465 4811 3613 4173 3189 4098 1532 2555 
5640 5579 4867 3087 2472 3177 3315 4857 5483 
4321 5940 2584 4205 2247 3470 2639 2909 2556 
3662 2994 2407 3671 2034 3564 2890 2750 5003 
5023 3867 1431 4798 2495 5797 3378 5091 4450 
4404 5985 1788 1943 1939 2891 1346 4673 3472 
2564 4090 3908 3461 3230 3651 4916 3425 5661 
2442 5043 3268 5001 2970 4655 2645 4134 5978 
4881 5504 2444 3246 3365 4478 4143 5628 4560 
5943 4526 3358 2469 4262 5218 2271 3025 3303 
1482 2376 384 2203 2491 2309 5443 89 1030 
509 1863 3638 4322 3794 2850 2028 3091 2951 
2814 183 4169 4955 5778 3930 2464 2744 6056 
3133 3010 4601 3550 2644 2077 5423 2445 5790 
4466 2552 3748 3336 5555 3224 2370 3016 3785 
1954 2366 2680 1732 1529 3129 2765 5373 1577 
2201 1194 507 1805 5954 3596 5841 2622 3328 
2212 3474 3482 2057 299 5021 2971 4185 4218 
2502 2337 2686 2946 2143 1754 1960 5820 4283 
3677 5680 3210 3309 2873 4002 3418 4904 1907 
2690 5937 5370 5111 4588 2404 3339 4778 4206 
815 218 1681 2260 1113 1900 1488 2321 294 
329 283 2452 2406 1536 432 1719 1042 1232 
661 740 2610 1327 1686 1256 2229 203 2425 
2315 1430 3075 2350 2609 247 1198 2058 3667 
1526 1082 4224 1161 3357 982 1587 1568 1648 
991 5971 249 3805 1870 1990 2372 3851 1676 
609 1774 2333 3065 5639 4836 2635 5897 1853 
5658 4199 1268 2200 2808 4219 6019 2539 4554 
2973 3654 4174 2600 3398 3147 4736 2314 3175 
2517 1238 1471 1297 842 2628 3902 1657 1237 
1398 1841 1020 2488 705 654 1918 886 1049 
1922 2756 1210 1894 5302 1741 2559 2155 1973 
977 2285 4504 3570 2531 1140 2226 2917 1487 
697 1289 1270 2528 3801 2419 1364 2576 1359 
1606 1560 1625 1304 1129 3314 2819 2700 3886 
3718 2860 4796 1602 2357 4666 5617 1697 2636 
3035 1245 3932 1903 2086 4244 3860 1740 2507 
3647 1711 5407 4688 4619 2599 5184 2974 3417 
5057 1324 3389 6004 1902 4083 2715 4287 3195 
948 3532 4805 2505 648 4490 1375 2139 4381 
2087 1276 3878 2810 2230 2574 2767 3420 4637 
5437 4033 1858 1873 3311 3360 3917 3831 1302 
5465 2187 4216 3448 1607 3256 3708 5055 4141 
3935 3666 3505 3798 2053 5922 5606 1709 4830 
3200 3491 3156 2095 4468 3214 5426 2922 4095 
4231 2591 5385 1835 3223 1279 926 796 736 
1604 1284 2303 2289 2437 1298 5776 2286 1361 
3622 3232 4069 2589 2739 3060 2221 3390 4354 
2809 2039 3888 2777 3698 625 3612 1469 5866 
3887 4223 4377 2986 3757 2317 3523 5325 3518 
2455 2175 2188 1930 2186 2804 5012 822 1619 
4896 5384 103 2009 2386 4658 2734 2656 2731 
5544 2554 5843 4429 3800 4918 3340 2876 3196 
3501 1328 2310 5004 2515 3983 2067 2217 3208 
5164 4841 739 3055 3950 4418 3351 3753 3059 
3174 5323 4532 4691 3233 5129 4978 4125 5257 
50 1738 1150 848 36 2380 2209 1779 2605 
641 858 163 956 1035 1567 1837 126 1292 
1744 820 887 2269 1122 2581 806 2051 1303 
677 1802 993 1642 1124 1767 2730 930 2085 
2754 1898 1817 1855 4204 3423 643 2807 3099 
5657 3031 1461 4593 2033 2623 4416 2485 5086 
3476 3251 5205 2327 5065 3326 5748 4491 2774 
4325 1791 489 518 339 261 895 408 85 
586 2210 286 1437 1618 766 1384 1326 1856 
922 1344 1558 928 1321 1472 1663 755 2248 
1700 836 2017 1325 2298 1599 310 898 252 
403 1393 2153 1862 1178 1267 538 1824 319 
1765 1244 1163 484 1639 1666 1114 1794 997 
831 1282 1183 4300 1659 1345 2151 1171 2401 
1209 1743 1271 1465 1252 2001 1305 1955 2367 
3205 1598 5649 1631 4267 2733 1815 2487 882 
843 1029 405 1379 2088 1262 194 1589 950 
601 2145 940 1230 2052 1079 933 1456 1200 
1795 2483 1699 1088 1055 2084 1516 2106 1294 
1760 2567 2024 2255 2613 1062 1845 1776 2331 
2377 2460 2254 1961 2388 413 2346 2365 1559 
1825 1415 2580 2032 1165 1641 1880 2359 2412 
2441 2557 1634 1353 2892 5885 2383 2276 4327 
2660 2771 2479 2670 3310 3316 4824 3240 2547 
5601 610 1977 577 170 2205 2108 1306 1257 
536 1803 2352 121 4007 2782 862 1861 1969 
2161 1839 2322 3044 972 3070 2961 2571 2073 
1826 2334 1911 3008 2654 1358 3688 3920 2778 
2214 3049 2706 2503 4415 2689 1798 2685 3732 
4620 4507 2868 4621 3641 2709 3124 4180 5609 
3105 4535 3678 1404 3096 4614 5467 4828 4884 
1112 2477 2030 3415 1277 4949 2634 827 2898 
2785 1470 3342 3180 3190 2672 4372 3942 2047 
2527 3629 644 3199 4225 4113 3978 5418 4708 
4480 5104 5238 2874 4280 4705 2704 2855 4577 
4250 2901 5502 3488 5611 3427 4161 5700 4676 
4495 2934 2446 1730 1976 4485 5152 4045 4108 
4722 4704 1672 2349 4607 4505 3167 1351 2775 
1832 5146 4783 4136 2355 4943 5972 4054 5621 
6061 3306 2878 4564 4516 4975 5038 5784 4275 
4682 5056 3324 2482 2462 2969 5539 5576 5214 
5125 5815 5900 2395 5569 4651 3763 5239 5690 
5846 3618 5734 2705 3272 5725 3258 5804 3146 
5173 2981 3839 2696 1849 3980 2272 3071 2929 
3455 3620 2979 3883 4700 4768 5429 5675 3938 
5377 5911 4961 6052 5442 5220 5309 2805 5561 
4370 5296 4008 4312 3194 5711 3416 4776 5511 
5459 3820 4237 3097 4935 4324 3577 5081 3475 
4515 5234 2448 3014 3302 3292 5310 4757 3160 
3892 3348 4758 4534 1545 3171 3507 3109 3926 
4105 2518 2637 5163 4425 5446 3870 3586 4862 
4003 3362 1546 5986 4664 4604 4527 4750 2258 
4384 3630 4761 2193 5123 2302 3074 4612 3940 
3004 3514 5019 5543 5085 4171 4111 4970 3280 
1372 2626 3179 1206 4278 1135 2128 3970 4696 
3335 1830 1366 3021 1687 3050 2438 2191 3192 
4164 2968 2956 2577 4592 3975 1864 2257 2218 
2360 2390 3300 1783 1755 1972 2619 2631 2861 
3181 2496 2414 2768 3645 2889 2723 1521 2627 
2277 3135 2392 3574 2770 3605 2048 3394 4252 
3414 2948 2949 2521 3407 2385 2926 3143 6041 
2784 1402 2116 2760 2183 324 1335 2899 964 
2168 2353 2818 2063 1616 2476 2911 136 1831 
2480 1924 1505 2140 2330 1722 1702 2815 2312 
2562 748 2408 2019 2440 2587 2976 3802 2797 
3285 3499 3419 2896 3598 1910 2090 2292 1626 
3209 2864 1727 1857 2849 3959 3790 2967 3848 
2026 2550 3001 4080 3000 3308 4985 2340 5031 
2251 742 3534 3088 2172 2624 592 3343 2398 
3154 3353 3520 1418 1724 1887 4334 1712 3347 
1885 3294 2239 2953 3132 3355 3100 2231 2848 
3307 2943 3793 2575 2311 2924 4260 2888 5060 
5574 2232 2877 3089 3184 4804 2509 3844 2530 
3082 3583 2955 3441 2062 3617 2607 4738 4488 
3772 6042 4009 4528 4192 1768 3236 3352 4633 
4068 3243 2779 3722 3386 3041 5262 2615 3220 
2265 1218 1762 3720 2902 4112 3496 3921 3858 
3764 3237 4320 4627 5267 3795 3639 5103 3915 
3927 2727 1966 1644 4116 3350 3511 2800 2420 
5756 4569 2984 3907 3406 4279 2788 5253 3473 
4438 3038 4809 3438 3879 5331 4971 3544 1581 
3767 5109 4749 4455 3468 4993 3866 2885 4092 
3803 4441 3182 6027 4196 5365 5452 5275 5455 
4864 4440 4220 5456 4728 5744 5095 3648 5737 