# vtk DataFile Version 4.2
Generated by LIGGGHTS
ASCII
DATASET POLYDATA
POINTS 6000 float
-0.0156172 -0.0181926 0.0146693 -0.0138724 -0.01934 0.0147772 -0.0122384 -0.0205186 0.0146591 
-0.00844306 -0.019471 0.0146774 -0.0116541 -0.0186163 0.0151269 -0.0104069 -0.0213309 0.0150234 
-0.00981851 -0.0180046 0.0145921 -0.00852343 -0.0222769 0.0150965 -0.013737 -0.0172242 0.0146536 
-0.0144158 -0.0181711 0.0163431 -0.0125664 -0.0174131 0.0164486 -0.0100025 -0.0195241 0.0160711 
-0.00829134 -0.0205968 0.016352 -0.0161876 -0.0172302 0.0163301 -0.0162273 -0.0175505 0.0193842 
-0.0116317 -0.0209033 0.0165687 -0.0132148 -0.0196945 0.016857 -0.00982768 -0.0217602 0.0168889 
-0.0113115 -0.0192147 0.0176199 -0.012956 -0.0183805 0.018406 -0.00927632 -0.0202644 0.0180995 
-0.0150145 -0.0186357 0.0182171 -0.0125158 -0.0203338 0.0187829 -0.0108009 -0.0213641 0.0187846 
-0.00965393 -0.0183023 0.0183249 -0.00890459 -0.0221216 0.0187582 -0.00996279 -0.0174229 0.0165178 
-0.0113389 -0.0172425 0.01803 -0.0139894 -0.0193347 0.0198342 -0.0102238 -0.0197588 0.0198348 
-0.0083925 -0.0205635 0.0199048 -0.0120488 -0.018967 0.0201691 -0.0116881 -0.0208758 0.0206471 
-0.0104468 -0.0177707 0.0201 -0.00988012 -0.0217412 0.0205496 -0.00864219 -0.0186144 0.0202768 
-0.0142332 -0.0173627 0.0195811 -0.0153529 -0.0184001 0.0209923 -0.0133475 -0.017924 0.0212876 
-0.0122737 -0.0170144 0.019799 -0.0083101 -0.0167115 0.0174821 -0.00828543 -0.0185204 0.0165644 
-0.00800873 -0.0224861 0.0205596 -0.00704975 -0.020927 0.0148106 -0.00695376 -0.0181255 0.0149994 
-0.0066325 -0.0229998 0.0148407 -0.00559458 -0.0195519 0.014648 -0.00364301 -0.0181616 0.014758 
-0.00458604 -0.0234205 0.0148422 -0.003631 -0.020167 0.0147634 -0.00308005 -0.0221008 0.0147965 
-0.00513063 -0.0214969 0.0147484 -0.00188694 -0.019187 0.0147186 -0.00206916 -0.0238302 0.0147307 
-0.00107616 -0.0220887 0.0147927 -0.000195264 -0.020294 0.0147297 -6.91239e-05 -0.0238848 0.0147533 
-0.000102071 -0.0182701 0.0147481 -0.00529535 -0.0170277 0.0146853 -0.0019807 -0.0175703 0.0158976 
-0.00208426 -0.0207793 0.0159231 -0.00658162 -0.0195622 0.0164459 -0.00503266 -0.0183212 0.0161897 
-0.00471584 -0.0202843 0.0164478 -0.00307368 -0.0191374 0.0164982 -0.00427078 -0.0222361 0.0164268 
-0.00289845 -0.0236976 0.0165483 -0.000964506 -0.019223 0.0164946 -0.00788162 -0.0225324 0.0169816 
-0.00777514 -0.0189748 0.0184672 -0.0073916 -0.020968 0.0181315 -0.00677578 -0.0229403 0.0186462 
-0.00761807 -0.0171766 0.019335 -0.00600545 -0.0231876 0.01674 -0.000877125 -0.0239362 0.016591 
-0.00171382 -0.0222439 0.0172532 -0.000210902 -0.0210763 0.0165837 -0.00660589 -0.0177813 0.0173675 
-0.005898 -0.0196517 0.0183267 -0.00543551 -0.0215782 0.0179495 -0.00395554 -0.0178934 0.0178208 
-0.0046925 -0.0233979 0.0183379 -0.00199925 -0.0183759 0.0180125 -0.00200628 -0.0203784 0.0179152 
-0.00391127 -0.0198597 0.0182353 -0.00342594 -0.0218006 0.0181873 -0.00573364 -0.017842 0.0191681 
-0.00270798 -0.0237247 0.0185819 -0.0012891 -0.0218803 0.0192379 -0.000758275 -0.0239224 0.0189861 
-0.000959628 -0.0167668 0.0174212 -0.006527 -0.0212901 0.0199216 -0.00677034 -0.0193132 0.0201738 
-0.00456254 -0.0216533 0.0198302 -0.00309368 -0.0187121 0.0196584 -0.00281097 -0.0206875 0.0198063 
-0.00164867 -0.0173275 0.0197642 -0.000909385 -0.0199098 0.0195201 -0.00607755 -0.0231714 0.0205365 
-0.00480934 -0.0196764 0.0200152 -0.00408703 -0.023503 0.020425 -0.00211435 -0.0236827 0.0207138 
-0.00013076 -0.0238777 0.0208845 -0.0039866 -0.0169236 0.0195704 -0.0069069 -0.0175821 0.0211831 
-0.00494249 -0.017944 0.021006 -0.00145771 -0.0188116 0.0211171 -0.00306905 -0.0220266 0.0213245 
-0.00299455 -0.0175404 0.0212814 -0.000139309 -0.0202988 0.0213431 0.000191135 -0.0226748 0.0177426 
0.000112155 -0.0187619 0.0181757 4.41296e-05 -0.0167487 0.0211736 0.000160369 -0.0167866 0.0190791 
0.000927771 -0.0221529 0.0148709 0.00209787 -0.0237675 0.0145939 0.00422763 -0.0235776 0.0146765 
0.0060906 -0.0227803 0.0146913 0.00181646 -0.0203625 0.0147539 0.003663 -0.0195501 0.0147737 
0.00190214 -0.018361 0.0147256 0.00562734 -0.0191162 0.0147907 0.00373022 -0.0175488 0.0147111 
0.00301574 -0.0219747 0.0148051 0.00484032 -0.0211397 0.0150806 0.00684227 -0.020759 0.0146797 
0.00759159 -0.0187294 0.0147517 0.00567355 -0.0171162 0.0149054 0.000317771 -0.0184624 0.0201621 
0.000619125 -0.0175414 0.0164682 0.00113477 -0.0238169 0.0163725 0.0010145 -0.0195029 0.0164208 
0.00278961 -0.0182441 0.0165146 0.00287137 -0.0202439 0.0164748 0.0051096 -0.0233386 0.0164562 
0.00675226 -0.0178895 0.0164925 0.00475382 -0.0177721 0.0165896 0.00313132 -0.0236888 0.01639 
0.00737797 -0.022698 0.0162614 0.00764713 -0.0207153 0.0165185 0.000568639 -0.0207973 0.0184541 
0.00175988 -0.021934 0.0166787 0.00569407 -0.0195175 0.0170052 0.00582695 -0.0215008 0.0167864 
0.00382048 -0.0219172 0.0170263 0.00834158 -0.0170009 0.0173283 0.00203517 -0.0194556 0.0181559 
0.00409413 -0.0201031 0.018057 0.00179632 -0.0174698 0.0181475 0.00566478 -0.0180382 0.018366 
0.00636847 -0.0229889 0.0180152 0.00732342 -0.0191677 0.0181865 0.00255235 -0.021361 0.0184862 
0.00366963 -0.0181651 0.018311 0.0042197 -0.0235835 0.0182653 0.00220447 -0.0233482 0.0185787 
0.00495103 -0.0217761 0.0187464 0.00553189 -0.0197226 0.0194965 0.00686606 -0.0210995 0.0184515 
0.000605161 -0.0224355 0.0196867 0.00152176 -0.0202646 0.0202136 0.00184945 -0.02379 0.0206068 
0.00233973 -0.0184502 0.0199749 0.00576878 -0.0231552 0.0199451 0.00765618 -0.0225951 0.0195924 
0.00822329 -0.0204821 0.0197903 0.00260778 -0.0219503 0.0203985 0.00447185 -0.018165 0.0201909 
0.00352371 -0.0201457 0.0201291 0.00382824 -0.0235659 0.02025 0.0045706 -0.0217401 0.0207308 
0.00647994 -0.0212047 0.0204647 0.00324293 -0.0166993 0.0196038 0.00851414 -0.0167784 0.0148738 
0.00849659 -0.0188889 0.0165896 0.00857582 -0.0223633 0.0178317 0.00877833 -0.0223177 0.0146727 
0.00904008 -0.0203789 0.0150997 0.00958 -0.0184652 0.0147049 0.0108954 -0.0212203 0.014753 
0.0114019 -0.0192862 0.0147956 0.0160528 -0.0176358 0.0147576 0.0114498 -0.0172803 0.0147779 
0.0133156 -0.0199301 0.014763 0.0132995 -0.017956 0.0151471 0.0100043 -0.0171628 0.0161648 
0.00978 -0.0217977 0.0163383 0.0121222 -0.0205711 0.0163766 0.0103177 -0.0197115 0.0164876 
0.0117522 -0.0183167 0.0165255 0.0153741 -0.0183829 0.0164953 0.00886683 -0.0222948 0.0211586 
0.00907863 -0.0203986 0.0179057 0.00970527 -0.0217874 0.0193921 0.01354 -0.0176229 0.0171128 
0.0138234 -0.0195911 0.0168706 0.0109335 -0.0211996 0.0179139 0.01156 -0.0193295 0.01826 
0.00986122 -0.0182663 0.018059 0.0149992 -0.0186916 0.0184884 0.013397 -0.0198954 0.0188307 
0.013333 -0.0179617 0.0193679 0.0116154 -0.017338 0.0185155 0.0164162 -0.0173708 0.0178865 
0.0100867 -0.0198046 0.0195316 0.0118502 -0.0207105 0.0198044 0.0147439 -0.0188917 0.0206231 
0.0157975 -0.0173924 0.0198008 0.0114558 -0.0189916 0.0207484 0.0131604 -0.0199721 0.0211965 
0.0119882 -0.0170697 0.0206037 0.0139797 -0.0171041 0.0210922 -0.0188358 -0.0147972 0.0145971 
-0.0199722 -0.0130658 0.0147819 -0.0179325 -0.0130114 0.0146461 -0.017076 -0.0166549 0.0145447 
-0.0190028 -0.0113058 0.0146628 -0.0210604 -0.0111152 0.0148461 -0.0168511 -0.0146864 0.0148322 
-0.0167221 -0.0114187 0.0145588 -0.0184209 -0.00939243 0.0145661 -0.0204672 -0.0091609 0.0145781 
-0.0179508 -0.0157259 0.0161441 -0.0193319 -0.0140834 0.0164074 -0.0197795 -0.0102843 0.016217 
-0.0185187 -0.0122312 0.0163969 -0.0205203 -0.0121612 0.0164924 -0.0175471 -0.0104475 0.0161021 
-0.0168953 -0.013409 0.0164056 -0.0219293 -0.00960911 0.0159548 -0.0171845 -0.016546 0.0179406 
-0.0213286 -0.0106686 0.0176053 -0.0185614 -0.0150918 0.0179547 -0.0186227 -0.0106987 0.0178332 
-0.019718 -0.0134846 0.0182816 -0.0206726 -0.0119095 0.0190656 -0.0174589 -0.0134656 0.0183378 
-0.0169075 -0.0117336 0.0174981 -0.0171356 -0.00925616 0.0182476 -0.0199777 -0.00912793 0.0178409 
-0.0196274 -0.0102607 0.0195146 -0.0217056 -0.0101906 0.0195671 -0.018607 -0.0121311 0.0192981 
-0.018956 -0.0146697 0.0198909 -0.0167682 -0.0112563 0.0194361 -0.0175641 -0.0161444 0.0199083 
-0.0199242 -0.0130703 0.0206146 -0.0176939 -0.00985914 0.0205323 -0.0171513 -0.0141394 0.0205778 
-0.0189697 -0.0113096 0.0210896 -0.0209747 -0.0113895 0.0210005 -0.0201062 -0.00956605 0.0213621 
-0.0222291 -0.00890479 0.0179172 -0.0185304 -0.00873856 0.0164785 -0.0186241 -0.00851737 0.0193709 
-0.0206061 -0.00851015 0.0196394 -0.0159126 -0.00958927 0.0145699 -0.0152307 -0.0158795 0.0146641 
-0.0145855 -0.0111005 0.0145832 -0.0118162 -0.0166474 0.0147368 -0.0133202 -0.0152631 0.014692 
-0.00991636 -0.0160063 0.0146923 -0.0114068 -0.0146746 0.0147661 -0.0114553 -0.00956138 0.0147965 
-0.015637 -0.0131093 0.0145792 -0.0103048 -0.011229 0.014754 -0.0116704 -0.0126939 0.014847 
-0.013655 -0.0129425 0.0147964 -0.00975226 -0.0132633 0.014828 -0.00885287 -0.0098447 0.014703 
-0.00837244 -0.0147278 0.0147616 -0.0127067 -0.011042 0.0152956 -0.0146644 -0.0142943 0.0158719 
-0.0141319 -0.0161724 0.0163473 -0.0112548 -0.0158844 0.0165143 -0.0127745 -0.0145793 0.0164993 
-0.0101431 -0.00989548 0.0162769 -0.0098118 -0.012097 0.0164892 -0.0153771 -0.0119549 0.0162161 
-0.0108224 -0.0138263 0.0164863 -0.00934713 -0.0151875 0.016492 -0.00833852 -0.0107435 0.0164325 
-0.0134548 -0.00886856 0.0161976 -0.00851232 -0.00875113 0.0164943 -0.0162682 -0.0149858 0.0189175 
-0.0161433 -0.0152102 0.0168646 -0.0138715 -0.0108227 0.0169141 -0.0117905 -0.0120746 0.016815 
-0.0120086 -0.0100934 0.0169801 -0.0136577 -0.0128079 0.0167934 -0.0157461 -0.0101509 0.0171159 
-0.00973077 -0.0163701 0.0188545 -0.0131686 -0.0164141 0.0180967 -0.0153197 -0.0135436 0.0176304 
-0.0123154 -0.0134978 0.0181352 -0.0136587 -0.00930984 0.0182076 -0.015065 -0.0116677 0.0182876 
-0.0107426 -0.0147284 0.0182766 -0.00964888 -0.010792 0.0179978 -0.00900783 -0.0138014 0.0179031 
-0.0151695 -0.0165234 0.0180234 -0.0142745 -0.0148734 0.018736 -0.0115102 -0.0108908 0.0187521 
-0.0105431 -0.0125902 0.0183299 -0.0153592 -0.0098619 0.0191066 -0.0138925 -0.0129762 0.0192509 
[...]
POINT_DATA 6000
FIELD FieldData 7
id 1 6000 int
197 1574 1130 874 260 1169 1106 727 569 
1747 1426 888 84 1006 2129 1576 990 817 
1021 1652 309 378 69 2396 320 1260 94 
225 1075 1498 1314 337 1057 1992 2204 1421 
857 2345 2457 1222 1703 468 1457 708 508 
1048 534 441 1265 224 837 204 1300 561 
587 186 49 195 1017 1095 896 1167 285 
393 2497 391 630 1473 1047 368 1797 104 
999 618 14 547 1789 1141 2160 1155 407 
803 1180 1704 100 1685 1246 2040 981 217 
1739 466 1253 854 1174 1643 656 790 1128 
1143 1015 364 1988 572 519 1592 1690 1243 
1951 1766 83 785 1510 2 944 1455 1655 
222 108 631 179 533 1081 556 1737 192 
1242 227 1674 158 789 889 234 412 608 
620 1202 68 37 714 477 1416 287 591 
719 348 957 443 1158 1439 687 525 624 
1504 73 367 1176 289 428 349 2081 1119 
1273 206 1153 1914 296 458 1733 214 1605 
2078 48 298 300 17 297 986 419 1540 
117 605 13 955 230 1255 305 216 717 
256 876 33 1543 1555 2013 326 1188 794 
483 1553 637 46 172 3168 722 1231 1810 
3275 2616 438 4351 3104 595 1226 493 1212 
1662 628 701 1793 1034 1400 40 723 603 
1310 1753 232 1463 629 1329 1343 735 617 
2341 1093 1371 769 1820 1940 1339 1449 1425 
114 2224 1026 1751 330 509 2188 1251 1229 
1750 1235 1037 640 840 588 816 941 1278 
1714 1154 1089 1203 549 344 372 142 102 
961 539 1890 271 210 685 380 598 1673 
901 764 846 793 176 460 494 1084 1334 
704 429 868 1224 231 750 775 1527 1288 
1611 2010 242 682 1362 1280 1274 706 2092 
1233 992 1707 1679 563 250 1184 2159 782 
510 155 1336 576 2376 1612 1508 1091 606 
1175 453 2274 463 1194 760 814 713 562 
151 1053 741 383 12 456 131 259 455 
67 1132 663 632 1464 584 772 72 404 
498 522 558 318 850 223 1549 61 1452 
353 781 1004 570 347 237 275 683 545 
738 2097 1060 1309 1110 1120 244 983 64 
160 949 1575 885 248 1077 1462 873 449 
947 792 235 156 710 86 523 655 891 
369 241 276 1884 302 680 975 301 829 
462 1266 974 1360 497 712 980 946 700 
1429 1395 581 115 500 1070 56 532 219 
1219 129 373 639 1103 123 550 724 904 
1064 1518 2093 777 81 797 366 1012 879 
1087 725 207 1517 99 1716 1228 1045 352 
1428 1698 394 1937 2083 664 375 715 1562 
1799 1557 1869 90 1658 1475 1136 239 1367 
1938 919 707 1063 2113 1092 989 3170 867 
273 578 1980 331 1908 199 1827 174 3250 
323 2105 279 360 26 2960 2793 1363 2293 
1054 1978 1038 3188 1248 1263 1313 177 998 
268 327 1139 1603 1096 1100 878 1723 1584 
1390 1368 1904 5048 1948 1772 1654 1906 2238 
1221 2020 596 910 2192 342 768 1692 833 
1098 371 691 2852 105 2669 966 784 1928 
1380 1197 2142 71 1052 45 953 1645 711 
2673 593 1007 2141 1725 2606 1950 1374 307 
1023 1968 1406 1936 2166 3397 78 2751 106 
2399 2115 3536 77 909 3853 908 1963 1921 
2931 8 1640 4536 1569 5931 2011 5773 1860 
5020 4443 599 1307 1107 2470 514 1492 1585 
4358 1593 1435 2147 161 5293 20 894 87 
1138 5508 541 1370 1814 3062 1422 2171 1342 
1564 978 5882 4843 2243 2674 3526 4160 1199 
1877 1804 137 3607 1491 5581 1480 5926 2834 
5946 122 647 2658 565 552 650 501 1651 
716 1986 154 832 15 426 143 4001 21 
810 954 392 2061 693 191 1535 616 511 
1586 1502 333 872 1405 1609 1443 2194 778 
1028 431 141 871 418 1388 395 695 688 
1069 295 162 627 32 1588 795 139 1127 
1809 1982 416 1994 1434 1828 859 43 1254 
757 4207 574 459 402 1283 322 2246 1142 
356 3152 1615 1317 479 399 551 451 1001 
258 1332 385 611 825 1040 1349 1031 607 
988 1447 540 753 211 615 469 526 265 
678 721 1671 119 690 97 166 808 973 
521 834 175 457 150 819 515 220 1151 
7 465 1108 1399 410 763 1275 1770 205 
673 335 1387 931 1024 173 312 16 703 
1323 756 1331 1913 481 165 994 852 932 
1787 1420 726 1080 93 272 387 1356 1059 
362 692 132 762 658 646 805 345 1205 
351 495 1718 253 30 359 264 274 447 
856 315 4 638 357 1105 564 774 238 
433 958 959 681 1441 92 897 34 59 
101 1118 461 613 634 860 341 113 863 
1186 1506 676 411 153 1074 823 2045 1539 
770 38 1051 1085 1479 771 1086 906 524 
1189 1494 138 1851 471 567 1786 409 62 
1889 720 791 1097 58 159 1377 604 1868 
731 1458 934 88 415 95 171 1104 1764 
594 636 215 516 187 226 396 841 571 
1207 728 1285 478 245 935 270 921 1039 
1220 491 1925 1537 855 281 473 42 812 
1483 390 452 1720 3121 699 512 1501 1019 
746 1240 1211 82 2601 1 844 2282 1713 
1259 1520 54 1308 730 1748 1394 729 157 
560 645 1624 202 1050 1159 440 765 181 
1131 1460 423 590 530 188 686 826 3 
474 1125 267 1696 51 1445 208 623 938 
1580 671 987 2131 1886 269 414 434 767 
246 1752 120 486 675 546 1046 1926 80 
445 1191 1101 531 1509 2219 147 2324 2197 
2752 3234 22 1979 1172 870 1010 2038 937 
1967 555 2138 1756 1891 1646 3943 1693 1433 
29 2165 1216 4671 1247 4497 2424 6070 3467 
4470 4880 5775 3248 6014 5287 2595 5850 5334 
5068 3090 5486 6001 5774 3295 5833 4473 3083 
5623 3422 818 4388 454 5904 2549 3117 4056 
5324 3997 5891 5281 5052 5353 5793 5957 5824 
5464 5018 4965 4055 5805 4335 6064 5930 5901 
1823 5987 5131 4421 5779 3730 5231 3792 5472 
6017 4674 4909 5799 5141 5567 5677 5977 2169 
1530 3131 2720 5610 2215 5740 4697 189 1072 
124 5766 5011 3349 3538 3713 1561 542 4639 
1715 1495 4036 4426 4628 614 2802 4073 4191 
5568 4430 4720 6058 4222 2104 2625 2167 2179 
3838 2847 5563 5047 5430 5847 1454 2535 3642 
5432 5178 5938 144 3524 537 529 4248 308 
499 196 2481 651 2154 1126 669 866 1468 
504 3546 1352 737 2799 749 2358 1117 1689 
340 3027 3191 2608 1945 134 652 799 65 
1217 1299 3652 1099 1647 751 3108 4019 3259 
743 2532 849 200 2504 1290 543 1594 2098 
845 2500 853 3401 1989 813 1717 2307 116 
668 929 2152 2262 2117 1627 2954 1871 2249 
2492 1613 2516 400 4303 5474 127 912 968 
1149 752 520 386 1477 482 1123 696 517 
140 622 869 1116 635 346 135 580 1392 
733 1330 1058 754 1347 1250 1066 1796 306 
1427 164 1214 821 1269 807 626 2772 583 
2107 880 838 1547 1412 1109 1706 969 145 
528 877 1003 2501 621 1782 659 1876 2132 
75 420 316 684 311 1635 1822 674 450 
1442 773 1286 1146 1481 582 321 110 1009 
448 263 783 439 513 1784 389 597 942 
1386 1225 1801 25 424 381 111 943 1056 
1668 1192 1872 660 1528 1408 1582 1162 1496 
798 178 1847 1094 1614 1952 31 839 96 
915 1959 1341 1691 2471 149 945 1735 1897 
2449 1710 963 2055 1556 1204 2029 1497 1895 
2100 1758 3725 1478 446 266 167 1301 918 
566 1005 1365 325 1181 5 809 1318 642 
282 1573 464 996 802 914 1272 490 1179 
1014 487 379 835 1846 971 109 506 600 
24 847 361 2112 236 747 1503 1340 1403 
480 1583 1033 2687 2228 2494 2306 2904 2120 
3400 53 1893 2263 1533 4453 3114 2347 3369 
3003 2070 1071 2652 1734 2126 1649 4484 5556 
4137 3440 5599 5708 5616 6002 5139 951 5411 
3492 3837 1879 3517 5155 5951 5571 5143 4461 
5966 4659 6008 4912 5359 5709 5082 5271 4571 
5604 4367 4209 6000 5398 3881 5515 5722 4356 
2923 5980 3345 5171 5261 5757 2618 1249 5825 
6003 4887 4332 2417 5119 2708 4539 4101 5246 
4368 3478 5492 4446 4748 4277 4819 5714 4735 
5910 4860 2941 4616 6048 3591 5701 5719 5002 
5976 5670 5660 4157 5736 5235 4417 5252 4675 
5967 3388 5923 5836 5046 5741 4299 4991 5424 
5389 3996 2920 1350 3382 5704 168 4787 1333 
2642 3080 47 5360 6 4525 5400 3494 3402 
5185 4422 3606 4107 5236 4545 2430 4014 2391 
1381 2308 5703 2912 5223 3064 2335 2351 2735 
5138 5619 5414 5394 3836 5301 3649 3681 4058 
3960 2995 4910 5612 4610 4917 4110 3186 6065 
4924 5311 5527 1630 1234 1076 278 3918 52 
544 666 1867 960 1670 1027 1424 2281 1600 
303 1848 2041 254 979 1927 1378 76 4118 
3863 313 2583 1785 2291 2313 2684 2486 107 
2867 1453 1728 3225 2297 3862 2099 2789 3373 
1661 2661 2223 1915 470 2268 3447 397 1617 
865 824 233 939 427 492 2536 221 2245 
74 304 702 786 2643 1931 343 184 485 
376 2478 1836 363 317 19 830 2640 2436 
575 35 1322 1656 612 291 1883 1524 2851 
2865 2074 804 1068 2103 2880 1383 2522 2409 
881 2548 2158 2109 3106 3134 1875 3471 2354 
2699 2004 3469 1008 198 2596 421 1500 240 
228 505 679 2831 1834 1981 907 2080 277 
890 2433 2375 2071 670 2915 1446 1771 2499 
875 1467 3019 1182 1806 2121 2746 2718 3521 
3379 4133 2538 3380 1742 5928 5692 5248 3594 
5684 4198 2432 3762 5118 5650 5600 4213 4541 
4969 5498 5808 5816 4166 4895 5869 5861 2570 
4950 4214 4907 5993 6050 5460 5713 3819 3778 
5730 5984 6068 4852 5792 6051 5712 5241 5245 
5707 4974 4176 3742 4519 5348 5344 5959 5760 
5066 5392 4903 4117 5886 5491 4032 5195 3962 
5721 5280 5786 5204 2829 4246 5699 5403 5351 
5844 5767 5800 5630 6020 4723 243 5818 3101 
5522 5075 5206 4063 5828 5896 6018 5998 4407 
4369 4489 5110 5514 5667 5557 98 689 3924 
995 3861 2458 1133 4561 3632 336 5381 3410 
3377 3463 3873 3395 1258 3611 5037 1011 5006 
5764 4323 169 3022 4147 91 2524 3043 4494 
6045 4070 2993 3845 4580 5307 4937 3635 2018 
3957 3566 4076 3122 3812 2284 1073 4582 3655 
3537 3672 2288 2682 3254 1579 3949 1032 1043 
398 425 57 1965 776 1156 79 2164 41 
2290 780 255 2296 2633 112 2379 4463 2729 
1185 328 3766 2050 2786 1984 3051 3434 3799 
2657 3859 2585 2381 384 2644 4233 2007 913 
2185 1078 1513 2411 370 2203 2721 3638 1482 
5443 1953 2680 2023 3016 1905 2491 1863 3550 
2951 1954 5232 2988 1805 3794 3596 4533 3930 
2801 4457 5841 3123 3482 2971 4745 4296 3931 
5074 4517 5962 3005 3172 2958 2622 1829 148 
905 3165 884 2022 1414 800 1844 2136 10 
284 1572 152 1523 923 1025 1013 417 1018 
55 1865 3129 662 1145 2250 1316 2389 1261 
11 1355 619 1859 965 1684 2987 3944 5662 
2940 2189 1597 1382 2431 2906 2091 3548 2148 
1514 3693 4066 2614 128 3988 1536 3017 1570 
1997 2059 1590 4412 5559 5689 3092 5942 5974 
3835 4648 5350 4294 1778 3733 4840 5375 4886 
5399 1686 3824 283 2425 1633 1147 2123 1369 
2163 2423 976 585 2220 1201 2261 1312 60 
828 2328 2006 435 1680 1152 1552 1486 1840 
962 1888 1022 553 314 2184 1121 193 1215 
1892 2233 1701 2234 332 1493 1628 3735 4647 
2542 2653 2697 2447 1808 2144 2072 1866 2617 
2237 2456 2046 2332 2348 2663 589 3322 2378 
1909 2725 5194 2612 2000 1729 2541 4236 2459 
2016 3020 2962 2683 3002 5117 2738 2513 4829 
374 4361 3784 3281 1319 2997 1854 2076 4281 
1554 4502 1102 4792 3149 1357 4375 4103 4285 
2977 3774 1942 4121 2264 2416 1389 1636 2935 
293 4271 4861 3788 4712 4808 3535 2519 3370 
3897 4730 3444 4655 4687 2031 2267 2919 4090 
1788 4591 1030 1173 2175 2009 2028 2455 822 
4896 4169 4429 183 2656 5544 5778 2731 2067 
3010 3133 4841 4597 2445 4601 5790 2077 2217 
3351 2515 2737 2759 4882 4658 3429 5749 1874 
4002 1448 3983 4918 2075 2111 925 1682 4466 
89 2850 1525 1991 146 1531 1484 1295 2309 
1041 3785 1930 1239 5373 3224 36 1917 2605 
2744 4691 3091 2366 2765 1744 3800 2464 2814 
1779 1577 4185 2386 2380 1529 50 3474 3328 
5555 2946 507 3336 2734 930 2212 3677 993 
2057 6056 2337 1767 739 1122 2051 4955 4238 
3301 3809 4778 3986 2730 2686 2502 1960 2581 
4218 643 4283 820 2033 1461 18 1083 718 
406 437 39 1932 2384 557 1638 970 1571 
1995 133 190 1000 1664 927 2118 422 63 
1732 1515 1164 694 218 579 2280 502 408 
1035 1413 653 294 2260 1113 1042 1232 2201 
2452 1321 329 1719 1802 1681 2315 203 247 
740 1198 661 2406 1900 1256 249 1568 1754 
2609 2350 2610 2058 1648 1526 4491 1345 3357 
5021 1161 3075 2176 3805 2333 538 1476 758 
1407 1223 559 1813 1144 1538 2157 1964 779 
1208 1291 1843 2329 1999 864 1499 734 66 
1548 201 1016 488 1901 2418 1157 3187 1775 
1792 815 358 1759 1841 1134 842 1800 1398 
654 1020 1327 432 1852 1237 2252 1210 1227 
1471 1657 1922 2025 697 1973 1488 1741 3198 
1918 2773 2321 2229 2155 886 1487 2628 1082 
1430 1289 1304 1625 2559 2419 2862 1238 1297 
3073 2443 2711 3911 1436 3346 1241 2413 1065 
548 3150 2540 2393 2620 334 3706 257 3359 
3262 3011 3592 125 2008 2651 2474 2119 3966 
2882 1608 3126 2710 1683 2978 2049 3118 2747 
3332 948 3331 2270 2561 3857 1049 2343 2722 
3529 1749 3627 2678 4083 2582 2285 3928 1939 
4490 2505 3472 2970 2230 2528 2917 4381 1621 
2588 633 2402 1947 2400 985 1705 3765 2339 
130 2520 1489 2253 796 926 2533 1284 736 
2886 3461 2545 1375 3532 4390 745 3319 3303 
1279 5001 3223 2437 1298 2589 5385 2289 2303 
2742 2082 2804 1213 2969 2102 2186 3324 2395 
5539 1619 5012 5384 5056 2462 3272 3763 5690 
2554 103 2705 3071 2979 5843 3146 2272 3014 
1849 3340 4312 3455 2876 3938 2929 2310 3196 
3980 5220 5004 5173 3501 2135 5257 4764 3416 
4573 1970 3950 5323 3059 2981 3901 3849 5442 
4963 3233 5711 4670 4339 3820 4156 4700 5734 
3620 5309 1620 182 1397 2514 213 2647 1044 
811 1411 1328 1878 1738 163 858 382 1993 
1150 2240 641 848 2209 3302 2482 1850 1292 
3292 887 2269 126 1303 806 1642 2085 1898 
1124 677 3586 2956 3171 3109 1899 5657 2807 
1817 3031 2754 4593 4425 2258 3362 1546 3507 
5986 1311 1293 892 1111 118 1193 1385 649 
180 1438 1348 2177 1466 229 2156 350 1166 
23 489 1566 1036 1376 1148 956 261 518 
339 1731 895 286 586 1372 85 1437 2210 
1384 1567 1366 1326 1837 1618 1344 1558 755 
1472 1325 1856 922 928 310 898 2248 252 
1663 2017 319 1599 2153 1178 1114 1267 1639 
1666 2298 403 1135 991 2768 1244 484 1163 
1765 997 2577 1783 1209 1862 1282 1271 1659 
1815 1743 1171 2151 2048 1519 496 788 527 
467 1695 355 698 1565 1417 1842 1949 916 
1354 27 1881 1137 1450 70 185 1544 280 
1474 1512 2429 665 1595 476 405 1623 1029 
2088 1379 2145 1262 964 1230 194 766 836 
950 601 1589 940 882 705 1079 2052 1700 
843 1795 1699 977 933 2106 1393 1055 2483 
1456 1894 2084 1294 1760 2567 2255 1062 1200 
831 1088 1824 2254 1794 1776 2346 1845 2331 
413 1359 1516 2024 1606 2557 1634 2377 787 
1090 475 1919 1818 1591 902 1985 1451 1601 
1287 251 365 1629 1996 1757 900 170 1790 
2087 577 1002 1257 610 1977 648 536 121 
2108 1803 1858 862 2352 2782 1826 1276 1358 
2460 2322 3008 2334 2961 2161 3688 3920 1839 
1911 2706 4415 2503 2778 3070 288 1819 1835 
893 554 262 1708 984 2526 2206 1987 759 
967 1296 1721 1470 3342 1812 1277 899 2785 
2634 1190 3190 3942 2047 1604 2286 4949 827 
2527 3199 4225 1361 2591 5611 4161 3629 2898 
5700 5776 2704 2901 3488 2221 2810 4495 4577 
4045 4113 4607 4108 2934 3390 2855 3427 4250 
2739 3732 625 4216 2355 3124 3917 4783 5418 
3180 4505 5972 5073 5794 6031 5266 3176 4310 
5788 5229 5554 5214 5635 4679 4976 5576 4728 
4459 5538 5815 4651 5569 3258 4807 3618 5105 
3648 5900 5239 5846 5737 4961 5256 3883 4768 
3696 5125 5804 4959 5561 4776 5429 5135 5578 
5744 6028 4834 5310 5675 2805 5377 5725 5326 
4370 6052 5095 5631 4897 5446 4008 5296 4801 
5081 4235 5116 5511 5605 5911 3097 4902 4854 
5356 4408 1957 5027 3894 1187 3078 4848 5994 
5292 6038 1923 761 3045 5154 354 3193 5150 
3922 3822 5196 4319 5728 5208 2569 2551 5029 
3477 3892 4534 1545 4757 3462 4028 4522 3160 
3348 5877 4758 4105 5565 2518 4203 5163 5494 
5592 3926 5342 6006 4595 4003 3238 4862 5878 
5856 4177 3870 3903 5858 2193 5909 4664 5724 
2405 377 2094 1281 2621 1337 1761 2043 2828 
2146 1541 1678 2761 2666 936 2677 1665 2463 
3053 4365 2703 2553 1650 3623 1315 1206 2128 
2604 4400 2626 4278 3578 4178 3021 1830 4661 
1864 3335 3179 1687 3970 2191 2438 4696 3050 
4197 2911 2257 3192 4164 2968 1755 2360 4872 
3975 2218 4592 2619 2390 1972 2627 3300 2861 
2631 2723 3598 3645 3181 2414 3628 2496 3076 
2889 4256 2770 3802 3736 1773 2453 861 28 
1736 1409 2202 2127 1929 667 1983 1622 338 
2336 430 2300 2879 2183 1335 2116 2784 324 
1402 742 2168 2353 2063 2818 1831 136 2480 
1505 1616 1924 1702 1722 2140 2312 2976 2408 
2815 2019 2613 748 2587 2797 1910 2440 3419 
2896 1626 2292 2090 1857 3209 3285 3499 2864 
3790 1423 2137 2629 1419 1653 917 503 2573 
2162 2866 1780 1306 2172 1160 3220 1974 1688 
2624 3520 1887 592 3343 3154 3088 3353 2398 
2205 1724 1712 1969 4007 3294 3534 2848 1418 
972 2953 1861 2575 2654 2420 2239 2073 2311 
5060 2943 3089 2571 3243 2214 3049 2530 3793 
3082 2924 4804 2509 2689 2232 2877 3307 3617 
4180 3803 4535 1825 3772 2955 2685 4192 3905 
2465 2679 2615 3893 1218 2893 4221 5743 2510 
3046 4627 5262 3386 3496 3041 3722 4372 2779 
2672 3921 1762 3237 4480 5756 2727 5104 644 
5238 4708 3764 4116 2984 3511 1644 4485 1672 
1976 4676 2446 3978 2349 2800 5253 4704 3350 
1730 1966 4722 5152 3306 3468 1832 2775 4136 
2885 3167 4441 1581 4569 3473 3544 3038 4092 
6061 5784 4705 5621 4054 4943 4993 5275 3866 
5455 5452 5339 5663 5999 4557 4201 5466 4769 
4850 4727 5608 5199 4900 5758 5419 5537 4129 
4152 4920 5919 4343 5638 6026 5622 4428 5685 
5461 5040 4894 5321 5039 4341 5821 5130 4890 
4023 5112 4360 5656 5644 5358 4739 6016 5534 
2921 4793 5839 5100 5213 5335 4851 5521 5520 
5288 6007 4150 5420 5932 4972 4617 5535 5435 
6024 5813 5806 4037 6040 4677 3219 5308 5939 
5674 5803 5189 6022 5870 5177 5739 4229 5470 
5745 5669 5590 4719 4997 6037 5817 4119 6023 
5898 5028 5409 5845 4681 5519 4952 6053 5366 
4977 5090 4568 5996 4788 5404 4702 5203 5475 
5017 6060 4922 5501 5227 5025 4669 5863 4512 
5224 4995 4747 5964 5929 5903 5968 4742 5676 
4423 5144 4734 5249 5387 4598 3279 4167 4172 
3740 3424 3603 4413 5158 4833 5585 4602 3731 
3249 5449 4759 4726 4938 5405 4546 5099 2064 
4711 4901 4656 4665 5647 4261 4939 5523 4389 
3826 4049 4186 5550 3963 4986 4232 5471 2603 
4338 4017 4021 4954 3457 3409 4925 3954 3142 
4946 5198 4403 5390 5960 4827 5230 5933 5906 
4668 5349 5570 4562 4350 3872 4170 3069 5106 
5637 4891 4813 5201 3164 4263 5167 4684 4514 
2714 4100 2947 1916 4158 2373 3151 3361 2632 
3084 3047 4188 3539 4486 3572 3127 4268 3865 
2760 2933 4531 3563 3709 3430 4692 2899 2950 
3141 3347 4523 4154 2724 3660 3941 4127 3504 
2812 3393 2798 2476 4599 3712 4211 3392 3898 
5393 2562 4878 5298 3242 4317 3221 4781 3453 
2913 3933 5862 5552 3449 2646 4929 2846 3032 
3601 4200 3288 4305 5327 3433 5132 4089 4242 
4427 2242 3431 2649 3227 3549 3274 4041 3626 
3771 2325 2925 2056 4313 2484 1769 4006 3446 
3639 3659 1885 3791 4082 4016 3885 4130 3876 
4334 3937 2374 2787 4424 3355 3100 2964 5267 
5067 2854 4293 4260 5516 3231 3132 2231 2426 
4279 3587 3998 3460 2888 2806 2871 5574 4809 
4806 4990 5062 3184 4074 3844 3994 4057 4144 
5109 3710 3583 3182 5444 5772 5754 1935 4487 
2702 2607 5518 3033 3727 4048 2421 3775 4112 
2265 3720 3072 2902 3869 3354 4320 3858 5103 
3716 3915 4838 3907 3795 4067 4906 3153 3927 
4584 5331 4609 4438 2788 3406 5408 4971 3814 
5541 3879 3438 3767 4749 4455 5413 5077 4399 
5233 4276 3729 6027 4196 4241 5593 5549 4635 
6049 5383 5469 5079 5948 5207 5731 5975 5627 
5875 5015 5410 4732 5888 5468 4501 4770 5336 
5153 4650 4513 5643 4987 5883 5908 5864 5425 
4439 3267 4493 5071 5717 4043 5506 4913 5312 
6069 4618 4464 3640 3999 5333 4743 4594 4346 
4701 5140 5168 5763 3981 5624 4874 5355 5300 
5379 4585 5458 4821 4698 4330 5879 5222 3542 
5587 4432 5322 5927 5317 5345 5936 5961 4383 
5614 4683 5415 4165 5907 5485 4575 4846 4756 
5762 5941 5917 5422 4393 5526 4856 4521 5686 
5397 5871 5694 5899 5340 3266 5548 5573 5320 
5101 5295 4387 4885 5094 3247 5997 5575 4690 
5122 4775 4087 5200 4574 5802 4249 5924 4175 
5513 5490 4436 5166 5013 5142 4812 4145 3437 
3604 1115 3576 5852 4640 5072 3936 5782 4405 
3945 6055 4120 4657 4837 6039 3684 4318 5925 
5369 4012 5244 4653 5499 5428 5083 4942 5747 
3895 5785 4960 3811 5666 3479 4643 5226 4632 
5478 5096 4378 4605 5209 4947 4893 2966 4875 
4342 5969 3589 3299 5120 2853 5165 5484 4542 
5547 1816 5161 4777 4151 4349 5179 5382 2110 
3567 3614 4699 4810 3787 4314 4234 3543 3009 
4217 2821 4026 3166 3852 3741 4752 4162 3513 
3695 3843 3068 1596 4751 3864 3560 3925 5688 
2973 5034 3977 2170 4322 2211 4873 3948 5463 
5695 3339 4888 3721 4790 3215 3528 3211 1944 
4462 3214 4404 4064 2143 3185 3270 5346 2641 
3405 1907 3459 4474 3486 5954 5702 3877 2005 
4797 3015 1962 2096 1660 2736 5108 3330 5367 
4380 5378 5820 6063 2190 3374 2594 3558 2216 
4989 3439 3694 5093 3338 2593 4477 3061 5016 
2938 4264 2781 3111 3773 3979 2713 4724 4644 
2750 4506 2822 5746 9 4566 2407 4951 3048 
4695 2741 2808 2928 4420 4958 1485 4183 5831 
4983 3290 2568 3951 2466 3297 2404 4868 4520 
2701 2732 4394 3177 4784 2999 2918 3846 4025 
4020 5061 5483 2839 3289 3470 5210 3138 3564 
4744 2872 3584 3588 3647 4716 3376 3597 2556 
4811 2222 3671 3189 4815 2937 3365 4445 4934 
4385 1432 1346 2564 2537 2472 3291 5091 2963 
1578 3590 2450 2475 5043 3230 2645 2891 4282 
2323 1943 3425 3155 2803 3464 3613 5720 5589 
3315 3025 5771 4254 3714 5682 3087 2998 4905 
2555 5943 3753 3839 3251 5164 2485 2707 6012 
4247 5881 5254 1998 4532 5054 5733 5024 3055 
5680 3287 4978 3174 2371 3768 3847 3829 3890 