# vtk DataFile Version 4.2
Generated by LIGGGHTS
ASCII
DATASET POLYDATA
POINTS 5999 float
-0.0141344 -0.042628 0.0101762 -0.0179077 -0.0412824 0.0101496 -0.0101533 -0.0430122 0.0102443 
-0.019699 -0.0404374 0.013653 -0.0160094 -0.0419969 0.0137318 -0.012288 -0.0432611 0.0144799 
-0.00247698 -0.0441082 0.0102756 -0.00645537 -0.0445406 0.0102505 -0.00684342 -0.0405574 0.010262 
-0.00307924 -0.0403812 0.0116203 -0.00983463 -0.0401978 0.0136497 -0.0084781 -0.0441996 0.0136849 
-0.004513 -0.0447739 0.0137672 -0.00597073 -0.0410578 0.014308 0.00858945 -0.0441466 0.0101706 
0.0016567 -0.0403652 0.0102696 0.00143285 -0.0449612 0.0102675 0.00481339 -0.0428234 0.0102453 
0.00882192 -0.0407824 0.0132373 0.0065659 -0.0444838 0.0137273 7.82979e-05 -0.0417194 0.0136967 
0.00413771 -0.0412143 0.0138782 0.00260506 -0.0449095 0.0140935 0.0146597 -0.0411748 0.0101944 
0.011962 -0.0433675 0.0121795 0.0170911 -0.0416337 0.0133486 0.0205142 -0.0400396 0.0146678 
-0.0310408 -0.032566 0.0102611 -0.0322106 -0.0314073 0.0139139 -0.0216292 -0.0392744 0.010324 
-0.0249667 -0.0331123 0.0101861 -0.0215509 -0.0351951 0.0101863 -0.0251189 -0.0373138 0.0103211 
-0.0214748 -0.031229 0.0106997 -0.0281827 -0.0350568 0.0115571 -0.0272615 -0.0314428 0.0130062 
-0.0232913 -0.0340139 0.0138183 -0.0117294 -0.0393338 0.0102055 -0.01811 -0.037255 0.0102016 
-0.0144692 -0.035053 0.0102016 -0.0141765 -0.0310532 0.0101413 -0.0106081 -0.0332235 0.0102318 
-0.0180396 -0.0332484 0.0103431 -0.0149649 -0.0383529 0.0124181 -0.0115865 -0.0362224 0.0127242 
-0.0199804 -0.0364452 0.0136559 -0.0123921 -0.0324315 0.0137294 -0.0162526 -0.0302445 0.0139508 
-0.0159577 -0.03424 0.0138903 -0.0195721 -0.0324798 0.0139895 -0.00641868 -0.0309605 0.0102066 
-0.00852945 -0.0369297 0.0102422 -0.00242883 -0.0305216 0.0102098 -0.000924517 -0.0373013 0.0102472 
-0.00376453 -0.0341799 0.0111313 -0.00751582 -0.0339145 0.0126726 -0.00547542 -0.0373626 0.0128564 
-0.00437288 -0.0307133 0.0137056 -0.000369638 -0.0303724 0.0137093 -0.0015282 -0.0341349 0.0144857 
0.00661496 -0.0392519 0.0102091 0.00726257 -0.0353018 0.0102271 0.00334599 -0.0365091 0.01024 
0.00857539 -0.0315202 0.010233 0.00429467 -0.032616 0.0102368 0.000194056 -0.0334945 0.0107543 
0.00952631 -0.0365465 0.013283 0.00558112 -0.0371987 0.0134855 0.00166998 -0.0380522 0.0135354 
0.00364922 -0.0302286 0.0135793 0.00289161 -0.0342387 0.0136132 0.00680949 -0.0333824 0.0137474 
0.0105935 -0.0388363 0.0101715 0.0181613 -0.0392442 0.0103194 0.0142523 -0.0371938 0.0101988 
0.016737 -0.0314173 0.0101532 0.0127757 -0.0308615 0.0102681 0.0112005 -0.0345781 0.0102292 
0.0178524 -0.0352549 0.0103373 0.0144797 -0.0338643 0.012411 0.0128648 -0.0395578 0.0133867 
0.0107632 -0.0321432 0.0135281 0.0187373 -0.0322572 0.0135165 0.0163926 -0.0376694 0.013546 
0.02185 -0.0351849 0.0101869 0.0207746 -0.0313255 0.0102014 0.0246587 -0.0323264 0.0102355 
0.0254943 -0.0369578 0.0102407 0.0286957 -0.0344466 0.0102319 0.0281591 -0.0303875 0.0102262 
0.0221594 -0.0391682 0.0104011 0.023547 -0.0340996 0.0136485 0.020048 -0.0360443 0.0136634 
0.0272171 -0.0358467 0.0136773 0.0239072 -0.0380895 0.013834 0.0269971 -0.0318904 0.0142521 
0.0234732 -0.0300906 0.0136547 0.031637 -0.0319816 0.0113994 -0.0400065 -0.0206179 0.0102512 
-0.0328417 -0.0289873 0.0102101 -0.0302548 -0.0253126 0.010196 -0.0361633 -0.0267572 0.0102311 
-0.0330054 -0.0212627 0.0103451 -0.036683 -0.0228113 0.0106311 -0.033492 -0.0247532 0.0125087 
-0.0308101 -0.0276449 0.0133992 -0.0348443 -0.028406 0.0136297 -0.039318 -0.0218406 0.0140236 
-0.0372212 -0.0252419 0.0142366 -0.0312065 -0.0220705 0.0146114 -0.0353233 -0.0216212 0.0142614 
-0.0288384 -0.0290566 0.0102086 -0.0290151 -0.0215067 0.0102144 -0.0212861 -0.0272614 0.0102075 
-0.024837 -0.0291083 0.0102473 -0.0250955 -0.0206883 0.0102244 -0.0221039 -0.0233443 0.0102182 
-0.0256515 -0.0251913 0.0103121 -0.0277517 -0.0236451 0.0133508 -0.0231537 -0.0258171 0.013445 
-0.0267735 -0.0275162 0.013616 -0.023648 -0.0299932 0.0140137 -0.0241609 -0.0219705 0.0139123 
-0.0188376 -0.0210341 0.0102283 -0.0145403 -0.0269535 0.010217 -0.0180111 -0.0249498 0.0102822 
-0.0112943 -0.0246147 0.0102454 -0.0178076 -0.0292542 0.0103949 -0.0149989 -0.0221108 0.0105651 
-0.0111623 -0.0202653 0.0103694 -0.0119685 -0.0285487 0.0128389 -0.0155424 -0.0248282 0.0134573 
-0.0198472 -0.0230913 0.0135148 -0.0122853 -0.0224983 0.0134963 -0.0199345 -0.0284965 0.0137918 
-0.00899625 -0.027897 0.0102416 -0.00424113 -0.0235375 0.01024 -0.00709383 -0.0206795 0.0102382 
-0.00133128 -0.0266717 0.0102252 -0.000281544 -0.022805 0.0102254 -0.00515236 -0.0273059 0.011226 
-0.00829989 -0.0299533 0.0136052 -0.00775647 -0.0241849 0.0120689 -0.00202283 -0.0243411 0.0134853 
-0.000663989 -0.0205756 0.0135637 -0.0087173 -0.0207298 0.0139022 -0.00476847 -0.0214229 0.0136668 
0.00366346 -0.0220473 0.0102144 0.0054053 -0.0287675 0.0102548 0.00646846 -0.0249055 0.0102373 
0.00259498 -0.025903 0.0102061 0.00150111 -0.0297507 0.0102253 0.00943587 -0.0275966 0.0103598 
0.0068699 -0.021689 0.0125837 0.0019299 -0.023675 0.0134647 0.00761105 -0.0294592 0.0135296 
0.00497498 -0.0264524 0.0136338 0.013431 -0.0257496 0.0102991 0.0170624 -0.0274305 0.0101841 
0.0168555 -0.0231354 0.0101962 0.0132036 -0.0215049 0.0102934 0.0197008 -0.0203149 0.0101902 
0.0101227 -0.023793 0.0114264 0.0121766 -0.0282037 0.0132241 0.0175709 -0.0252603 0.0135207 
0.019962 -0.0283822 0.0127876 0.0160836 -0.0289617 0.0138346 0.0181038 -0.0212992 0.0137342 
0.0134176 -0.0236097 0.0136918 0.0104922 -0.0207806 0.014032 0.0203424 -0.0251436 0.0103508 
0.0242577 -0.0242373 0.0101898 0.0231464 -0.028091 0.0102043 0.0274738 -0.021513 0.0102033 
0.0267267 -0.0269692 0.0117543 0.0218626 -0.0223948 0.0128374 0.0259902 -0.0230289 0.0135956 
0.0299149 -0.0216147 0.0134191 0.0233208 -0.0260412 0.0136367 0.029096 -0.0253591 0.014563 
0.0298676 -0.0291737 0.013633 0.0300279 -0.0245535 0.0106925 0.0378921 -0.0240711 0.0101599 
0.0338217 -0.0232947 0.0102926 0.0356852 -0.0274076 0.010335 0.0317524 -0.0281405 0.0102547 
0.0364548 -0.0202815 0.0103133 0.0391576 -0.0220029 0.0133654 0.0329186 -0.0256269 0.013414 
0.033953 -0.0294944 0.0135852 0.0340333 -0.0206633 0.0134926 0.0369675 -0.0256201 0.0137575 
-0.0434136 -0.0108266 0.010268 -0.042296 -0.0152746 0.0109922 -0.0410975 -0.0183096 0.0133983 
-0.0431855 -0.0126105 0.013841 -0.038687 -0.0168413 0.0102583 -0.0320071 -0.0141053 0.0102526 
-0.0307804 -0.0179143 0.0102353 -0.0360093 -0.0138687 0.0102244 -0.0396995 -0.0123177 0.0102727 
-0.0347742 -0.0176739 0.0102283 -0.0338089 -0.0105244 0.0102384 -0.0367661 -0.0115988 0.0134357 
-0.0304708 -0.0122695 0.0134581 -0.0392684 -0.0147141 0.0136224 -0.0328293 -0.018551 0.0136116 
-0.0345767 -0.0149567 0.0138035 -0.0370924 -0.0180672 0.0137731 -0.0244724 -0.0108747 0.0101879 
-0.0235966 -0.0147799 0.0102585 -0.0268588 -0.0170982 0.0102981 -0.0218287 -0.0183795 0.0103028 
-0.0277198 -0.0132044 0.0106296 -0.0220258 -0.0123718 0.013041 -0.0271041 -0.0101298 0.0131395 
-0.0273604 -0.0196339 0.0133517 -0.0240611 -0.017375 0.0134673 -0.029101 -0.0160276 0.0134683 
-0.0256952 -0.0137672 0.0140336 -0.0202585 -0.0157853 0.014213 -0.0160605 -0.018151 0.0102307 
-0.0121919 -0.0163826 0.0102317 -0.0121039 -0.0123798 0.0102241 -0.0195946 -0.0148692 0.0103675 
-0.0181954 -0.0110987 0.0103909 -0.0156578 -0.0141857 0.0105805 -0.0134823 -0.0186811 0.0132439 
-0.0143911 -0.0115958 0.0134318 -0.0173392 -0.019705 0.0136923 -0.0122538 -0.0149494 0.0139967 
-0.0182377 -0.0123292 0.0143306 -0.0162266 -0.0158592 0.0141702 -0.00292011 -0.0197569 0.0102607 
-0.00442723 -0.0131317 0.0102399 -0.00836886 -0.013825 0.0102324 -0.00574523 -0.0169117 0.0103821 
-0.00156204 -0.0159708 0.0103065 -0.000887899 -0.0123871 0.011952 -0.00904853 -0.0169405 0.0126535 
-0.00932499 -0.0114295 0.0133514 -0.00475716 -0.0107285 0.0135277 -0.00342265 -0.0176445 0.0136208 
-0.00600949 -0.0145264 0.0136469 0.00268933 -0.0129319 0.0102218 0.00574762 -0.0186322 0.0102486 
0.00624625 -0.0110395 0.0102184 0.00102461 -0.0190226 0.0102239 0.00965723 -0.0194942 0.0103328 
0.00972132 -0.0154014 0.0101957 0.00597952 -0.0148265 0.0115037 0.00189694 -0.0159902 0.0126819 
0.00337879 -0.0196481 0.013405 0.0076836 -0.0179285 0.0136868 0.0063149 -0.0118397 0.0141461 
0.0023173 -0.0117086 0.0142478 0.0180064 -0.0133871 0.0101858 0.0129294 -0.0126551 0.0101402 
0.0131301 -0.0174958 0.0102733 0.017119 -0.0172749 0.0104985 0.0157688 -0.0109692 0.0124638 
0.0149263 -0.0148689 0.0128268 0.0100695 -0.0125092 0.0129401 0.0143316 -0.0196945 0.0136996 
0.0115696 -0.016773 0.0138871 0.0175319 -0.0174107 0.0144853 0.0273252 -0.013425 0.010193 
0.0231548 -0.0125758 0.0102053 0.0209379 -0.0161114 0.0101797 0.0285919 -0.0173992 0.0102063 
0.0237953 -0.0199165 0.0103499 0.0247062 -0.016146 0.0115204 0.0202154 -0.0107965 0.0124126 
0.0267179 -0.0191053 0.013308 0.0212328 -0.0184704 0.0133983 0.025419 -0.0121709 0.0134878 
0.0280809 -0.0153569 0.013617 0.0219135 -0.0142041 0.0136418 0.0296902 -0.0116949 0.0136738 
0.0317298 -0.0198804 0.0103036 0.0312237 -0.0143837 0.0102592 0.0354987 -0.0134406 0.0102496 
0.0381181 -0.016474 0.0102633 0.0391781 -0.0118602 0.0103718 0.0328199 -0.0106929 0.0113902 
0.0343465 -0.0170781 0.0114525 0.0363836 -0.0109416 0.0132489 0.0389212 -0.0144434 0.0136212 
0.0332699 -0.0139399 0.0136869 0.0312063 -0.0178471 0.0138105 0.0373178 -0.0183238 0.013992 
0.0435222 -0.011445 0.0101557 0.042081 -0.0158391 0.010139 0.0404198 -0.0197488 0.0103049 
0.0428575 -0.0136633 0.0134726 0.0414042 -0.0175791 0.0137326 0.0402557 -0.0107233 0.0142399 
-0.041156 -0.00728375 0.0103017 -0.040882 -0.00310842 0.0102434 -0.0446714 -0.00537505 0.0105003 
-0.0444905 -0.00137686 0.0105303 -0.0403501 -0.00979566 0.0133226 -0.0441304 -0.00849321 0.0134449 
-0.042046 -0.00507971 0.0135281 -0.0414656 -0.000562975 0.0142995 -0.0370601 -0.00500546 0.0102077 
-0.0322399 -0.00209369 0.0102352 -0.0325731 -0.00668053 0.0102559 -0.0375021 -0.00897597 0.0104327 
[...]
POINT_DATA 5999
FIELD FieldData 7
id 1 5999 int
514 544 482 477 215 124 333 144 828 
27 414 454 161 625 1092 589 856 1037 
877 455 18 250 122 307 901 495 1792 
1045 19 862 120 97 924 520 598 1044 
505 107 52 135 379 228 145 551 450 
271 407 1506 1328 153 263 53 1095 158 
426 257 242 194 515 209 408 336 476 
706 501 1008 773 138 185 400 596 83 
203 230 246 992 364 41 404 777 567 
1033 338 109 247 608 46 245 760 397 
690 1358 47 605 968 1387 1176 154 1316 
966 115 557 274 440 512 285 1280 675 
580 443 764 434 1019 378 874 344 816 
623 33 713 1005 200 94 294 669 946 
11 63 724 502 302 49 402 1476 119 
704 546 1015 424 174 199 464 1166 1028 
1418 711 1640 504 952 469 684 776 365 
371 1676 633 1285 276 114 8 149 396 
758 918 641 844 102 392 937 2221 1042 
310 614 876 54 1036 858 1114 1412 2136 
248 112 516 210 509 401 350 267 382 
90 779 22 861 136 413 249 348 57 
1107 437 349 787 659 223 803 525 703 
741 639 360 281 131 550 650 68 1537 
125 533 1325 243 668 311 664 374 84 
345 487 674 1623 1208 1722 697 1055 296 
429 99 113 42 815 190 951 201 808 
964 205 616 66 1126 293 168 1338 38 
718 1152 994 1482 1144 1494 317 875 353 
1185 980 622 833 1177 117 848 39 1077 
630 256 1083 635 291 1288 859 819 1508 
528 461 231 962 1035 788 523 123 679 
1775 43 927 142 86 423 314 590 1180 
372 1214 1262 853 1057 1355 692 139 1503 
802 686 417 1584 92 1123 399 615 562 
1212 163 1096 20 783 126 72 1359 1772 
1233 1333 1830 826 731 447 1071 485 1269 
354 906 884 619 496 1443 369 175 221 
821 58 584 612 1101 727 1133 545 1130 
278 903 1105 931 342 441 445 543 500 
831 1586 1140 1509 427 1481 627 1486 489 
1027 710 1088 1569 830 695 1728 1876 967 
1142 322 784 900 855 1692 537 1674 1202 
1281 410 73 393 421 1161 935 896 389 
933 1120 1100 934 48 1032 458 108 128 
842 751 137 914 241 418 367 1151 693 
796 134 604 292 1014 105 1009 1334 756 
24 511 558 813 12 857 224 766 755 
781 1351 775 610 890 654 5 16 463 
23 607 330 702 499 920 1567 1131 352 
1254 1128 998 594 77 462 667 1512 682 
677 229 206 346 78 563 1277 1460 334 
845 840 526 280 1300 300 1395 355 170 
763 1106 886 273 193 1168 370 678 1238 
309 587 792 974 305 498 734 384 560 
375 517 127 297 719 189 362 432 1478 
81 286 956 171 527 975 730 320 473 
712 1426 377 564 984 88 380 1197 1080 
673 313 1613 1073 155 341 295 1516 101 
919 1294 1439 1576 182 847 586 745 1066 
742 716 265 239 1018 1523 1090 971 1072 
387 1024 535 657 214 915 949 303 827 
32 419 588 988 592 836 165 394 244 
298 556 331 1193 572 1086 70 436 287 
519 868 691 1237 301 36 1020 957 631 
640 191 721 996 64 260 326 216 541 
180 1085 1150 98 671 579 79 225 80 
283 646 186 955 130 3 1040 266 576 
910 337 356 75 480 626 448 238 765 
159 944 524 1583 50 991 522 361 197 
103 347 316 1124 656 573 849 51 2 
954 288 21 212 104 1016 1097 412 923 
891 1022 600 688 736 1220 146 660 388 
93 357 771 472 1346 439 925 715 91 
839 425 880 1745 62 1442 258 1004 603 
521 160 76 290 121 181 152 926 1248 
1246 791 332 628 28 406 569 386 599 
35 272 277 251 177 478 1103 235 312 
1611 929 1227 1670 709 638 820 748 428 
1368 116 226 227 799 95 329 976 571 
1205 928 1655 1899 1084 705 220 582 1053 
1136 306 61 383 255 851 96 304 513 
1725 339 275 14 798 1134 118 409 629 
497 133 204 1298 89 1571 2007 1641 1703 
1484 259 642 299 264 973 166 811 1068 
591 45 636 15 6 140 1117 529 438 
321 324 30 666 829 1504 289 173 213 
769 916 507 195 433 143 415 59 327 
129 475 1025 1173 132 999 234 899 141 
207 904 1290 552 510 729 111 395 530 
701 422 451 621 1209 268 217 1489 343 
446 474 532 780 162 909 735 1790 1856 
218 866 40 1461 328 882 2618 1 913 
602 1245 3284 885 1323 67 995 1765 178 
26 864 1386 601 2289 1638 1119 430 907 
1350 531 2254 1213 1433 1171 680 100 1270 
390 1098 282 1477 997 1392 969 1957 797 
1194 2073 1564 1869 1575 1164 1828 1995 647 
1620 1861 795 566 1326 2364 1079 2621 2464 
2275 1547 3348 2245 1603 10 1286 981 1650 
1289 452 1834 1299 1589 65 1846 1774 1690 
1882 1602 1705 219 1649 2157 2527 892 233 
1446 1232 2165 665 772 1999 1498 883 1878 
1718 2031 457 1175 1488 1420 2003 391 1067 
1632 696 1580 707 1471 852 1677 1688 1411 
1614 1519 1284 1608 1434 147 449 1850 1543 
1365 1421 1169 1251 1258 1981 2295 3008 2377 
340 1485 1756 1187 750 1188 1013 323 889 
2027 662 411 1341 1186 2416 687 1952 1278 
2044 1058 254 1162 488 183 198 548 1563 
574 1416 493 2300 1785 1017 279 1275 1949 
2143 1733 1771 55 1043 953 1463 1639 2042 
1836 744 2067 1026 2781 2347 2145 1633 2185 
1470 1779 2869 818 1331 1242 1023 1647 1605 
1059 905 2292 1843 1734 1768 1538 2150 1943 
1437 1696 2427 2305 1179 534 1754 2285 1789 
1855 2009 1159 1944 1283 2065 1210 2092 1883 
2191 1654 1908 2470 970 1697 943 1862 1074 
1609 938 1274 2109 1550 1170 1691 2345 1483 
1456 1919 1405 1686 1953 442 1330 1217 1191 
1491 785 1406 69 1468 872 2296 1182 2161 
1780 1659 540 2408 1699 1693 689 643 617 
652 471 518 800 1652 1047 902 1962 1224 
2053 1403 1954 2013 37 1958 739 1678 921 
1327 2328 1178 1829 2776 1093 2271 824 1064 
1113 578 1389 1398 319 961 1265 1592 2228 
1680 2743 1184 2004 1968 1858 1607 2667 854 
1407 1683 963 977 1345 2129 1561 1844 106 
1354 1955 2066 2557 1848 2430 2779 2226 1448 
7 1672 9 832 2047 1749 1594 655 1687 
2209 2113 2304 1562 2714 1794 1662 403 747 
990 986 179 1525 1201 1555 888 1597 1587 
2490 2093 1595 1814 2728 807 1881 1408 1636 
2190 1404 1174 2128 1012 1684 1644 1572 1240 
1753 1701 1076 1061 211 1979 1203 1070 1966 
939 1497 1710 726 270 1377 1913 1960 1628 
1852 1413 1183 1272 2091 1763 2594 1141 2666 
1931 240 1383 987 1369 1630 2312 1199 1223 
1552 611 1256 806 2277 2301 2652 1087 2317 
658 1319 1132 834 2278 1243 1767 1493 1347 
1308 1417 1811 1685 2426 1642 1663 1219 754 
1276 252 805 2565 1293 1905 1863 1372 1222 
1324 749 894 506 653 2205 1397 1893 2366 
1730 1961 1118 1679 898 222 1196 1329 1385 
1860 985 1250 1505 1215 1835 1759 1776 2774 
2163 25 202 767 613 941 1500 318 978 
2014 2194 1318 863 2348 1268 2548 1902 2796 
1231 1235 1310 1429 881 2307 1548 1472 694 
2299 581 1317 1109 1127 1643 1363 2006 1396 
1315 1993 508 1295 376 1618 1622 1099 1822 
1081 1536 1374 661 351 1380 1513 1155 2478 
1507 2172 2577 869 2104 575 1003 491 1839 
1091 1356 1263 2021 1479 1340 1588 2297 1216 
1888 1454 1927 2531 1428 1030 1366 1964 1125 
479 1529 483 2038 1809 1425 1049 865 1634 
1838 1206 2449 1694 2607 1845 1444 1181 893 
1967 812 1279 1492 714 1348 2159 2240 770 
1094 1447 2256 1833 1145 1060 1886 1982 1702 
1399 1925 2346 959 1332 1921 2210 1629 2395 
753 1832 2086 1945 1041 1517 1914 1391 1577 
1935 1137 1573 536 172 1813 2466 1011 870 
1557 1948 1006 879 1624 2451 2036 1616 2290 
1228 873 1038 1221 1353 835 1122 2043 1719 
1002 2200 2037 2052 860 2852 1440 1769 1744 
982 1111 983 1225 110 1842 1357 585 2453 
2024 2537 2232 1502 2441 1885 1928 1522 794 
2362 1362 1158 2001 2139 1804 1435 1252 1496 
2379 1992 2258 1808 2154 871 2762 1871 2018 
1907 843 237 947 29 1975 743 1615 1361 
1455 1821 2716 2425 2140 1600 2546 945 1226 
942 878 1480 728 838 717 1260 1720 1787 
1342 1541 2335 2589 2458 1599 1320 1148 570 
1305 381 606 761 1518 1895 1750 1593 1578 
1521 1466 1970 1054 188 1089 565 431 148 
1707 555 1381 1046 814 1129 549 1501 1304 
1360 1648 1831 1796 368 1010 1487 1139 723 
993 1445 253 31 1306 1063 1031 2074 2264 
2400 1911 1244 2459 1515 1778 503 1112 1977 
1812 1291 187 757 2072 1528 1761 1810 1297 
1149 1450 1104 1673 1301 2651 1524 2269 2431 
922 632 2248 232 817 366 1370 2176 2237 
1940 1110 2319 867 167 1078 1052 2279 789 
2242 1553 1499 1312 1675 2260 1910 1352 1007 
2839 2414 1526 2529 1656 778 1344 700 1255 
1884 1936 1826 1870 1556 1714 2398 2034 1997 
1419 1998 2367 2123 2386 1490 1430 1335 737 
1394 1972 1879 459 733 1367 1337 1462 1339 
672 2012 2133 1574 1218 2238 746 1153 420 
676 453 2114 911 2452 1546 1721 1154 1664 
82 1766 2108 1898 2658 1747 950 1311 979 
930 484 164 809 87 315 1535 1402 822 
932 1743 553 568 1302 1241 1415 1229 2324 
648 958 609 1682 1021 940 192 708 1976 
2115 2148 1469 1082 1190 2156 1880 1075 2340 
1321 554 1069 561 405 74 150 887 1236 
358 1230 1115 2375 810 539 1559 1511 1666 
1400 1271 1384 481 1207 1056 1963 1441 1135 
13 740 1532 60 1566 620 1984 1247 1029 
1379 2152 1849 1827 2598 1192 2212 1234 1459 
841 1604 435 1560 559 2010 2225 2446 2318 
2134 2223 2750 2660 1665 1748 2622 2265 1343 
1349 1617 1449 790 1726 1257 71 1373 1551 
1048 2119 2160 2283 2837 2259 1853 3031 1939 
1819 1001 1897 2406 774 325 1102 2051 470 
1971 2910 948 2155 2101 2022 1801 1596 618 
683 793 1309 1156 284 1540 681 1625 644 
1510 1934 1669 1314 2039 2203 1841 634 2559 
3010 2583 725 1436 373 685 846 698 1859 
416 2158 456 2090 960 2272 444 1375 2040 
1712 1698 1582 738 547 1695 583 965 637 
752 1424 2035 1467 2219 1565 2410 1393 2000 
2054 1322 850 85 34 1273 804 1267 1752 
363 1423 1261 1163 17 2198 972 1121 494 
2138 460 1757 1544 151 1959 2380 1165 1296 
1875 169 2460 1873 468 1388 1867 1116 2629 
2243 2032 2064 2956 1715 1474 2394 1287 196 
624 2055 1534 2049 1172 2764 308 1755 2030 
1760 1923 1612 2434 2234 2236 1791 1160 1868 
1410 1475 1303 4 2023 2127 1795 2284 2403 
597 2211 1788 2197 2180 2099 2411 649 184 
1000 2146 486 1167 538 261 1631 1514 1195 
917 1401 2474 1758 2813 1903 2992 1926 1610 
1108 645 1651 490 759 1542 1591 1724 176 
1645 1627 651 1453 1050 823 1891 1313 2497 
157 1249 466 801 577 1336 1713 359 989 
2110 1708 1579 1422 1282 825 2147 786 1307 
1554 1764 593 1147 1932 1266 1530 908 2372 
2126 56 269 762 1495 156 670 1364 1239 
1062 1951 2542 1973 1823 542 1816 1390 1980 
2081 1922 2384 2327 1657 1211 2569 3162 1189 
768 1570 1143 2514 335 2690 1717 2680 2122 
2843 2554 2775 2518 2196 2641 2046 2257 2100 
3086 3465 2999 2528 2911 2938 3002 3106 2069 
1259 1598 3160 2845 3808 3564 3155 2713 3025 
3142 3955 3289 2633 1906 2720 2686 1777 3060 
1996 2195 2349 2508 2918 699 782 2303 2247 
1581 2847 2801 2102 2250 2963 2512 2977 492 
2341 3540 2588 3471 3235 2623 3822 2987 3013 
2421 1783 1661 2417 2208 3098 2862 3529 2851 
2262 3319 2096 3677 2121 2612 2106 1590 1681 
2526 2084 1626 2098 2840 2968 3413 2433 3636 
2958 4100 3362 3707 2435 2308 3844 2825 1146 
2351 2383 1800 2959 2833 2975 2761 2506 3033 
3256 3099 2487 3315 3682 4002 1533 2472 2455 
2187 2953 2624 2684 2418 2378 3174 2448 3271 
3095 3207 3378 2930 3761 2075 2355 2932 2517 
2606 3464 2545 3215 2332 2871 3734 3187 3650 
2855 4051 2499 2747 2467 2735 2809 1937 465 
2560 2611 2689 2538 2675 1802 2806 2443 1865 
2669 2568 2339 2877 2533 1950 2391 2646 1382 
2314 1991 2493 2601 2041 2135 1458 3193 2645 
2330 2239 2556 3469 3125 2597 3313 2008 2613 
1746 3094 2746 3425 3391 3411 3851 3111 3037 
2929 1253 2291 2812 1619 2767 2396 3297 3027 
3303 2516 3122 3492 2795 3221 3920 2966 2498 
3082 2661 2532 2510 1983 1414 1727 1376 2276 
2183 2368 2486 2120 3286 2673 3539 2505 3360 
3346 1824 2511 2015 1978 2522 2468 2765 2111 
3079 2048 1866 2402 3249 2824 2739 3553 2808 
3078 2088 3041 3522 2562 1989 2964 1716 3175 
2423 2515 2338 2415 2280 3015 2717 3699 2848 
2659 3028 3721 2365 3572 2329 2173 2298 2181 
2943 3024 3124 1737 2105 2450 2025 1711 1817 
2216 3828 3199 2896 3063 2656 1378 2859 2429 
2639 3451 2610 3238 3789 2061 2886 1065 1887 
1773 2491 2385 2359 1700 2576 3252 2389 2829 
2805 2268 3799 2231 2057 2142 2282 2177 722 
3156 2151 2816 2668 2708 2363 3375 2387 2483 
3247 2858 2880 3614 2983 3345 3309 3000 3173 
2794 2399 2103 2674 2457 3072 1781 3338 2581 
3005 2477 1988 2916 2182 2944 2870 3040 1942 
3180 2694 2693 2838 1671 1668 2600 1264 1840 
2804 2333 1889 2736 2540 3772 3679 2549 2050 
2671 2409 3158 2846 2687 2520 2432 3211 3690 
2534 2519 3208 2461 3090 3616 3306 2895 2071 
2179 2440 2745 2420 1965 2005 1987 3924 3336 
2732 3542 2241 3508 1741 1198 2709 2370 2322 
2361 1531 3167 2757 1658 2116 1803 2579 2083 
2202 3185 2286 2665 1539 1924 2935 3339 1896 
1667 3368 3445 3881 2544 4075 2141 1969 2688 
2773 3258 2206 2373 2082 3029 2482 1890 2787 
3250 1916 3620 4089 3548 3001 2995 3100 1793 
2712 1723 2861 2875 1807 3455 2772 2251 3039 
2444 3892 3150 1806 3140 3466 1917 1452 1736 
1200 1815 1994 1877 2678 2407 2207 2989 2922 
3890 2897 2915 1704 2392 1568 1051 2786 2521 
1558 2950 3453 2741 2704 2263 2484 1637 2112 
2130 2326 2595 2737 2573 2820 3012 2676 2863 
3214 2323 2536 2309 2481 3326 3327 2567 2541 
3941 2215 2603 2357 2978 1786 1545 3003 3189 
2059 2405 2125 1985 2204 3129 2986 3066 1920 
2118 2699 2193 2192 2885 3569 2614 3097 1732 
1660 1689 1941 2584 1900 2220 2798 3257 1901 
2749 2343 2835 2539 3333 3498 1653 2422 2770 
2940 2814 2881 3363 3316 1805 3499 1735 1946 
2939 3149 3278 3506 2951 3633 3757 3981 3877 
3568 2488 2883 3387 3694 3023 1431 1762 1990 
2068 2473 2827 1938 2677 3246 2572 3121 2899 
2169 2941 2344 2653 2912 3530 3007 2026 2079 
2077 2439 2752 2424 2070 2647 2222 2504 2325 
2306 1729 2356 1909 1825 1739 1585 2564 2849 
2476 2632 3574 3112 2828 2733 3470 3016 1292 
2094 2830 2630 2132 2217 2657 2969 2164 2844 
3071 3179 3308 2738 2465 2393 2570 2642 2552 
2991 2971 2124 2095 1432 2500 1851 1820 2649 
2887 1039 2404 1930 2865 2724 2854 2313 1857 
2990 2337 2320 3009 1549 1646 2636 2503 1798 
1956 2442 2725 3196 2218 2249 3485 2382 3351 
2620 2524 2931 3602 3135 3668 1933 1738 2638 
1915 1621 2682 2316 3054 2802 3273 3439 2919 
3486 2797 2972 3164 3305 1138 1797 2994 2253 
3312 3666 2445 1874 2462 2017 2934 2985 2011 
3505 2763 3429 2615 3006 3390 3085 2604 2374 
2785 3014 3874 3552 2701 2799 3053 1706 2342 
1409 2587 2592 3050 2789 2413 3700 2890 2471 
3489 3448 3480 3093 3300 2178 3047 2902 2923 
2352 2214 2274 1731 2436 3234 1947 2273 3337 
3373 2697 3213 3087 2803 3827 4193 1740 2759 
2199 1465 1892 1204 2543 2480 2167 2287 2447 
3105 1451 1799 2213 2201 2016 2608 2961 2162 
2908 2535 3403 4017 3123 3871 3419 2336 1473 
2702 2888 2230 2029 2492 1894 3398 2137 3463 
2753 1918 2555 1854 2609 2723 2884 1974 2456 
2175 2924 2321 2751 236 1872 2288 3277 2625 
2045 3304 2730 3756 2233 3494 2925 3329 3314 
3299 1457 2076 2186 1527 1709 2281 3251 2261 
2982 2654 2933 2153 1847 2655 2437 2679 3741 
3760 1904 3074 2768 2020 2019 2700 3432 2962 
2227 2705 3151 1427 1635 2898 1742 2495 2744 
3138 3070 2605 2734 2681 3178 3785 3900 2853 
3660 4058 2626 2174 2331 2602 1818 2376 2578 
3980 2097 2315 2715 3170 2672 3546 2731 3318 
2800 3737 2900 2810 3307 2547 3232 2691 3280 
3712 2841 4228 2525 2469 3733 3190 2635 3803 
3224 4108 3296 2310 2397 3017 2502 3045 1864 
3287 3274 2184 2244 3225 2496 2062 3893 3745 
2952 3065 2619 3559 2917 2063 2089 2561 2078 
2494 2727 2644 3153 3301 3219 3358 3330 3369 
3436 3836 2551 1912 2711 2590 2580 2936 2822 
2087 3202 2703 2882 2390 2949 2311 2650 3267 
2485 2874 3091 3929 897 1601 2784 2360 2957 
3371 2627 2748 3145 3116 3818 2591 3367 2475 
3248 3736 3269 3901 3240 2188 2903 2381 2401 
2988 3270 1784 2080 3292 2663 3212 2831 3397 
2388 3119 2892 3704 2766 2876 3603 262 2670 
2948 2170 3372 2706 2631 2171 2107 2945 3114 
2582 3747 3034 3507 3495 2913 3154 3454 2942 
2513 2033 3400 2872 2270 2593 2563 3460 2294 
3293 3081 3939 3937 3357 3059 3562 2791 3069 
2729 2575 2586 2350 3201 3171 3120 3266 3073 
3895 3263 4035 3565 1034 3004 2758 3442 3684 
3646 2489 3683 4096 3049 3752 2302 1770 2229 
2369 2692 3561 3341 2255 3435 3444 2085 1520 
2793 2811 3823 3467 3843 4459 3934 2523 2235 
2412 2778 2585 2909 3406 2144 2246 3401 2637 
3268 2058 3396 2479 3884 3026 2060 2662 3115 
3386 2501 3172 3738 2266 3285 3912 2002 2856 
1837 2937 2530 2574 3591 3783 3410 3320 3759 
3606 3176 2970 3487 3089 3538 3525 3641 3581 
3573 2056 2868 3630 3046 4455 2131 3255 2866 
2771 3718 3580 3509 3657 3532 2685 3493 3288 
2742 2836 3282 3804 4039 3118 3834 3713 2879 
3722 3446 3279 2718 3792 4166 4464 3703 4216 
2507 3056 3958 3961 4734 4738 3331 3902 5177 
3845 3639 2864 4060 4618 2634 4497 3972 3607 
4124 3404 3862 3758 4098 4367 4168 2783 2891 
3032 3790 4129 3077 4149 3148 3440 3058 3654 
3276 3778 4422 4358 4392 5006 4276 6024 4636 
3334 3194 3723 3405 3302 3632 3523 3195 3985 
3727 4139 3547 3670 3764 3977 4257 4360 3147 
4475 3361 3472 2371 3433 3913 3831 3763 4326 
3618 4388 2955 4310 3349 4286 4318 4390 3165 
3152 4248 3766 3967 3379 4066 3735 4416 4642 
4072 4270 4918 5772 4818 4954 2616 3768 3350 
4439 3623 4211 4317 3894 3800 3675 4415 2967 
3711 3083 4375 4038 5535 4027 4609 4997 3806 
3311 3365 2553 4661 2596 3048 3500 3437 3578 
3708 3811 3868 3717 3883 4456 3919 4395 4536 
4451 5032 4424 4251 4200 3847 2740 3067 2189 
4279 4647 2973 3478 4170 4188 4460 5621 4255 
2834 4389 3833 3662 3450 2946 4637 4813 3715 
4371 4169 4420 4664 4463 5082 4550 3325 2904 
3449 2821 2721 3052 4000 3512 4480 3516 4632 
3993 3264 4496 4284 4567 4543 4520 4225 4007 
2628 2438 3186 4056 3676 2832 3983 4993 4521 
4946 4705 4775 4361 4366 4136 4742 4619 5340 
4563 4354 3599 2907 2842 3103 3188 3898 4321 
3794 3907 3412 3527 2980 4093 4797 3771 4648 
4150 4838 4707 3990 3769 3751 3226 3353 3590 
3714 2648 4198 3347 5425 4161 4202 4290 3853 
4519 4003 4783 4453 4113 3096 3370 3534 2769 
4559 4068 2976 3298 2777 4012 3674 5112 3995 
3923 2867 3774 3556 4086 3528 4240 4413 3537 
3743 3477 3615 3476 3826 3753 3482 3642 3409 
3754 4065 4891 4646 4001 4957 3169 3260 3594 
3813 3462 3415 3317 3518 3231 4403 4130 4560 
3126 3908 5739 2168 2696 3651 3388 2354 3931 
3166 3101 4504 3634 3468 3242 3963 3459 3956 
4175 3328 2788 2984 2857 2927 3020 4259 3829 
3624 4019 3681 3773 3344 3672 4700 3376 4205 
3821 4924 4117 4523 4405 3992 4980 3143 3183 
3457 3848 3402 3418 3974 4134 3640 3323 3987 
3204 4466 4328 3944 4458 4914 4064 3294 3423 
3979 3244 3695 2698 3259 3730 4525 3897 4291 
4387 3253 3951 3988 4440 4127 3817 3281 4110 
4376 3998 2954 3504 2726 3825 4232 4253 3705 
4120 3011 3861 3849 4374 4870 4600 4729 3434 
3742 4876 5367 3181 3557 2860 3392 3706 4545 
3092 4359 3377 3474 4242 3526 4793 3814 3784 
5038 5039 4088 4171 4281 3227 2558 3655 3788 
4575 4490 4268 3611 3921 4699 4444 3571 4590 
2664 4833 4806 4448 3860 4485 4406 4635 3427 
4306 3649 4597 4133 4046 3886 4754 5026 4477 
4970 4971 5688 3882 4154 3746 3157 3222 3422 
3973 4103 3819 4084 4979 4340 3035 4263 4230 
5458 2894 3767 3563 3136 2993 3237 3236 3399 
3926 3191 4099 3652 4031 3856 3275 4189 4393 
4025 4650 5108 2683 3748 2819 3952 3927 4125 
2823 3108 4688 4184 4872 3577 3481 2998 3545 
2617 2914 3229 2707 3638 3685 3644 4262 3598 
3139 3055 3698 4572 4142 4483 3989 3940 4518 
3163 2293 3107 3272 3109 3428 3030 3837 3424 
4753 4506 3613 3586 3127 4061 4109 4566 4629 
3490 3549 3075 2947 2571 3948 3925 3810 4237 
4570 3550 4295 3241 3104 4731 4937 4839 4923 
3786 4454 3393 3408 4112 3356 3484 3622 3744 
4105 3592 3473 4095 5827 3612 2850 3858 2780 
3935 3762 3431 4335 3588 3891 3859 3200 4245 
2419 3628 4233 4069 3324 4394 4207 4465 4617 
5247 5179 4443 4958 5076 5170 5301 4016 3692 
3864 3936 3061 4402 4429 3452 3888 4778 4462 
5139 4349 2928 3230 3596 3243 3558 3283 3044 
4434 4528 4554 3496 5510 3456 2722 3665 3855 
4128 3210 4156 3970 4438 3824 3458 3414 4484 
3873 3978 5066 3084 2358 2756 3663 4217 2760 
4114 3946 3332 4246 3220 3910 4494 3113 5033 
3161 2599 3796 3022 2807 3197 2965 4330 3205 
4024 3609 3867 3502 3443 4386 3576 4008 4261 
3659 3838 4645 3617 2815 2920 2997 3501 4020 
3680 3619 3128 4468 3689 3863 4594 4029 3820 
3648 6003 2817 2926 2893 3601 2334 3544 3130 
3198 2974 4176 3184 3830 3144 4239 4772 4419 
3922 4365 4165 3673 3117 4083 4315 3018 4531 
4899 3608 3687 3380 4235 4327 2755 4344 4452 
4298 3887 3582 3795 3146 3088 4053 3776 3872 
4573 2979 3953 3755 4714 4045 3842 3177 2906 
3560 3366 3584 5138 4827 2643 4081 3686 4203 
3479 3850 4062 3513 3750 4369 5001 4028 3905 
4331 3239 3702 4309 4137 3775 3359 2960 3110 
3575 4479 4614 4347 3996 3447 4183 4747 4555 
4148 3595 4005 4350 4126 3945 4077 3991 3950 
3816 4472 3749 4018 3805 4311 4811 3631 4338 
4352 5195 3610 4206 4685 4674 3395 4116 4097 
2826 3719 4736 3159 3779 4102 3600 4158 3589 
4673 4249 3960 5346 4551 3777 3835 2792 2428 
3643 3653 3720 3383 3245 3541 3593 3637 4231 
3739 4639 4990 4364 4080 3134 5094 4495 3295 