# vtk DataFile Version 4.2
Generated by LIGGGHTS
ASCII
DATASET POLYDATA
POINTS 5999 float
-0.0177998 -0.0413343 0.00399883 -0.0103486 -0.0438011 0.00399874 -0.0141004 -0.0426466 0.0047634 
-0.0063893 -0.0445526 0.0039992 -0.00246244 -0.0437954 0.00399893 -0.00659843 -0.0406614 0.0048938 
0.00847031 -0.0441716 0.00399939 0.00471717 -0.0427902 0.00400131 0.00136144 -0.0449652 0.00399917 
0.0146557 -0.0414226 0.00399914 -0.0311767 -0.0324356 0.00399973 -0.0216989 -0.0393162 0.00400113 
-0.0248871 -0.033154 0.00399847 -0.0251076 -0.0371958 0.00400098 -0.0215081 -0.0352925 0.00399853 
-0.0213505 -0.0312953 0.00415438 -0.0282802 -0.0349774 0.00507086 -0.0111931 -0.0398807 0.00399951 
-0.017902 -0.0373344 0.00401915 -0.0144065 -0.0352576 0.0039996 -0.017864 -0.0332485 0.00400264 
-0.0142097 -0.0311425 0.00410323 -0.010161 -0.0315536 0.00399985 -0.0146388 -0.038821 0.00580091 
-0.00818354 -0.0371018 0.00399828 -0.00620268 -0.0309713 0.00399897 -0.00222135 -0.0305906 0.00399717 
-0.00116454 -0.0372607 0.00416413 -0.00382514 -0.0342139 0.00469402 0.00187307 -0.0399162 0.00400009 
0.00656587 -0.0392451 0.00399985 0.0034848 -0.0362488 0.00400064 0.00476115 -0.0324576 0.00400156 
0.00764574 -0.0352337 0.0039998 0.00865475 -0.0312747 0.00400008 0.000513691 -0.0335581 0.00407595 
0.0106478 -0.0390765 0.00399714 0.0143559 -0.0373559 0.00399928 0.0180524 -0.0392952 0.00399958 
0.0170583 -0.0314196 0.00399787 0.013065 -0.030771 0.00399919 0.0115738 -0.0344823 0.00400365 
0.0179878 -0.0353029 0.00423112 0.0210567 -0.0313813 0.00399987 0.0249434 -0.032323 0.00400097 
0.0220978 -0.0352429 0.00399897 0.0287769 -0.0343531 0.00399923 0.0257215 -0.0369357 0.00401622 
0.0220409 -0.0392316 0.00428998 0.0283795 -0.0302428 0.00400275 0.031615 -0.0320089 0.00557072 
-0.0400685 -0.0204957 0.0039978 -0.0305992 -0.0251483 0.00399753 -0.0330199 -0.0288864 0.00399878 
-0.036288 -0.0265817 0.00399985 -0.0331249 -0.0211494 0.00451453 -0.0368088 -0.022688 0.00474808 
-0.0291684 -0.0214152 0.0039979 -0.0251989 -0.0209079 0.00399829 -0.0213101 -0.0272994 0.00399837 
-0.0290204 -0.0288232 0.00399979 -0.0220467 -0.0233689 0.00399937 -0.0256386 -0.0251331 0.00400087 
-0.0250253 -0.0290882 0.00399924 -0.01875 -0.0209847 0.00399909 -0.0144438 -0.0270664 0.00400036 
-0.0180886 -0.0249293 0.00399906 -0.0112561 -0.0244666 0.00399866 -0.0149938 -0.0223779 0.00405102 
-0.0178108 -0.0292358 0.00403184 -0.0110598 -0.0200648 0.004002 -0.00895779 -0.0277388 0.00399865 
-0.00433073 -0.0234434 0.00399951 -0.00697299 -0.0204123 0.00399772 -0.000358348 -0.0229151 0.00399991 
-0.00114709 -0.0267827 0.00465076 -0.00510679 -0.0272476 0.00495929 0.00649708 -0.0246341 0.00399982 
0.00944027 -0.0273423 0.00399927 0.00562832 -0.0285519 0.00401179 0.00181095 -0.029748 0.00399912 
0.0035427 -0.0219346 0.00400016 0.0026852 -0.0258429 0.00399987 0.0101722 -0.0235841 0.00517548 
0.0169841 -0.0274216 0.00399711 0.0135628 -0.0253501 0.00400006 0.016983 -0.0228313 0.0040524 
0.0132704 -0.0213448 0.00399946 0.0201024 -0.0202821 0.00399923 0.0204182 -0.0248785 0.00399933 
0.0243678 -0.0242492 0.00399857 0.023374 -0.0281221 0.0039981 0.0281698 -0.0212851 0.00399906 
0.0271029 -0.0267565 0.00549424 0.0242749 -0.0202357 0.00399868 0.0302253 -0.0247159 0.00404841 
0.0341515 -0.0236136 0.00399828 0.0362364 -0.0202014 0.00400192 0.0381497 -0.0237138 0.00400021 
0.0357923 -0.0272765 0.0040562 0.0319114 -0.0283426 0.0039995 0.0320785 -0.0201789 0.00399975 
0.0402375 -0.0201349 0.00420166 -0.0435817 -0.0109225 0.00399978 -0.0422644 -0.0153571 0.00426015 
-0.0359648 -0.0137069 0.00399759 -0.0397061 -0.0122932 0.00399996 -0.0345679 -0.0174545 0.00400086 
-0.0385151 -0.0168099 0.00400015 -0.0304735 -0.0176355 0.00400332 -0.033691 -0.0103879 0.00399857 
-0.0316084 -0.0138014 0.00399984 -0.0265061 -0.0171288 0.00399962 -0.024125 -0.010885 0.00399896 
-0.0232605 -0.0147921 0.00399952 -0.021935 -0.0185655 0.0040002 -0.0273431 -0.0132347 0.00435495 
-0.0297071 -0.0100291 0.00399891 -0.0121505 -0.0161949 0.00399823 -0.0161167 -0.0179192 0.0039998 
-0.0193135 -0.0155157 0.00399971 -0.0120334 -0.0122007 0.00413482 -0.0188259 -0.0115451 0.00401384 
-0.0156289 -0.0139489 0.00400038 -0.00304162 -0.0196572 0.00399964 -0.0043988 -0.0127553 0.00399906 
-0.00830108 -0.0136321 0.00400005 -0.00560687 -0.0165885 0.00400304 -0.00167604 -0.0158488 0.00400018 
-0.000687873 -0.0122326 0.00539508 0.00304756 -0.0125461 0.00399993 0.00562966 -0.0183362 0.00400039 
0.00655637 -0.0106107 0.00399915 0.000891632 -0.0189317 0.00400006 0.00967848 -0.0194203 0.00402487 
0.00627987 -0.0145733 0.00520051 0.010061 -0.0150882 0.00400051 0.0183416 -0.0132548 0.00399982 
0.0132384 -0.0121488 0.00399796 0.0133627 -0.0173463 0.00399917 0.0173619 -0.0173694 0.00399962 
0.0272012 -0.0128788 0.00399871 0.023208 -0.0126668 0.00399989 0.0211538 -0.0160978 0.00399856 
0.0293028 -0.0172507 0.00399952 0.0251509 -0.0163257 0.00405668 0.0381226 -0.0166758 0.00399854 
0.031118 -0.0136862 0.0039995 0.0394275 -0.0114034 0.00400091 0.0357465 -0.0134534 0.00399974 
0.0332761 -0.0103019 0.00404909 0.0341739 -0.0169588 0.00511185 0.0420498 -0.0159202 0.00399877 
0.0435507 -0.0113341 0.00399939 -0.0409924 -0.00712898 0.00400252 -0.0407117 -0.00296645 0.00401234 
-0.0446564 -0.00548452 0.00404143 -0.044838 -0.00149203 0.00433501 -0.0369557 -0.00489997 0.0039979 
-0.0329099 -0.00174196 0.00399958 -0.0327479 -0.00643964 0.00399935 -0.0374167 -0.00891784 0.00414269 
-0.0365887 -9.2318e-05 0.00399768 -0.0271926 -0.00251343 0.00399904 -0.0220353 -0.00420346 0.00399896 
-0.0279382 -0.00644252 0.00399998 -0.0206777 -0.00799956 0.00399979 -0.0242971 -0.00717722 0.0054889 
-0.0171929 -0.00603661 0.00399822 -0.0106395 -0.00845538 0.0039988 -0.0146775 -0.0091636 0.00400314 
-0.0185565 -0.00222838 0.00399975 -0.0132406 -0.00541884 0.00401566 -0.0145981 -0.00165801 0.00399912 
-0.00679474 -0.009553 0.00399737 -0.00548866 -0.00556761 0.00399944 -0.00278665 -0.00909427 0.00399885 
-0.00318067 -0.00229145 0.00399967 -0.000890717 -0.00557137 0.00400004 -0.00708918 -0.00143292 0.00403378 
-0.00934825 -0.00470783 0.00460053 0.00689688 -0.00662547 0.00399852 0.00122217 -0.00898718 0.00399958 
0.00310442 -0.00535418 0.00400065 0.00114941 -0.00186631 0.00417718 0.00951111 -0.00145146 0.00569399 
0.0101856 -0.00891516 0.00399863 0.0183105 -0.00827571 0.0039993 0.0141724 -0.00821433 0.00399962 
0.0184189 -0.00427772 0.00399899 0.0105184 -0.00492995 0.00399843 0.014425 -0.0040761 0.00399934 
0.0169623 -0.000494788 0.00402905 0.0129645 -0.000350341 0.00399994 0.0278811 -0.00534797 0.00399926 
0.0288387 -0.00923089 0.00399982 0.0248495 -0.00160467 0.00410877 0.0248459 -0.0089872 0.00404827 
0.0218396 -0.00634582 0.00413311 0.0347549 -0.00385206 0.00399837 0.0317476 -0.00648766 0.00399866 
0.0374341 -0.00788422 0.00399969 0.037743 -0.00119431 0.00399819 0.0309689 -0.00256532 0.00400277 
0.0411882 -0.00345282 0.00399998 0.0414332 -0.00794104 0.00400007 0.0448538 -0.00154158 0.00399947 
0.0446306 -0.00553711 0.00406799 -0.0445 0.00652054 0.00400038 -0.0407913 0.00502354 0.0040009 
-0.0409908 0.00102826 0.00399948 -0.0448915 0.00251779 0.0040421 -0.0378978 0.00800434 0.00400023 
-0.0369221 0.00400764 0.00400007 -0.0333372 0.00223424 0.00399939 -0.0335879 0.00622452 0.00401285 
-0.0241336 6.84455e-05 0.0040075 -0.0299192 0.00460948 0.00400128 -0.0296807 0.000617053 0.00399917 
-0.020447 0.00547708 0.00399852 -0.0251754 0.00588891 0.00402174 -0.0215332 0.00932593 0.00400016 
-0.0287444 0.00843283 0.00400006 -0.0252795 0.009498 0.00574808 -0.0200194 0.00150109 0.00399947 
-0.010685 0.000350703 0.00400582 -0.0164504 0.00561303 0.00399958 -0.0141815 0.00231929 0.00400307 
-0.0175333 0.00946323 0.00399858 -0.0123185 0.00585815 0.00399889 -0.012343 0.00994156 0.00399917 
-0.00524111 0.00213226 0.00399896 -0.00108331 0.00525289 0.00399886 -0.00877632 0.00400183 0.00399942 
-0.00511437 0.00649247 0.00405944 -0.00133836 0.00126086 0.0039985 -0.00900417 0.00790834 0.00489683 
0.000246887 0.00907861 0.00399885 0.00640529 0.00428213 0.0039996 0.00741625 0.00815571 0.00400812 
0.00261203 0.00188695 0.00399958 0.00627699 0.000284601 0.00399945 0.0098029 0.00217341 0.00403109 
0.00282573 0.00603793 0.00430603 0.0178172 0.0034396 0.00399929 0.0114548 0.00581489 0.00399881 
0.0186649 0.00734828 0.00399924 0.0147398 0.00808637 0.00418571 0.0110251 0.00988752 0.00399919 
0.0141015 0.00319606 0.00545915 0.0285792 0.000640667 0.00399956 0.0215168 0.000644999 0.00399936 
0.0217653 0.00482265 0.00399907 0.0251186 0.00264418 0.00400746 0.0252418 0.0067998 0.00399955 
0.0221394 0.00932848 0.00399889 0.0286084 0.0046401 0.00399931 0.0339569 9.30822e-05 0.00399988 
0.0377973 0.00312136 0.00399922 0.0313325 0.00760188 0.00400058 0.0359766 0.00671786 0.00402302 
0.0328148 0.00390744 0.00439188 0.0400628 0.00704863 0.00410989 0.0414131 0.000540519 0.00399968 
0.0449253 0.00248158 0.00399869 0.044511 0.00645913 0.00400013 -0.0437668 0.0104536 0.00399945 
-0.0426322 0.014289 0.00399964 -0.0413308 0.0177843 0.00544127 -0.0345028 0.0101167 0.00399762 
-0.0376142 0.0174816 0.00399894 -0.0396953 0.0115763 0.00399874 -0.0318572 0.0131156 0.0039997 
-0.0360247 0.013813 0.00399871 -0.0338018 0.0169552 0.00508559 -0.0299663 0.0166395 0.00399888 
-0.0276893 0.012291 0.00399959 -0.0260303 0.0159309 0.00399966 -0.021749 0.016259 0.00399949 
-0.0236318 0.0127303 0.00399965 -0.0236618 0.0197714 0.00400006 -0.0276705 0.0199406 0.00400075 
-0.0175904 0.0164745 0.00399994 -0.013591 0.0164338 0.00399862 -0.015604 0.0129704 0.00400029 
-0.0109664 0.0195053 0.00399988 -0.0107577 0.013613 0.00406133 -0.0196029 0.0128849 0.00407752 
-0.0198209 0.019284 0.00576842 -0.00264686 0.0181152 0.00399987 -0.000549429 0.0129976 0.00399945 
-0.00739107 0.0114563 0.00399927 -0.00354792 0.0103513 0.00400002 -0.00791623 0.0169186 0.00399903 
-0.00461848 0.0144478 0.00458875 0.0040335 0.0101819 0.00467958 0.00107538 0.0166516 0.00399862 
0.00417206 0.0141208 0.00399974 0.00451669 0.0186881 0.00399926 0.0076771 0.0121722 0.00400652 
[...]
POINT_DATA 5999
FIELD FieldData 7
id 1 5999 int
544 482 514 144 333 828 1092 1037 856 
307 1045 862 120 924 97 520 598 107 
52 135 145 379 228 551 53 263 1095 
158 426 589 408 476 501 336 706 1008 
203 246 230 992 364 41 404 608 46 
247 760 245 690 397 154 1316 115 966 
557 274 440 1019 344 378 434 816 623 
874 294 669 946 11 724 63 502 704 
546 1015 174 424 199 469 365 952 776 
504 684 758 114 276 8 149 396 1042 
310 614 876 54 630 112 210 350 516 
509 401 528 423 861 136 437 349 787 
348 1107 659 57 131 360 281 550 650 
163 664 311 84 374 345 487 296 429 
99 113 42 815 205 616 66 1126 293 
1338 168 1144 1494 317 875 117 848 39 
1077 256 962 461 1035 231 788 523 86 
142 372 1214 1262 853 1503 802 686 417 
134 1096 20 783 126 72 1071 731 485 
447 354 906 175 821 221 58 584 612 
1101 1105 931 903 342 445 441 489 427 
627 1481 1486 710 1027 967 784 322 1142 
900 73 410 393 421 1161 1032 458 48 
108 241 367 914 418 604 1014 292 105 
558 781 12 857 766 224 755 742 813 
1269 16 5 463 23 971 998 1254 1128 
352 77 594 229 206 346 78 1460 1277 
563 170 886 763 1106 273 193 305 498 
375 384 734 560 517 935 1478 432 81 
286 712 128 320 473 88 380 1197 673 
155 1073 313 1613 341 182 586 847 745 
1066 288 954 1024 535 387 657 915 214 
949 394 836 165 592 244 298 334 436 
287 519 868 691 631 640 191 260 721 
996 64 98 579 671 80 79 225 356 
3 1040 266 576 337 910 159 944 524 
75 361 1124 197 347 522 103 316 104 
21 1016 1097 212 1072 736 1220 146 660 
715 556 91 839 425 880 926 521 76 
160 290 121 152 628 332 28 406 569 
177 1103 235 478 1611 929 748 312 116 
428 226 1368 227 928 705 1899 1084 220 
582 388 255 96 851 304 513 1134 118 
409 629 1703 133 1484 181 259 642 299 
140 1117 529 15 6 636 45 173 289 
213 769 916 507 327 475 129 1025 899 
141 497 207 904 111 701 395 530 217 
268 1489 477 215 124 474 532 780 162 
909 1790 27 414 454 161 625 218 866 
40 1461 328 882 2618 1 877 250 455 
18 122 885 1323 67 995 1765 178 26 
901 495 864 1119 430 1350 531 19 1213 
1433 1044 505 680 1171 100 1270 390 1098 
1477 282 997 1392 969 797 450 271 407 
1506 153 1328 1575 1164 1828 1995 1620 647 
1861 795 566 1326 2364 1079 2621 257 242 
194 1299 209 10 1286 981 1650 452 1834 
1589 65 1846 1690 1774 1602 1882 1705 773 
138 596 185 83 892 1232 233 1446 665 
772 2165 883 1999 1498 1878 777 567 109 
338 1033 391 907 1067 1632 696 707 1580 
1471 852 1677 1411 1688 47 1176 1358 605 
1387 968 1792 1284 1608 1434 147 449 1850 
1543 1365 1421 1251 1169 340 1485 1187 512 
285 1280 675 580 764 443 750 1188 1013 
323 889 2027 662 411 1341 1186 33 1005 
713 94 200 1162 254 488 183 198 548 
1563 574 493 1416 1785 279 1017 2300 1275 
302 402 49 1476 119 55 1043 953 1639 
1463 2042 1836 744 2067 1026 2781 2347 2145 
515 1166 1418 464 1028 711 1640 1289 818 
1331 1242 1647 1023 1605 1059 2292 905 1843 
1734 1768 1943 1538 400 371 633 1676 1285 
1179 534 2285 1789 1855 1159 1944 1283 2065 
2092 1210 1883 918 641 392 102 937 1754 
2109 2221 943 1697 1862 1074 1609 938 1274 
1550 1170 1691 2345 844 1036 858 1412 1258 
2136 442 1330 1217 1191 1406 1491 785 69 
1468 872 2296 1182 2161 248 382 267 90 
1114 779 22 689 617 643 652 471 800 
1047 1652 902 1224 1962 2053 413 249 1678 
921 1327 2328 1178 1829 223 525 803 703 
741 639 824 1064 1389 1113 578 1398 319 
961 1265 1592 2228 1680 68 125 1537 533 
1325 243 668 854 1407 1683 963 977 1345 
2129 1561 1844 106 1354 1955 2066 2557 674 
1623 1208 1722 1055 697 7 1672 1448 9 
2047 832 655 1594 1749 2209 2113 1687 2304 
1562 190 951 201 808 964 403 747 990 
986 179 1525 888 1201 1597 1555 2093 1595 
38 718 1152 1482 994 1404 1174 1012 2128 
1684 1644 1572 1240 1753 2490 1701 1076 1061 
211 1979 1203 353 1185 980 622 833 1177 
1497 1710 726 270 1377 1913 1960 1628 1852 
1413 1183 1272 2091 1141 1083 635 291 1288 
859 1508 819 2312 1931 1383 240 987 1369 
1223 1199 611 1256 1552 806 2277 123 679 
1775 43 927 1132 1319 518 834 1243 2278 
1767 1347 1308 1417 1811 1685 314 590 1180 
739 754 1276 252 805 1057 1355 692 139 
506 1372 1324 1222 749 894 653 2205 1397 
92 1584 1123 399 1212 562 615 1961 1679 
1118 898 222 1196 1329 1385 985 1860 1250 
1505 1215 1835 1359 1772 1233 1830 826 202 
613 767 881 25 1500 941 978 318 2194 
2014 1318 863 1268 2348 1333 619 884 496 
1443 1231 369 1310 1235 1429 1548 2307 1472 
694 1317 581 2299 1109 1127 1133 545 278 
1130 1587 1295 1618 376 1622 508 1099 1822 
1081 1536 1374 661 351 1380 1513 543 500 
1586 831 1140 1509 2104 869 575 1003 491 
1839 1091 1356 1263 2021 1479 1340 1588 2297 
1088 1569 1876 830 1728 695 1030 1366 1964 
1125 479 1529 483 2038 1809 1425 1049 865 
1634 1838 1692 855 537 1674 1202 1281 1845 
1630 1181 1444 893 1967 1279 812 1492 2210 
1348 714 2159 2240 896 389 1120 658 1100 
1145 1060 1886 1982 1493 1702 1399 1925 2346 
959 1332 1921 1629 933 842 751 137 1945 
1041 1914 1517 1577 1391 1573 1935 1137 1151 
693 1948 796 1011 870 1557 1006 879 1104 
1624 2451 2036 2043 1009 1334 24 756 511 
1228 873 1221 1038 1353 835 1122 1719 1002 
2200 2037 1351 775 610 890 654 867 1744 
982 1111 1225 983 110 1842 1357 585 2453 
2024 2537 330 607 702 499 920 1131 1567 
1522 1928 794 1362 2362 1158 2001 2139 1804 
1435 1252 1496 727 462 1512 667 677 682 
1871 2018 947 843 1907 237 743 1975 1615 
1361 1821 845 840 526 1395 280 1300 300 
355 1226 878 942 1480 838 728 717 1455 
1260 1720 1787 1342 1541 2335 1168 370 678 
1238 309 587 1428 792 1320 1148 570 1305 
381 606 1518 761 1895 1750 1593 127 297 
719 189 362 1054 188 565 431 1089 148 
1707 555 1381 1046 814 1129 770 934 171 
956 730 975 527 1010 1487 1796 1831 1139 
993 723 1445 253 31 1063 1306 1031 2264 
2074 2400 377 1426 564 984 1778 503 1112 
1977 1812 1291 187 1080 1149 1297 1450 1301 
1673 2651 2269 1524 1516 295 101 919 1294 
1439 1576 922 2248 632 232 817 366 1370 
2237 2176 1940 1110 2319 716 265 239 1523 
1018 1090 167 1052 1078 2279 1459 2242 789 
1312 1553 1499 2260 1675 1910 827 303 988 
419 32 588 778 1344 1255 1884 700 1936 
1826 1870 1714 2398 2034 1556 1997 1086 331 
572 1193 70 1490 29 1430 1335 737 1879 
1972 459 733 1462 1337 1339 301 1237 36 
1020 746 1153 676 420 2114 453 911 2452 
1154 1546 1721 1664 82 326 541 216 1150 
180 974 1085 1311 979 930 484 164 809 
315 87 1402 1535 568 822 553 1743 932 
283 646 186 955 130 709 958 609 648 
1976 1682 940 1021 708 2115 2148 1469 480 
626 448 765 238 368 1321 561 554 1069 
405 887 150 74 1236 358 1230 1583 1271 
50 1400 1384 481 1207 1056 1963 656 849 
573 51 2 13 740 1532 60 1566 620 
1984 1247 1029 1379 2152 1849 1135 412 923 
891 1022 600 688 841 1604 1560 435 559 
2010 2225 2446 2318 2134 2223 2750 2660 1343 
472 93 357 771 1346 439 925 1349 1617 
1449 1726 790 1257 71 1373 1048 1551 2119 
62 1442 258 1004 603 1394 1819 1001 1897 
774 2406 325 1367 1102 2051 470 1971 2910 
1248 1246 791 957 683 793 618 1309 1156 
284 1540 681 644 1510 1625 1314 1934 1669 
2039 1841 2203 386 599 35 272 277 251 
725 1436 373 685 846 698 1859 416 2158 
960 456 2090 2272 1227 1670 738 638 820 
976 583 547 1695 965 752 192 1582 2035 
1424 1467 2219 1163 1565 637 799 95 329 
1205 571 850 85 34 1273 804 1267 1752 
363 1423 1261 17 2198 972 991 1655 151 
1959 1053 1136 306 61 383 1165 1296 1875 
169 1873 2460 1764 468 1867 1388 1116 2629 
2243 1172 1725 339 275 798 14 89 1287 
196 624 2055 1534 2764 308 1755 2030 1923 
1760 1298 2049 1932 204 1745 1571 2007 1641 
1160 1868 1410 1475 1303 4 2023 1795 2127 
2284 2403 2211 597 264 973 166 1068 811 
649 591 184 1000 2146 486 1167 538 1631 
261 1514 1195 917 1401 2474 321 438 324 
829 30 666 1504 1108 490 645 1651 1542 
759 1591 577 1724 651 1610 176 1645 1627 
1453 1050 433 195 143 415 59 157 1249 
801 466 1336 1713 359 1579 989 2110 1708 
786 1307 1173 999 234 593 1147 908 1266 
1530 1495 132 1290 552 729 510 56 269 
762 156 670 1364 1239 422 451 1209 621 
542 1816 1390 1980 2081 1922 2384 2327 1657 
1211 343 446 1189 768 1570 1143 735 2690 
1717 2680 2122 2843 2554 913 602 1245 3284 
2196 2641 2046 2257 2100 3086 3465 2999 2528 
2911 2938 1386 601 2289 1638 1259 1598 3160 
2845 3808 3564 2713 3155 3025 2254 2633 1906 
2720 2686 1777 3060 2195 2349 2508 2918 1194 
2073 1957 1564 1869 699 782 2303 2247 1581 
2847 2102 2250 2977 2512 2341 492 2588 3540 
2464 1547 2275 1856 2245 1603 2987 3013 1783 
2421 2417 1661 2208 2963 2862 3098 3529 2851 
219 1649 2527 2157 2612 2121 1590 2106 2526 
1681 2084 1626 2840 2098 2968 3413 2433 3636 
2958 1718 2031 457 1175 1488 1420 2003 2825 
1146 2351 2383 1800 2959 2833 2975 2761 2506 
3033 3256 1614 1533 2472 2455 2187 2624 2684 
2418 2378 3174 2448 3271 1519 1981 2295 3008 
2377 2075 2355 2932 2606 2517 3464 2545 3215 
2332 3734 2871 3187 3650 1756 2735 2416 687 
1952 2044 1058 1278 1937 465 2560 2611 2689 
2538 1802 2675 1865 2806 2443 2143 1949 1733 
1771 2391 2646 1382 2314 2493 1991 2601 2041 
2135 3193 1458 2645 2556 2330 3469 2239 2483 
1633 1470 2185 1779 3348 2869 2008 1746 2613 
2746 3094 3425 3411 3391 3851 3111 2150 1437 
1696 2427 2305 1253 1619 2291 2812 2767 2396 
3297 3027 3303 2516 2795 3122 2498 3492 2191 
1654 1908 970 2470 2009 3082 2661 2532 2510 
1983 1376 1727 1414 2276 2183 2368 2120 2486 
2673 1919 1483 1456 1405 1953 1686 2953 2511 
2015 1978 2522 2765 2468 2111 3079 2048 2402 
1866 3249 2824 1780 1659 540 2408 1699 1693 
2562 1989 2964 1716 3175 2423 2515 2338 2415 
2280 3015 2717 3699 1403 1954 37 2013 2329 
2173 2181 2298 2943 3024 3124 2105 1737 2025 
2450 1711 1817 2776 1093 2271 1378 2859 2639 
2610 2429 1184 2004 2743 1968 1858 1607 2667 
3451 2061 2886 1065 1887 1773 2491 2385 2359 
1700 3252 2576 2389 2787 1848 2430 2779 2226 
2057 2142 2282 722 2177 3156 2816 2668 2708 
2363 3375 2387 3247 2858 2880 2714 1794 1662 
2151 3173 2794 1917 2399 2103 2674 2457 3072 
1781 3338 1814 2728 1881 807 1408 1636 2944 
2190 1988 2916 2182 2870 3040 1942 3180 1966 
1070 939 3286 1671 1668 2600 1264 2804 2333 
1889 2736 1763 2594 2050 1824 2549 2666 2671 
1840 2409 2846 3158 2520 2687 2432 3211 3690 
2534 2519 3208 2301 2652 1087 2317 2179 2440 
2071 2745 2420 1965 2005 1987 1958 2426 1642 
1219 1198 2709 2370 2322 2361 1531 2565 1293 
1863 1905 1658 2116 2083 2579 3063 2202 3185 
1893 2366 1730 2665 1539 1924 2935 3339 1896 
2939 1667 3368 3445 1759 1776 2774 2163 2141 
2688 1969 2773 3258 2206 2082 2373 3029 2482 
1890 3250 3620 1916 2883 3548 2548 1902 2796 
1793 2712 1723 1431 2861 1807 1938 2875 3455 
2772 2251 3039 2444 3892 1806 3150 1315 1643 
1363 1396 2006 1993 1736 1200 1452 1815 1994 
1877 2207 2989 2678 2407 2922 1155 2478 1507 
2172 2577 1704 2392 1568 1558 2786 2521 1051 
2950 3453 1888 1216 1927 1454 2531 1637 2130 
2326 2595 2737 2820 3012 2573 2863 3214 2323 
2536 2309 1206 2449 2676 2607 1694 2215 2603 
2357 1786 2978 1545 3003 3189 2405 2059 2125 
1985 2204 1094 1447 2256 1833 1920 2118 2699 
2193 2192 2885 3569 2395 1663 753 1832 2086 
1732 1660 1689 1941 1900 2220 3257 2798 1901 
2749 2343 536 172 1813 1803 2466 1653 2422 
2770 2940 2814 2881 1616 2290 1805 3499 1735 
1946 3149 3278 3506 3633 2951 3757 2052 860 
2852 1440 1769 2488 3387 1502 2232 2441 1885 
1762 1990 2068 2473 2827 2677 3246 2572 2899 
3121 2169 2941 2344 2653 2379 1992 2154 2258 
1808 1998 2762 871 2026 2079 2077 2439 2424 
2752 2070 2647 2222 2504 2325 2306 2425 2140 
1600 2716 945 2546 2849 2356 1729 1909 1739 
1585 1825 2564 2476 3574 2632 2589 2458 1599 
2112 1292 2094 2830 2630 2132 2657 2217 2164 
2969 2844 3112 3179 3071 3308 2738 1578 1521 
1466 1229 2124 2095 1432 2500 1851 1820 2887 
1039 2404 1930 2865 2724 2854 1501 1304 1360 
549 1646 1648 1549 2636 2503 1798 1956 2442 
2725 3196 2218 2249 3485 2382 2620 1244 1911 
2459 2584 1515 1933 1738 2638 1621 1915 2682 
2316 3054 2802 3273 3439 757 2072 1528 1761 
1810 1797 2994 2253 2431 2445 1874 2462 2017 
2985 2934 2011 2615 3006 3390 3085 2604 2374 
2785 1352 1007 2414 2839 1526 2529 2701 3053 
1706 2799 2342 1409 2592 2587 3050 2413 2789 
3700 2890 2471 3489 1656 1419 672 2367 2123 
2386 2178 3047 2902 2923 2352 2214 2274 1731 
2436 3234 1947 2273 3373 3337 2697 2480 2133 
1574 2012 1218 2238 1740 2759 1465 2199 1892 
1204 2543 1766 1747 2108 1898 2658 950 2167 
2287 2447 3105 1451 1799 2213 2201 2016 2608 
2162 2961 2908 2535 3403 1302 1241 1415 1970 
2324 2649 2336 2702 2888 2230 2029 236 2492 
1894 3398 2137 3463 1918 2753 2555 1082 2156 
1190 1075 1880 2340 2924 2175 2456 2321 2751 
1872 2288 3277 2625 3304 2045 2730 3756 2233 
1115 2375 810 539 1559 1511 1666 1457 2076 
2186 1527 1709 2281 2982 2654 2261 3251 2933 
2153 2655 1847 3432 1441 1138 2020 2768 2019 
2700 2962 2227 1827 2598 2212 1234 1192 1427 
1635 2898 1742 2495 2744 3138 3070 2605 2734 
2681 1665 1748 2622 2265 2626 2174 2331 1818 
2602 2376 2578 3980 2315 2097 2715 3170 2672 
3307 4228 2160 2283 2837 2259 3031 1853 1939 
2900 2547 2810 3232 2691 3280 3712 2841 2525 
2469 3733 3190 2635 948 2155 2101 2022 1801 
1596 2310 3045 2502 2397 1864 3017 2729 3287 
3274 3225 2184 2244 2496 2062 3893 2561 2583 
634 2559 3010 2063 2089 2494 2078 2727 3153 
2644 3301 3219 3358 3330 1912 444 2040 1375 
1698 1712 2711 1473 2590 2580 2936 2822 3202 
2087 2390 2882 2703 2949 2650 2311 2410 1393 
2000 2054 1322 897 1601 2957 2784 2360 3371 
2627 3145 2748 3116 3818 2591 2475 3367 494 
1121 460 2138 1757 1544 2188 2903 2988 2401 
3270 1784 2080 3292 2663 2831 3212 3397 2380 
2766 2876 2032 2064 2956 1715 1474 2394 262 
2670 2948 3372 2706 2170 2631 2171 2107 2945 
3114 3747 2582 1612 2434 2234 1788 2236 1791 
2033 2513 2942 2872 3400 2270 2593 2563 3460 
2294 3293 3081 3939 3937 3357 2197 2180 2099 
2411 2575 2586 2350 3201 3171 3266 3073 1758 
2813 1903 2992 1926 1034 3004 2758 3442 3752 
3684 823 2497 1891 1313 2302 1770 2229 2369 
2692 3561 3341 2255 3435 2085 2793 3444 1520 
2811 1422 1282 825 2246 2147 2523 2235 2412 
2778 2909 2585 3406 2144 3401 3268 2058 2637 
1554 2381 2060 2662 2372 2126 2501 3172 3738 
2266 1062 2542 1951 1973 1823 2002 2856 1837 
2937 3120 3176 2530 2574 3591 3783 3410 2569 
3162 2970 3487 3089 3538 2514 335 2056 2131 
2868 3630 2775 3255 2518 2866 3718 3580 3509 
3002 2771 2069 3106 2685 3493 3288 2742 3282 
2836 3804 4039 3142 3955 3289 2879 3722 3713 
3446 3279 2718 3792 4166 3834 4464 1996 3703 
4216 2507 3056 3958 3331 3902 2801 3471 3235 
2623 3845 3639 2864 4060 2634 4618 4497 3972 
3607 4124 3404 3862 2262 3319 2096 3677 4129 
3822 2783 2891 3032 3790 3077 3148 3440 3058 
4422 3778 3654 3276 4392 4358 2435 4100 3362 
3707 2308 3334 3844 3194 3723 3405 3302 4149 
3632 3523 3195 3985 3727 3547 3670 3099 2487 
3315 3682 4002 3361 3472 2371 3433 3913 3831 
3763 4139 4326 2955 4388 3764 4310 3349 3618 
3095 3207 3378 2930 3761 3165 4248 3152 3766 
3967 3379 4066 3735 4416 4642 4072 4270 4738 
4390 4918 2855 4051 2499 2747 2467 2616 3768 
3350 4439 3623 3894 4211 3800 3675 2967 3711 
3083 4375 4038 2809 3311 2553 4415 4086 2669 
2568 2339 2877 2533 1950 2596 3537 3048 3500 
3437 3578 3708 3811 3868 3717 3883 4456 4395 
4451 3125 2597 4200 3313 4647 3847 2740 2189 
3067 4279 4170 2973 3478 4188 4460 3037 2929 
4255 2834 4389 3662 3833 3450 2946 4637 4813 
3715 4371 4420 4169 4463 4664 3221 3920 2966 
3325 2904 3449 2721 3052 4000 4480 3512 3516 
3993 4632 3264 4284 4496 4567 3539 2505 3360 
2821 3346 2628 2438 3186 4056 3676 3983 4007 
2832 4521 4946 4705 4775 4361 4366 4742 4136 
4993 2739 3553 2808 2088 3078 3041 3599 3522 
2842 2907 3103 3188 3527 3794 3907 2980 4797 
3771 4093 3898 2659 3028 2848 3721 2365 3572 
3769 3590 3751 3226 3353 4317 2648 3714 3412 
3806 4198 5425 3990 3347 4161 4202 2216 3828 
3199 2896 3365 3096 3370 3534 4559 4068 3298 
2777 2976 4012 3674 4113 2656 3238 3789 2867 
3774 3556 3528 2829 2805 2231 2268 3799 4089 
3743 3477 3615 3476 3826 3753 3482 3409 3642 
4065 3754 4646 4891 4001 2983 3614 3345 3309 
3000 3169 3260 3462 3813 3594 3415 3317 3518 
4403 3231 4130 2581 3005 2477 2168 2696 3388 
2354 3651 3931 3166 4504 3101 3634 3399 3468 
3242 3459 3963 4175 3956 2694 2693 2838 2984 
2788 2857 2927 3020 4259 3829 3624 4019 3773 
3344 3681 4700 3376 4205 3821 2540 3772 3679 
3143 3418 3183 3457 3848 3402 3974 4134 3640 
3672 3987 3323 3204 4466 4328 3944 2461 3090 
3616 2895 3306 3979 3695 3244 2698 3259 3730 
3897 4525 4291 4387 3951 3253 3988 4440 4127 
3924 2732 3542 3508 2241 1741 2954 3825 4232 
3504 2726 4253 3705 4120 3849 3011 3861 4374 
4600 4870 4729 3167 2757 3181 2769 3557 2860 
3706 3392 3092 4545 4359 3377 3474 3526 4242 
2286 4281 3227 2558 3655 3788 3881 2544 4075 
3611 3921 4699 3571 4590 2664 4444 4833 4806 
3001 2995 3100 3427 3692 4306 3649 4133 4597 
4046 4754 3886 3140 3466 4560 3746 4154 3157 
3222 3973 3422 4103 4084 3819 3596 4979 3035 
4340 2897 3890 2915 3767 2894 3563 3237 2993 
3136 3236 3926 3191 4099 3652 4031 3856 4184 
3275 4189 2263 2704 2741 2484 2683 2819 3927 
3748 3952 4125 3108 4688 2823 2481 3326 3327 
2567 2541 3941 3545 2998 2617 2914 3229 3638 
2707 3685 3644 4262 3598 3139 3698 3055 3129 
2986 3066 3163 2293 3428 3272 3107 3030 3837 
3424 3127 4506 4753 3586 4061 4109 3336 2614 
3097 3948 3075 2947 2571 3925 4237 3810 3484 
3550 4295 4570 3241 3104 4731 4937 2835 2539 
3333 3786 3498 4454 3393 3408 4112 3356 3622 
3744 4105 3592 3473 4315 3363 3316 3858 2780 
3935 2850 3762 3431 4335 3588 3891 3200 3859 
4245 2419 3628 3981 3877 3568 4233 4069 3324 
4394 4207 4465 4617 5247 5179 4443 4958 3694 
3023 3864 3061 3936 4402 4429 4349 3452 2912 
3530 3007 2928 3230 3243 3558 3283 3044 4434 
2722 3665 3855 4128 3210 4156 3970 4438 3414 
3458 2828 3016 2733 3470 3084 2358 2756 4217 
3663 2760 3946 4114 3332 4246 3220 3022 2465 
2393 2570 2642 2552 3576 2991 2971 3161 2599 
3796 2807 2965 3197 3205 4024 3867 3609 3502 
3443 4386 2313 3009 1857 2990 2337 3109 2320 
3617 2815 2920 3501 3613 4020 3619 3680 3128 
4468 3689 2524 2931 3351 3602 3135 3668 2817 
2893 2926 3601 3544 3198 3130 4176 2974 3184 
3144 4239 3830 4772 2919 2797 3486 3164 4083 
2972 3305 4365 3673 4165 3117 3018 4531 4899 
3608 3776 4235 3687 3380 4327 2755 3312 3666 
3088 3582 3795 3146 4053 3872 4573 2979 3755 
3505 2763 3429 3842 3177 2906 3560 3366 3584 
3014 3874 3552 2643 4081 3479 4203 3686 3850 
4062 3513 3750 4369 3448 3480 3093 3300 3702 
4309 3775 4137 3359 2960 3110 3575 4614 3996 
4347 3447 4479 4183 3239 3213 3087 2803 3827 
3945 4193 3991 4077 3950 3816 4472 3749 3805 
4018 4811 4311 3631 4338 4116 3395 4097 2826 
3719 4736 3159 3779 4102 3600 4158 4551 3589 
4673 4017 3123 3871 3134 2792 3419 3835 3777 
2428 3653 3593 3720 3383 3245 3541 4990 3739 
4639 4080 4364 4231 1854 2609 2723 1974 2997 
3491 2463 3295 4187 4163 3233 3343 3043 3520 
4090 3494 2925 3314 3329 2334 3299 2889 3262 
3975 4425 4201 3661 3019 4256 3488 4412 3852 
3168 4565 2679 2437 3741 3760 3074 1904 3394 
3352 2353 3832 3533 4288 4486 4320 3420 3605 
3656 4204 3514 3218 4033 2705 3151 3182 3068 
2224 2754 3904 3441 3178 3785 3900 2853 3660 
4058 4215 3554 3223 3042 3133 4146 3999 3261 
3915 4199 4561 3546 3737 2731 3318 2800 3732 
4250 4174 4252 4219 4591 3865 3965 3846 4258 
4272 3731 3426 3716 3803 3224 3296 4108 3627 
3930 3968 3629 3051 3876 4152 2981 4047 4598 
3693 4341 4999 3740 3793 5224 2952 3745 3065 
2619 3559 2917 3626 3036 3407 2550 3878 4157 
3962 4860 3369 3436 3836 2551 4041 3969 3354 
3643 3597 3697 3917 3291 3782 4131 2921 4073 
3064 3637 4042 2884 3267 2874 3091 2485 3929 
3216 4078 2719 3688 4234 4182 3248 3736 3269 
3901 3240 4107 3531 4055 3916 3021 4192 4589 
3587 4377 4513 2388 2892 3119 3704 3290 3787 
3519 3141 3389 3217 3382 3515 2901 3780 3131 
4238 3461 3603 2913 3671 4625 3034 3507 3495 
3154 3454 3421 3132 4391 3691 3802 4273 3658 
4717 5101 3384 3062 3059 3562 2791 3069 3521 
4505 3798 3321 3535 4336 4044 3566 4274 4727 
4943 3869 3625 4604 4094 4602 3895 3263 3565 
4035 4194 3517 3342 3355 4578 3430 4300 3322 
4023 4135 5232 4926 5133 3646 3683 2489 4096 
3049 3192 4118 2905 4316 4009 4212 3635 4428 
4801 4040 4224 4638 3647 3467 3823 3843 4087 
3934 4459 3080 3503 2878 3203 3664 3725 3942 
4292 3765 4185 4921 4254 4530 3396 2479 3115 
3884 3340 3026 2028 4091 4346 3076 3709 4043 