# vtk DataFile Version 4.2
Generated by LIGGGHTS
ASCII
DATASET POLYDATA
POINTS 6000 float
-0.0169018 -0.0168091 0.0150197 -0.00890161 -0.0214124 0.0143316 -0.0151489 -0.0185472 0.014259 
-0.01146 -0.0184304 0.0143171 -0.0109181 -0.0213114 0.01426 -0.0125502 -0.0201412 0.0140754 
-0.0133345 -0.0177049 0.0145315 -0.00991359 -0.0176636 0.015416 -0.0138755 -0.0194035 0.0155832 
-0.0106839 -0.0196101 0.0157877 -0.0163699 -0.017286 0.0185005 -0.0159585 -0.0177801 0.0165604 
-0.010605 -0.0213294 0.0168479 -0.0123838 -0.0182017 0.0163694 -0.00889391 -0.0201044 0.0165424 
-0.0123639 -0.0203808 0.0167 -0.0142558 -0.018496 0.0173553 -0.00872902 -0.0221771 0.0162681 
-0.00986018 -0.0199528 0.0182928 -0.0100337 -0.0181216 0.0173602 -0.0116508 -0.0190795 0.0180458 
-0.00939505 -0.0219223 0.0183397 -0.0115392 -0.0209928 0.0186425 -0.013429 -0.0197152 0.0187202 
-0.00853064 -0.0185049 0.0186929 -0.0106644 -0.0194972 0.0200669 -0.0103682 -0.0215338 0.0202357 
-0.0107271 -0.0176845 0.0192259 -0.0150166 -0.0185608 0.019245 -0.012428 -0.0203935 0.0203651 
-0.0124486 -0.0184395 0.0199134 -0.00971714 -0.0181047 0.0211468 -0.00900475 -0.0202231 0.0209155 
-0.014031 -0.0192861 0.0208302 -0.0157426 -0.0180674 0.021076 -0.013993 -0.0172981 0.0204764 
-0.0123404 -0.0172063 0.0181316 -0.0121332 -0.0167063 0.0209342 -0.00847142 -0.0194854 0.0146702 
-0.00332612 -0.0220258 0.0143317 -0.00157908 -0.0210323 0.0142248 -0.00739799 -0.0227309 0.0142972 
-0.00640845 -0.0188908 0.0144357 -0.00479272 -0.0233647 0.0146636 -0.00818763 -0.017516 0.0144004 
-0.00280645 -0.0177076 0.0145422 -0.00500689 -0.0213168 0.0151781 -0.00343926 -0.0200267 0.0150964 
-0.0068895 -0.0208322 0.0146711 -0.00296441 -0.0236749 0.0154365 -0.00458331 -0.0183647 0.0152914 
-0.00133368 -0.0190643 0.0145094 -0.000900338 -0.0170941 0.0147613 -0.00120377 -0.0239466 0.0144348 
-0.00614579 -0.0168987 0.014446 -0.00636144 -0.0230854 0.0160029 -0.00155184 -0.0223195 0.0159184 
-0.00814029 -0.0182591 0.0167048 -0.00707227 -0.0209105 0.016767 -0.00427153 -0.0234681 0.0169577 
-0.00339072 -0.0215988 0.0163711 -0.00189734 -0.0177622 0.0165185 -0.00190073 -0.0203218 0.0168039 
-0.00349274 -0.0190581 0.016898 -0.00385177 -0.0170905 0.0168145 -0.00535128 -0.0197705 0.0164899 
-0.00618332 -0.0179278 0.0164381 -0.00750824 -0.0226752 0.0178199 -0.00218163 -0.023814 0.0173398 
-0.00524424 -0.0217097 0.0171331 -0.00676039 -0.019173 0.0180251 -0.0021302 -0.0219092 0.0179986 
-0.00446839 -0.0202436 0.0183294 -0.00270516 -0.0177744 0.0183534 -0.00494964 -0.0183149 0.0180913 
-0.00566449 -0.0232426 0.0183998 -0.00114829 -0.019113 0.018281 -0.000717899 -0.0170624 0.0182031 
-0.00803093 -0.0205064 0.0188776 -0.0081311 -0.0172494 0.0202199 -0.0080581 -0.0224382 0.0197404 
-0.00398845 -0.0221432 0.0187335 -0.0062093 -0.0213569 0.0188899 -0.00252416 -0.0203373 0.0191757 
-0.00282757 -0.0237079 0.0192376 -0.00378168 -0.0188722 0.0197269 -0.00742638 -0.0191165 0.0203546 
-0.00627976 -0.0231352 0.0203641 -0.00299905 -0.0219237 0.0204652 -0.00557117 -0.0197528 0.0199308 
-0.00431399 -0.0234622 0.0205583 -0.00184677 -0.018569 0.0201413 -0.00625941 -0.0177389 0.0194924 
-0.00498412 -0.0215775 0.0205158 -0.00718626 -0.021092 0.021009 -0.00498425 -0.0179699 0.0210468 
-0.00390773 -0.0168613 0.0196673 -0.00274971 -0.0171739 0.0213017 -0.00133282 -0.0239077 0.0212066 
-0.000680813 -0.0202018 0.0200026 -0.00112157 -0.0221488 0.0198124 -0.000863406 -0.0239297 0.0189336 
-0.0003392 -0.0238774 0.016463 -0.000266787 -0.0189816 0.0164485 -8.71287e-05 -0.0209912 0.0162714 
-0.000146021 -0.0221614 0.0179344 -6.48967e-05 -0.0182453 0.0210351 -2.70151e-05 -0.0223152 0.014548 
0.000309857 -0.0202403 0.0144204 0.000718853 -0.0182612 0.0146074 0.00335592 -0.0236776 0.0146112 
0.00224123 -0.0195616 0.0145493 0.0013205 -0.0238125 0.0148748 0.0018378 -0.0215316 0.0145218 
0.0038378 -0.0207563 0.0147424 0.00408442 -0.0187826 0.014514 0.0053372 -0.0232601 0.014667 
0.00600099 -0.0182072 0.0144988 0.00576358 -0.0213068 0.0145197 0.00255352 -0.0174718 0.0144888 
0.00737282 -0.0226974 0.0146234 0.00768641 -0.020729 0.0144325 0.00787562 -0.0174888 0.0144618 
0.00455184 -0.0168385 0.0146948 0.00535924 -0.0197508 0.0157962 0.00116211 -0.0225565 0.0164689 
0.0030559 -0.0220968 0.0160045 0.00286079 -0.0184104 0.0162309 0.00164297 -0.0199973 0.0164147 
0.00487686 -0.0215202 0.0166084 0.00463786 -0.0234642 0.0170126 0.00647738 -0.0229573 0.0163929 
0.00679032 -0.0209435 0.016547 0.00730324 -0.0190718 0.0157577 0.00106348 -0.0175891 0.0171763 
0.00265704 -0.0237435 0.0170671 0.00352142 -0.0201344 0.0171056 0.00212075 -0.0213829 0.0178208 
0.000470194 -0.0202997 0.0183454 0.000968281 -0.0238166 0.0181371 0.00220041 -0.0192866 0.0183873 
0.00572455 -0.021208 0.0184033 0.0072756 -0.022515 0.0181759 0.00372649 -0.0222753 0.0186236 
0.0025658 -0.0237428 0.0193639 0.000536356 -0.0184307 0.019123 0.000207124 -0.022027 0.0213024 
0.000509301 -0.0238546 0.0204167 0.00121072 -0.0222708 0.0194155 0.00336009 -0.0204939 0.0194829 
0.00481814 -0.0216541 0.0202254 0.00128956 -0.0204837 0.0203107 0.00427055 -0.0235712 0.0204003 
0.00222626 -0.0187199 0.020531 0.00287405 -0.0221434 0.020525 0.00550462 -0.0232214 0.0188072 
0.00624897 -0.0230217 0.0206551 0.00672548 -0.0210456 0.0201351 0.00770917 -0.0205601 0.0182907 
0.00160976 -0.016705 0.0190352 0.00810656 -0.0225027 0.0199955 0.0110999 -0.0210804 0.0142895 
0.00928993 -0.022019 0.0145274 0.00947796 -0.019816 0.0144193 0.0113473 -0.0190858 0.0144745 
0.0130753 -0.018033 0.0144257 0.00965843 -0.0179588 0.0152463 0.0152725 -0.0183157 0.0150369 
0.0137883 -0.0196174 0.0154185 0.0112625 -0.0170773 0.0144284 0.00869219 -0.0204626 0.0161553 
0.0121147 -0.0205766 0.0159548 0.00841896 -0.0224119 0.0165291 0.0103699 -0.0215013 0.016496 
0.0104471 -0.0195061 0.0162389 0.0122344 -0.0186229 0.0164141 0.00881302 -0.0186312 0.016996 
0.00967096 -0.0201257 0.018042 0.0132612 -0.0199687 0.017484 0.011525 -0.0208755 0.018008 
0.0106267 -0.0180102 0.0175718 0.0147942 -0.0188006 0.0169468 0.00835261 -0.0198734 0.0201009 
0.0092379 -0.0220884 0.0183362 0.00940773 -0.0184139 0.0191053 0.0104897 -0.021438 0.0197864 
0.0110262 -0.0195433 0.0194309 0.0129278 -0.0201462 0.0196131 0.0100056 -0.019776 0.0212295 
0.0118814 -0.0189645 0.0211448 0.0144754 -0.0190878 0.0189177 0.0123764 -0.018451 0.0184393 
0.0152341 -0.0184978 0.0206805 0.0133197 -0.0179866 0.0201453 0.0111104 -0.0175744 0.0199263 
0.009331 -0.0173182 0.0208428 0.0159943 -0.0178037 0.0186347 0.0140085 -0.0173118 0.0181236 
0.013462 -0.0170554 0.0162141 0.0162848 -0.0175204 0.0165726 0.0168838 -0.0169111 0.014719 
0.0166652 -0.0171278 0.0203972 -0.0191428 -0.0136037 0.0144351 -0.0208883 -0.0115303 0.0144173 
-0.0188684 -0.011608 0.0145198 -0.0168951 -0.0118725 0.0147975 -0.0182609 -0.015405 0.014528 
-0.0170632 -0.0138533 0.015067 -0.0175985 -0.010048 0.0143399 -0.0198123 -0.00984081 0.0144478 
-0.0218833 -0.00978859 0.0144945 -0.0173427 -0.0163776 0.0169667 -0.0201629 -0.0126396 0.0159221 
-0.0186655 -0.0149578 0.0164526 -0.0191345 -0.0110273 0.0166327 -0.0181684 -0.0129166 0.0164749 
-0.016964 -0.0100218 0.0162375 -0.0213287 -0.0108129 0.0162522 -0.0202226 -0.00915117 0.016373 
-0.0206387 -0.0119659 0.0177521 -0.0176931 -0.0115814 0.0179273 -0.0196026 -0.013678 0.0176996 
-0.0197036 -0.0103395 0.0184574 -0.0216921 -0.0101035 0.0182374 -0.0184669 -0.00922016 0.0173427 
-0.016908 -0.0165698 0.0203438 -0.0180834 -0.0155922 0.01895 -0.0191508 -0.0122842 0.0191196 
-0.0192796 -0.0141826 0.0197341 -0.020165 -0.0127391 0.0208227 -0.0177437 -0.0136318 0.0184895 
-0.0181615 -0.0128002 0.020922 -0.0183146 -0.0153502 0.0210849 -0.0168315 -0.0144279 0.0200983 
-0.0209945 -0.0113625 0.0196326 -0.0181542 -0.0108142 0.0200956 -0.016797 -0.0100034 0.0188453 
-0.019905 -0.00994175 0.0205301 -0.017002 -0.00933463 0.0209287 -0.0219021 -0.00970856 0.0202972 
-0.0222189 -0.00886689 0.0164086 -0.0185392 -0.0089622 0.0193877 -0.0137996 -0.014962 0.0142411 
-0.0109259 -0.0127589 0.0142666 -0.00958657 -0.0159817 0.0142664 -0.0163281 -0.0150903 0.0181219 
-0.015147 -0.0134949 0.0145944 -0.0115306 -0.0164334 0.0145049 -0.0130446 -0.0126483 0.0143323 
-0.010017 -0.0110133 0.0146603 -0.00914714 -0.0139852 0.01439 -0.0118858 -0.0144681 0.0147057 
-0.0150253 -0.0165511 0.0142971 -0.0149143 -0.0114982 0.0146097 -0.0119118 -0.0112192 0.0152672 
-0.015007 -0.00958485 0.0152623 -0.0129197 -0.00970012 0.0144032 -0.0109906 -0.00926585 0.0148133 
-0.00919509 -0.00890274 0.0156916 -0.0155505 -0.0156494 0.0163048 -0.0128778 -0.0162422 0.0160231 
-0.0107256 -0.0143606 0.0163801 -0.0136961 -0.0139103 0.016048 -0.00970882 -0.0126449 0.0159407 
-0.013708 -0.0108608 0.0160987 -0.0159274 -0.0137082 0.0167283 -0.00904296 -0.0107906 0.0164053 
-0.0106736 -0.0162443 0.0170616 -0.0160397 -0.0117093 0.0167955 -0.0136683 -0.00868033 0.0164763 
-0.0141453 -0.0165026 0.0175708 -0.0125874 -0.0123884 0.0168271 -0.0108634 -0.0113911 0.0170237 
-0.0102878 -0.00949476 0.0172922 -0.00921319 -0.0148165 0.0176844 -0.012462 -0.0149389 0.0175166 
-0.012235 -0.00993289 0.0170893 -0.0144267 -0.0125702 0.017606 -0.014406 -0.0145401 0.0179529 
-0.00930757 -0.0122358 0.0179601 -0.0145405 -0.0105912 0.0179099 -0.010984 -0.0136714 0.0182603 
-0.0111938 -0.0156711 0.0189091 -0.0154896 -0.00891077 0.0173698 -0.0159994 -0.0127904 0.0208955 
-0.0159821 -0.0126634 0.0188708 -0.00916656 -0.0165803 0.0186272 -0.0151294 -0.0160238 0.0194337 
-0.0105559 -0.0110963 0.019031 -0.012549 -0.0115694 0.0187739 -0.0129647 -0.0137066 0.0193661 
-0.0131406 -0.0157274 0.0194664 -0.00987982 -0.0144287 0.0197719 -0.00911471 -0.0106214 0.0203416 
-0.0142739 -0.0121429 0.0197872 -0.0156092 -0.0107817 0.0204303 -0.0113634 -0.0126755 0.019985 
-0.0102062 -0.0162595 0.0205469 -0.0148718 -0.0140773 0.0198586 -0.0109222 -0.0102627 0.0211351 
-0.0116328 -0.0147866 0.0206814 -0.0130361 -0.0127751 0.0212644 -0.0135731 -0.0148264 0.0211995 
-0.00912615 -0.0126163 0.0201559 -0.0137418 -0.0102068 0.0197059 -0.00933156 -0.00904139 0.019118 
[...]
POINT_DATA 6000
FIELD FieldData 7
id 1 6000 int
1265 789 561 587 49 14 837 393 630 
547 1260 1047 2040 1155 83 803 1797 217 
981 1685 854 364 1015 104 1643 1243 10 
1143 1457 1128 466 1414 1025 2022 370 1829 
368 1844 944 556 719 1455 367 68 1789 
158 296 1416 349 1655 108 179 980 1737 
195 2220 1605 1704 148 73 1680 957 624 
2081 889 477 1473 1119 214 1633 790 2233 
1152 1273 1766 828 458 1869 1013 1174 1988 
2184 1018 976 1808 2328 2136 619 1701 1145 
1215 2163 1690 1628 1597 1022 2423 553 314 
1552 2617 585 608 1504 443 2261 1892 631 
412 1081 222 227 1176 533 591 192 37 
714 297 639 305 1242 419 300 525 2078 
428 287 1202 1914 1153 17 1543 717 99 
687 289 1147 1733 206 1439 1319 1555 1201 
2123 435 2016 2653 193 1486 1554 2447 1840 
1121 1729 33 1357 4792 722 2418 2076 326 
986 1540 955 876 117 605 1810 1136 216 
4285 1188 438 4351 2013 172 794 1553 637 
46 331 2616 1231 4375 4502 3104 3275 4281 
4103 2997 1102 3765 3911 1221 3346 2673 596 
230 3168 833 2115 1048 1130 569 260 727 
84 1106 588 1212 618 1169 817 271 888 
1278 197 701 1574 941 1576 494 1006 1890 
2204 2396 1426 990 378 1021 1652 69 1498 
1747 231 685 682 2092 1329 40 750 204 
632 2497 309 874 224 1017 383 441 534 
391 1714 713 1154 961 151 131 708 1167 
285 508 353 764 94 223 2160 210 598 
468 562 347 275 407 1141 242 1703 320 
2097 1611 1120 1246 901 1992 225 100 1314 
1575 72 999 1253 86 276 1224 563 1462 
1592 1421 1077 519 1091 884 873 2159 160 
510 241 576 775 896 372 1274 741 186 
1300 663 12 1132 1464 584 500 1360 61 
1053 373 67 1158 558 904 1070 712 781 
1095 1045 785 498 724 207 1110 1549 570 
64 850 318 1517 497 1739 1180 2 1674 
885 1012 1309 1060 949 156 48 244 738 
572 1266 891 656 1510 1951 1369 792 710 
947 974 1799 1884 2006 523 437 417 302 
975 18 39 734 1223 1429 946 123 700 
348 620 56 2113 581 1716 219 298 279 
234 1367 989 81 550 1087 1054 797 115 
129 1428 879 1518 1064 2960 1103 394 1937 
2093 1698 1228 1562 199 1978 1723 1363 1291 
758 715 1813 1964 1475 2329 1948 352 1906 
483 3592 1658 1584 273 867 1255 1908 256 
1038 1938 1827 239 1092 13 323 3250 1096 
578 707 174 2293 3170 2192 3188 1390 2793 
360 1100 1139 268 1772 1248 1313 26 1904 
5048 1603 3706 878 327 1263 3073 334 2238 
1692 2413 2443 1241 2747 3262 2978 2711 1928 
910 1368 2020 2601 1380 2141 998 768 784 
105 1063 691 371 2852 1098 2669 966 1023 
45 1052 1197 2142 711 2105 1007 1374 953 
71 1645 593 2399 2606 1725 1950 1968 1936 
3397 1947 2166 1406 78 307 2751 77 106 
1460 590 531 546 675 493 595 1640 909 
1203 1793 1226 565 1400 908 816 8 4536 
1662 4358 5020 1034 429 1569 1963 1673 723 
840 628 2931 1107 1307 1435 232 1463 814 
603 868 161 599 1860 735 1288 1753 629 
1527 1371 2341 1310 769 250 778 1235 1138 
1940 395 706 1343 617 1750 1820 978 1585 
1370 541 87 1814 2147 3526 2171 2674 894 
1564 1651 2470 1422 142 1317 1089 456 21 
549 15 426 552 392 399 143 650 810 
716 501 832 1986 4001 344 102 154 514 
1004 846 954 2061 793 511 1586 1084 1535 
1502 333 97 237 539 380 1405 191 1609 
176 1443 521 1388 2194 1994 1452 1028 1334 
872 141 155 1280 704 992 418 2010 1233 
871 295 627 1588 983 931 606 416 32 
1434 459 688 139 795 162 859 4207 616 
259 301 455 607 551 1332 258 451 1031 
825 479 1001 611 385 1349 1040 615 772 
829 404 1447 678 522 753 211 540 166 
1671 265 834 973 988 469 721 175 366 
545 819 1151 808 457 7 683 235 763 
248 150 1108 220 205 690 410 958 465 
1770 173 16 375 1275 312 449 1024 994 
1913 481 1331 756 1051 369 932 153 1787 
673 526 777 34 1399 664 1395 762 362 
658 1219 495 345 532 1718 253 1205 805 
692 132 351 30 171 604 646 315 4 
447 638 856 774 274 238 357 634 959 
681 1980 564 59 1105 433 725 897 1441 
613 92 863 860 341 1377 101 1118 159 
1186 113 1539 461 2083 138 676 1074 411 
823 1506 1479 1086 2045 90 1557 524 1189 
1085 906 1494 771 62 471 1851 38 1713 
359 838 215 226 919 88 1868 1764 516 
594 1104 415 187 1458 731 636 95 934 
202 1039 1654 728 571 82 841 478 1285 
935 270 396 921 1159 942 245 177 1220 
42 1207 491 812 855 1211 281 1801 1537 
473 1720 1925 390 342 1259 1 746 512 
844 1019 157 699 1308 1501 2282 1520 1090 
937 1624 730 1394 1240 452 1341 1959 3121 
1748 1483 773 1528 1408 1131 3 423 826 
1125 474 530 765 188 686 208 440 267 
446 181 1005 623 414 671 269 1445 938 
434 1272 767 1886 120 1580 1696 51 987 
486 246 2131 29 445 1752 80 1046 1191 
1926 1101 147 1172 555 1979 1509 2219 2197 
2324 1010 1967 2038 3234 2752 2165 22 2263 
2138 1693 1893 490 1216 2687 266 1846 802 
379 2904 1921 3853 5931 2011 4880 5068 2595 
4470 2424 6014 4671 6070 5775 3467 5904 5556 
5774 1593 2549 1615 20 5773 4497 1247 5486 
5567 1492 3090 818 3083 6001 647 4443 3422 
5850 2658 5833 5793 5293 5508 122 5334 5281 
4056 454 3295 3117 5824 4160 4843 4388 4055 
5805 5324 5901 4335 5464 5891 5987 5018 4473 
5353 5799 4628 6064 3248 4639 5287 5623 4191 
693 2215 189 1072 2720 1530 5740 4697 5766 
2169 124 5610 3349 5011 3131 1715 3713 144 
1127 4036 4748 4426 1495 542 3538 3152 2802 
431 614 4073 2104 695 1069 5568 4222 2625 
2167 3642 5047 322 1454 5430 5027 3894 1957 
3078 5292 5563 2179 3838 4539 4887 5938 2481 
499 537 4248 3524 2154 866 1352 1468 1126 
2799 3546 308 504 1561 737 340 3027 2608 
1689 134 749 1356 2358 652 1217 1945 65 
1299 2532 119 751 2504 200 3652 1099 3108 
799 1647 4430 1809 515 3259 849 4019 2098 
1290 3191 2307 543 2262 335 2500 845 1989 
1717 1387 116 2152 3401 1420 929 2847 2492 
165 2516 668 1627 2117 2621 2954 2249 743 
2923 1123 529 752 303 651 520 1477 264 
196 669 127 696 912 968 482 386 58 
1670 135 1392 1117 140 622 635 346 580 
754 1058 1330 1066 684 1347 164 1250 853 
770 1427 1594 1214 821 626 1269 306 807 
813 880 1412 583 969 2772 1059 1547 1782 
1109 659 528 869 1796 1192 1728 110 492 
674 1481 263 311 1146 783 321 1635 448 
1149 582 1286 397 233 450 1442 824 1822 
389 517 513 25 1225 111 1386 1116 424 
943 597 1784 376 1668 733 381 178 1056 
660 1872 1614 1050 1162 1496 1847 96 798 
915 621 1691 31 1952 1735 2449 1094 149 
1897 2029 1706 1573 2471 918 1365 1008 167 
566 325 282 1478 1301 5 1009 1181 1318 
642 228 809 914 506 2478 1179 2306 996 
1014 1834 464 439 236 361 600 487 971 
24 480 847 1981 109 2071 1340 835 1582 
839 1403 2831 2494 2112 2228 1503 1033 747 
2120 1446 1771 875 2652 3019 1533 1734 1583 
1649 53 3400 3114 670 2499 5616 3837 4137 
5599 4356 4484 3440 5977 5708 1879 5155 5139 
5143 4659 951 5951 5779 4571 6008 5271 5709 
5966 4209 5052 5957 4367 5722 5677 5466 5339 
6031 6000 4557 4850 4965 5663 5082 5604 2708 
3517 5571 5999 4735 5171 4332 5261 5757 4277 
5825 3492 5980 3478 4446 3594 4969 4860 5119 
4616 6002 3345 5910 5492 5670 5719 6003 5976 
5714 5235 3388 4157 5967 5836 4912 3881 5178 
5398 5660 6058 5701 4720 5847 5213 5521 5288 
5252 5335 4299 5839 6024 6007 5432 4727 5932 
4769 4617 6040 4310 5520 5803 5674 5535 5424 
5100 4037 4851 5177 5046 3996 4787 2920 4101 
168 2618 5360 2417 4198 5185 4368 3494 4107 
4303 4819 5619 5246 4545 6020 4014 5400 5223 
2430 3064 1249 5236 2941 4525 4063 5138 5612 
6065 1871 4675 5301 3649 4991 5474 3681 5527 
5741 5585 4833 3186 4110 4910 5435 4759 3736 
4917 2995 5311 4924 4172 5736 5692 5118 5414 
278 47 1333 2642 3080 1076 1630 6 666 
544 1350 3382 1867 960 2829 4422 254 1848 
313 2583 3402 1234 1927 2391 2313 3606 3836 
2486 2684 107 2308 2291 5703 1381 2867 3225 
2735 2099 2351 2912 5394 2335 1600 4489 4118 
3862 3960 2661 2789 5158 4610 3863 2223 2281 
427 1027 865 2268 3918 689 2536 3447 1617 
1133 939 1424 52 1579 304 3254 1011 2245 
1785 3410 76 2041 485 1836 1965 979 79 
1931 1378 2297 343 786 57 35 184 702 
169 2164 1453 575 19 2633 2296 2436 612 
41 1883 2993 804 1524 1068 2354 1185 2865 
2103 2018 2522 3134 291 2379 421 221 1500 
2596 1032 74 398 240 198 1043 317 907 
505 363 679 2080 2643 2433 277 1322 425 
2640 2915 2375 112 1182 830 2851 780 2004 
1467 1656 2729 2381 2074 890 3051 1806 3106 
5411 5928 5498 5684 5600 5861 5993 3762 4461 
5713 4417 4214 4895 5808 5359 5792 6050 5002 
6048 5730 5515 5245 5241 6068 5731 5813 5948 
5806 5608 5410 5875 5975 5469 5627 5923 4852 
5015 5650 5189 5248 2432 4974 5816 5491 3591 
4166 4541 5066 5886 3962 4213 5869 4117 5403 
5704 4246 5699 3819 2570 3778 5630 4950 5460 
5351 5707 5075 5828 4907 5896 5818 5667 6051 
5522 5389 4972 5383 6049 5300 4346 5624 5206 
3981 5514 4585 5712 5984 5587 5449 5458 5879 
5222 5207 5888 4732 4997 5110 4432 5961 5936 
4383 3542 4261 4698 3742 5721 4176 5760 4903 
5344 4519 5392 4032 5195 98 5348 5959 5204 
5800 5786 5381 5280 5844 4723 3377 5767 243 
4058 6018 5998 3101 4369 5763 4407 4874 4494 
4580 3740 5140 4701 5168 4330 5307 3635 3845 
3949 4561 336 995 5557 3632 2458 3924 2682 
3861 3611 1258 3463 3873 1156 5006 5037 2524 
3395 255 2290 4323 5764 3672 2288 3022 3043 
4147 4070 3957 328 91 3566 4937 4463 776 
3794 905 800 1572 662 2389 1316 1382 1865 
2411 1355 2189 1261 2148 2987 3548 2059 128 
3944 3988 1905 1514 4648 1570 4066 3733 5034 
5350 4457 4517 5954 5662 2988 5232 3835 4296 
3092 5074 2801 5991 4294 2906 2697 2542 152 
11 2072 3735 2046 1312 3693 2332 60 5559 
2962 2144 3805 962 589 5194 965 2663 3290 
2431 4647 2725 3020 2541 3584 2683 1859 5117 
4983 3281 2732 1997 1909 1888 2614 3317 3017 
4412 4934 3597 1493 5375 4361 4394 4840 5399 
2928 4474 1778 6063 2490 5395 5562 3784 2190 
3338 3297 5061 3486 3951 3676 4886 5093 4958 
5915 2738 3432 4892 5217 4868 1444 3289 2450 
3322 332 1854 2612 2456 4420 2348 293 1866 
2264 1432 1942 3774 4236 1636 4784 2416 1389 
2459 3002 374 2519 2267 2474 1792 3370 4591 
2378 3291 2031 4829 1227 4025 4385 2475 2862 
2000 3102 2701 5771 2568 2513 3376 2999 4520 
3464 2592 2839 3590 1578 4506 2822 4282 2872 
3658 3703 2323 3465 4811 4173 4098 1532 5640 
5579 2555 3902 3714 4254 3613 2963 3570 4121 
1788 3149 2977 2935 3535 2393 3966 3359 4271 
4808 4712 4861 4390 4687 2919 3897 4730 3444 
3788 2886 3529 1346 1943 2564 4090 3472 2891 
4673 3230 3425 5043 3268 5661 4655 3908 2442 
3461 5978 5001 2970 4134 1939 4916 3857 4083 
2767 2533 3303 3622 1222 857 2129 1707 1075 
1057 337 1362 460 114 2345 2457 2007 453 
1679 1026 2721 1482 3638 384 2203 2376 509 
2491 2309 5443 1863 89 1030 2850 2028 3091 
2951 4955 5778 2744 4322 2814 183 4169 2009 
1751 2656 2455 913 1508 1523 1336 557 1991 
3930 1932 1953 1531 923 1513 284 463 1041 
1954 1078 2185 2250 2940 2111 1917 1515 1295 
1525 2023 3016 2366 970 3785 1194 2680 3129 
1732 1529 2765 2734 1805 3596 2622 5373 1577 
2201 5841 507 50 2464 3224 2971 2946 3328 
2212 3474 3482 2057 299 5820 1122 993 925 
1083 680 1995 406 1638 55 718 2234 1538 
2384 1684 422 2280 133 694 927 1144 1134 
1164 502 2118 1000 579 653 1413 2091 1590 
66 1775 1664 1686 294 283 1548 218 1681 
2260 815 1113 2452 2406 1536 1900 2321 329 
1719 1042 1232 661 740 2610 2425 2315 247 
1488 432 5021 1256 203 1430 3075 2350 2609 
1198 2058 3667 1526 1161 3357 1587 1568 1648 
249 2229 4224 1082 1327 1700 1407 1476 3187 
1436 1759 864 2157 2252 1843 2540 779 3331 
1999 2237 1208 2773 1901 201 488 1499 1016 
3198 1852 358 1157 3011 2119 2651 1800 2025 
2270 1471 1297 842 1657 1841 1020 1237 1398 
2488 654 1238 705 1918 886 1922 2756 1741 
977 2628 1049 1140 1210 1894 2559 2155 1973 
2531 2226 1487 697 1289 1270 3801 2419 1364 
2576 1304 1359 1606 1625 1129 2819 5302 2528 
2917 3314 2700 2285 2715 1512 257 2402 1065 
2620 2561 2882 3150 125 1996 2520 2678 3126 
2008 548 2710 1683 1608 2253 3118 1601 1749 
3332 3928 2049 3627 2722 2343 948 648 4490 
2582 2545 2139 4287 4805 4381 1276 3878 3532 
1375 3195 2505 2230 2574 5437 1873 3311 3420 
3360 3831 5465 2187 2810 1302 1190 3917 1858 
2087 729 3536 1621 1705 1489 1819 893 3319 
633 130 2588 985 2400 2339 745 3223 796 
926 1812 1279 1284 2289 736 5385 1835 2437 
2589 3060 4354 2809 2777 1298 2303 2739 2039 
2221 2591 2286 5776 3390 1604 1361 967 1828 
640 1199 1093 2224 1175 1449 1342 2082 1425 
1982 1339 1804 1037 2075 2274 2243 1480 1213 
137 2514 330 1251 760 2834 1173 2188 2742 
1229 2175 1930 822 1619 2186 5012 2804 4896 
5544 4429 3800 4918 2731 2554 5384 103 3340 
5843 3146 1491 2462 3324 3071 5056 2272 1849 
655 782 1184 757 402 574 726 1254 1612 
356 146 1142 1283 1620 43 1682 1044 811 
63 1397 1239 182 2246 382 1411 229 1484 
1878 1738 848 36 1779 2605 1150 2209 641 
858 163 956 1035 1567 1837 1744 820 3302 
930 2380 126 887 2269 2051 1303 677 1802 
1124 1767 2730 2085 1817 1642 1292 806 1993 
2482 3586 1323 852 462 387 93 1080 1293 
272 703 1348 649 559 1385 1111 180 892 
23 118 1311 350 1571 1193 2156 190 1148 
1036 1438 1166 1354 1376 2429 1731 1566 489 
518 339 261 895 408 85 586 1372 1321 
755 2210 286 1437 1618 766 1384 1326 922 
928 836 1856 1344 1558 1472 1663 2248 2017 
1325 2298 1599 310 898 252 403 1393 2153 
1862 1178 1267 538 319 1244 484 1639 1114 
1765 1163 1666 1794 1824 2577 1783 1786 720 
409 567 1889 791 1519 698 1565 496 1695 
560 788 527 1919 467 355 916 1417 1949 
70 420 27 1474 1881 1842 1137 1450 1544 
1595 476 665 1623 185 280 1029 405 1379 
2088 882 1262 194 1589 950 601 2145 940 
1230 2052 831 843 1079 933 1456 1200 1795 
2483 1699 1088 1055 2084 2106 1294 1760 2567 
1516 2024 2255 1062 1845 1776 2331 2377 2254 
1961 2460 2388 2613 54 645 902 475 1895 
787 1591 1451 1985 251 1757 1629 365 1818 
1287 1987 900 1790 1002 577 610 1977 170 
2108 1257 536 1803 121 2205 2352 2782 862 
2322 972 3070 2961 2073 1826 2334 2161 1839 
1911 3008 1358 3920 2778 2214 2706 3688 3049 
2503 2571 4007 1861 4415 503 1974 1306 2654 
870 1891 554 1756 1646 3943 1433 1071 288 
759 984 262 1708 2526 2206 3046 2510 899 
1721 1296 1277 2785 1470 3342 3180 2672 2634 
827 3190 3942 2047 2527 3629 644 4708 4949 
3199 4225 4113 3978 2898 2704 2901 3488 5611 
3427 4161 5700 2934 4495 5152 4045 4108 2855 
4577 4607 5418 4676 4722 2446 1976 4704 4505 
3167 2775 1730 5104 3307 4480 1832 4485 3306 
3997 3062 6017 5930 5472 5882 3607 5131 4421 
5231 5946 1823 3792 5635 5926 1877 4674 5073 
5266 2102 5581 5576 3176 5554 5794 5229 2969 
5539 5214 5815 4651 3763 5690 5239 5569 5125 
3618 2395 5846 2705 3272 3620 2979 3455 4768 
3938 5377 5675 5734 3883 4700 5725 3014 5429 
5911 3258 5804 4961 6052 5900 5744 4801 4902 
4909 4728 5095 6028 4959 5326 2535 3045 4408 
4848 213 5150 2647 1187 3822 761 5196 6038 
3193 2240 4807 3477 4319 4679 2551 3922 1850 
5029 2569 4757 3160 3348 3462 4522 3892 4534 
1545 3507 3109 3926 5310 4758 5494 3292 3171 
4105 2518 5163 4425 4862 4003 3870 5446 5631 
4452 3238 4203 2828 377 2405 400 1761 1613 
1337 1923 2043 2094 2177 936 1281 2761 2677 
1541 1466 1678 2463 1315 2666 5154 3053 354 
3623 3578 2553 1665 2703 1650 1206 4400 2604 
1929 1135 2626 3179 4278 2128 3970 4696 3335 
1830 1366 3021 1687 3050 2438 2191 3192 4164 
2968 2956 4592 3975 1864 2257 2218 2390 3300 
2360 1755 1972 2619 2631 2861 3181 2723 2768 
4256 4197 3598 4178 2146 1097 1876 145 1915 
2976 1003 877 2501 2132 1773 861 3424 316 
28 2453 2127 2202 1409 667 1983 2879 338 
2300 1622 2336 430 2784 1402 2116 964 2760 
2183 324 1335 2168 2353 2818 2063 136 742 
1702 1910 1616 2911 1831 2480 1924 1505 2140 
1722 2815 2562 748 2312 2408 2019 2440 2587 
2797 3285 3419 3499 4242 2476 2107 1710 945 
963 1204 1556 1661 2055 1497 75 2100 1758 
1875 1423 1736 2137 917 2866 1653 1780 3725 
1419 2629 2573 2162 2632 2056 2925 1160 1688 
2172 2624 592 3220 1969 3343 2398 3154 3353 
3520 1418 1724 1887 4334 1712 3347 1885 3355 
3534 3088 3294 2239 2953 3132 2231 2848 2575 
2311 2924 2943 4260 2888 5060 2877 3089 4804 
2509 3184 3243 3844 2530 3100 5574 2109 3369 
2746 3521 4133 2070 2347 4453 3003 2465 4221 
5743 3905 2126 2893 2679 3379 3893 2538 3471 
3380 4372 2615 2265 1218 1762 4112 3720 5238 
2779 3722 3386 3041 5262 3496 3921 3764 3237 
4320 3858 3639 4627 2420 5267 1644 1672 3795 
2727 4116 5756 4569 2984 3907 5253 3511 3473 
4438 3038 4809 2349 1966 3350 3406 4279 3927 
3879 2800 3438 1581 3544 4971 4455 3468 4441 
3767 5103 2788 4749 5141 4201 3730 5199 5419 
5537 4900 5788 5356 4152 5919 5758 5105 5538 
4976 5622 4343 3648 4920 5685 3696 5040 4894 
5135 5039 5737 5821 4834 5656 4360 5644 5116 
5358 5439 4890 5872 5080 4739 2921 4023 4428 
5130 5994 5420 4677 5817 5409 5939 4459 5724 
5308 6026 4119 5590 5638 5728 5256 5090 5470 
5208 4229 5996 5739 4028 5519 5028 5227 5669 
5565 5877 6023 4922 4341 5501 4681 4702 5475 
5321 5578 6006 4595 5592 5017 4747 5929 4235 
5144 6060 5676 5909 5878 5224 5856 4549 5534 
4995 4844 5618 5678 5858 5276 4814 5137 5290 
3903 5482 5536 3971 4779 6015 4816 5025 5964 
6016 4742 5216 4398 5282 5059 3239 4952 3219 
5203 2064 6022 4150 4602 5523 3603 4598 4938 
4939 3731 5745 4901 5870 5845 5099 5405 5647 
4338 4719 3963 3249 4568 4986 4546 4665 5471 
5342 4661 4049 4977 4946 4186 5960 5198 4232 
4512 4827 4954 3954 4925 5906 5903 2603 5933 
5349 6053 5542 3142 4365 4669 4872 4403 4684 
5637 4668 3872 4350 4562 5651 3628 5387 4552 
5718 5243 4849 4170 3069 5167 3076 5201 4263 
3525 4891 2985 3164 3457 5230 3120 4746 5615 
5371 4889 3776 4973 5863 470 3373 4436 3279 
4167 4656 2714 4100 4514 1916 2947 4158 4413 
4188 3151 3539 4726 3047 3865 3709 4711 2933 
3572 4531 3127 4389 4021 3563 3504 2724 3430 
4657 2950 2899 3826 2812 4599 4017 3941 4318 
3660 3898 3393 2798 4692 5096 3453 5570 3409 
5393 3392 4878 3712 5298 4781 4317 3221 4929 
4154 2913 3601 3933 5862 4845 2646 4200 4548 
2846 4427 3032 3288 3433 3366 5327 4547 3084 
2786 1984 2880 881 2373 3655 1383 3799 3859 
2548 2158 2242 2699 3361 3227 2649 3626 4145 
2325 3567 3771 3549 1769 2484 4006 4486 4268 
4313 4012 4130 4016 3446 3659 3885 3791 4127 
2374 2787 3141 2964 4424 5067 4211 4314 3543 
3449 3998 2854 3231 2426 3994 3460 3242 4752 
4293 5516 5552 2871 4041 4026 4144 4217 2806 
4990 3513 4074 5062 4947 1596 5772 2409 2718 
2657 3469 2121 1742 2110 2421 3274 3775 3431 
3787 4048 2902 3072 3354 3716 4838 3876 4234 
4067 3937 3727 3915 3153 4906 4584 5408 3587 
5688 3814 3852 4806 4399 5331 5541 4609 3166 
5593 3869 5413 4129 5461 5112 4793 4650 4513 
5898 6037 5549 5468 5366 5883 5153 4770 4788 
5425 4043 5864 4635 5968 5079 4913 4501 3640 
5506 5249 3896 5887 5992 5531 5071 5333 5729 
5787 3093 4437 4316 5913 3054 3264 4208 5386 
3173 4355 2295 4743 5441 5564 5485 4987 5336 
5643 4393 4846 5941 4165 5550 5908 5686 5907 
3267 4439 3266 5404 5390 4521 5526 5917 5717 
5094 5312 4493 5548 4756 5320 4387 5106 5573 
5295 4885 4618 6069 4775 4087 4423 5997 4249 
4813 3999 4464 5490 4594 4734 5415 5289 5924 
3247 4406 5181 4175 5440 5283 5445 4565 3808 
3701 4953 2863 4766 3653 4795 2560 4980 5448 
3527 2207 4957 5955 4306 4945 3157 1746 3751 
5010 5101 5513 4587 5166 3812 4821 6045 5345 
5379 5322 5013 5355 3936 3537 5142 5762 4812 
5927 5317 3437 4575 5852 4405 5614 5422 5782 
4120 6039 4523 5694 4856 3684 5397 5428 4837 
6055 4683 4653 5871 5083 5785 5340 4640 3895 
5666 5925 5122 5899 4942 4690 5072 5120 4632 
5226 5200 5575 2966 5747 5802 5484 3580 4960 
5478 4574 3589 2853 4163 3299 2054 4089 4567 
4542 5165 3541 4777 4151 5050 3479 5969 4378 
3434 2284 3122 4076 2050 1073 4582 3766 2585 
1115 3576 3604 3614 3945 5369 5244 3811 5499 
4875 4605 4893 4643 5209 3009 1816 4342 2821 
3123 4695 3809 4064 4185 3931 2741 4717 3005 
4233 3977 2211 3721 5746 2938 2690 5702 3429 
3558 4745 3824 2958 5560 3172 1962 4930 3569 
5733 4941 3165 1745 4765 5026 3619 4462 2563 
3493 4433 1542 5831 4477 3159 4020 2537 2320 
2005 4183 4999 3846 3015 3012 4050 3582 4989 
1660 2932 5942 3773 5436 9 1485 5682 5583 
5940 2890 3588 4374 4153 4760 4392 3356 4888 
4716 5463 5495 5884 4815 3378 3948 2655 3694 
2780 3559 3806 4182 3013 4059 2466 2170 3509 
5533 2994 5091 4448 3417 4533 2079 3177 4857 
3087 3651 3189 3315 4321 4205 2556 2472 5483 
4867 2584 3671 2407 3662 2750 3470 5797 5985 
2247 2034 2639 2909 4798 4666 5003 4450 3564 
5023 3867 4404 5042 2495 2816 3111 4839 5589 
2273 1431 2222 3452 3155 3028 3178 5974 5250 
1677 2198 2362 3358 2469 3506 4391 2796 2645 
4881 3246 4143 3365 2444 5504 5218 5628 4560 
4478 5943 3025 2271 3595 4526 5890 4262 4141 
2998 5505 3327 5648 4366 5352 4672 3450 3384 
4135 5055 3232 3057 3133 2386 4658 3336 2644 
4601 2077 6056 2067 3748 3550 5423 3301 3010 