# vtk DataFile Version 4.2
Generated by LIGGGHTS
ASCII
DATASET POLYDATA
POINTS 5999 float
-0.0178277 -0.0412988 0.0100041 -0.0140548 -0.0426565 0.00997955 -0.0100341 -0.042823 0.00978755 
-0.00641415 -0.0445225 0.00964026 -0.00244712 -0.0438715 0.0098503 -0.00671021 -0.0405831 0.0102987 
-0.00293642 -0.0402261 0.0115805 0.00882471 -0.0440699 0.00988084 0.00140877 -0.0449364 0.00986941 
0.00494902 -0.0429881 0.0100303 0.00223948 -0.0399602 0.00979437 0.0149822 -0.0416614 0.00996651 
0.0120435 -0.0433163 0.0121899 0.0177313 -0.0413416 0.0129655 -0.0306613 -0.0329412 0.00988168 
-0.0248476 -0.0373876 0.0100226 -0.021351 -0.0393485 0.00997618 -0.0214195 -0.031219 0.0101857 
-0.0213923 -0.0353232 0.00985141 -0.0248602 -0.0332614 0.00990613 -0.0278977 -0.0352833 0.0116021 
-0.0272543 -0.0315262 0.0128625 -0.0143891 -0.0352116 0.00982823 -0.0178844 -0.0372945 0.00993728 
-0.0141221 -0.0310327 0.00989052 -0.0179098 -0.0332322 0.0101717 -0.0118208 -0.039155 0.00995717 
-0.0102062 -0.0318313 0.0102488 -0.0149086 -0.0383168 0.0124323 -0.0115734 -0.0360906 0.0125301 
-0.00843801 -0.0369759 0.0101581 -0.00629474 -0.0309811 0.0100398 -0.0022932 -0.0303722 0.0102915 
-0.000692731 -0.0370997 0.0104879 -0.0034466 -0.0341761 0.0109481 -0.00750395 -0.0338637 0.0125505 
-0.00531767 -0.0372202 0.0127719 0.0074819 -0.0352669 0.00996973 0.00645279 -0.0392403 0.00998542 
0.00855676 -0.0314027 0.0100384 0.00322511 -0.0360964 0.0101419 0.0004499 -0.0332634 0.0106968 
0.00466369 -0.0323654 0.0104477 0.00987266 -0.0369425 0.0128595 0.010532 -0.0395856 0.00980117 
0.0145424 -0.0367897 0.0100308 0.0185867 -0.038773 0.00995629 0.0170126 -0.030992 0.0100559 
0.0113875 -0.0342866 0.0101394 0.0181012 -0.0348463 0.0105477 0.0130552 -0.0304309 0.0103057 
0.0147731 -0.0334482 0.0123281 0.0132179 -0.0394358 0.0127857 0.0258145 -0.0365759 0.0103498 
0.0220856 -0.0349052 0.0101986 0.0289444 -0.0340688 0.0103452 0.0211435 -0.0309957 0.0103053 
0.0225684 -0.0389308 0.0103752 0.0251505 -0.032339 0.0103896 0.0284401 -0.0300501 0.0103292 
0.031964 -0.0316526 0.0114212 -0.0334157 -0.029848 0.0101695 -0.0399189 -0.0207551 0.00992988 
-0.0325085 -0.0218888 0.0101769 -0.0365258 -0.0228415 0.0103842 -0.0360902 -0.0268431 0.0103523 
-0.0300914 -0.0254055 0.0100925 -0.0332357 -0.0250378 0.0125396 -0.0289751 -0.0292516 0.0100149 
-0.0214227 -0.0272172 0.00987548 -0.0283403 -0.0218015 0.0101116 -0.0256416 -0.0251494 0.0102274 
-0.0249776 -0.0291264 0.0100939 -0.0220996 -0.0232729 0.0100897 -0.0246703 -0.0202115 0.0102369 
-0.0178484 -0.0292051 0.0100136 -0.0186562 -0.0212359 0.0100619 -0.0138743 -0.0257449 0.0101482 
-0.017843 -0.0251959 0.0100959 -0.0146589 -0.0214415 0.0103588 -0.0108629 -0.0201008 0.0102903 
-0.0102043 -0.024071 0.0100647 -0.0119631 -0.028587 0.0122465 -0.00391795 -0.0236973 0.00986173 
-0.00870634 -0.0277882 0.0100004 -0.00102534 -0.0265635 0.0101904 -0.00687225 -0.0207739 0.0103419 
-0.00485445 -0.0274112 0.0111381 -0.00697457 -0.0241962 0.0124291 -1.94535e-05 -0.0226629 0.00992794 
0.00389172 -0.021805 0.00994946 0.00571371 -0.0285286 0.00990161 0.00677693 -0.024654 0.00986873 
0.00287704 -0.0256794 0.00987389 0.00179275 -0.0295242 0.0101114 0.00958245 -0.0275183 0.0100842 
0.00715476 -0.0214525 0.0122517 0.0140175 -0.0248165 0.0100204 0.017386 -0.0270069 0.00996263 
0.016891 -0.0220231 0.0101489 0.0130399 -0.0209481 0.010359 0.0103329 -0.0238474 0.0115462 
0.0125404 -0.0273209 0.0127763 0.0202805 -0.0242388 0.0100297 0.0244647 -0.0236705 0.0101905 
0.0228142 -0.0273627 0.0101806 0.0276261 -0.0211987 0.0104132 0.0267547 -0.0266439 0.0115987 
0.0219832 -0.021892 0.0127911 0.020127 -0.0280497 0.0130901 0.0236586 -0.0299278 0.0132265 
0.0381166 -0.0237592 0.0101505 0.0303968 -0.0240444 0.0108923 0.0358214 -0.0272075 0.0101273 
0.0318505 -0.0277535 0.0105238 0.0342217 -0.0228986 0.010645 0.0395097 -0.021441 0.0131138 
-0.0428851 -0.0107846 0.010178 -0.0422761 -0.015313 0.010924 -0.0409578 -0.0184662 0.0130532 
-0.0387227 -0.0169269 0.0100208 -0.0315691 -0.0145619 0.0100537 -0.0304954 -0.0184118 0.0102929 
-0.035662 -0.0143202 0.0101924 -0.035203 -0.0188256 0.0103185 -0.0392842 -0.0125569 0.0102219 
-0.0333814 -0.010997 0.010315 -0.0305593 -0.0121839 0.0131165 -0.024515 -0.0106388 0.0100945 
-0.0278455 -0.0130629 0.0101928 -0.0233818 -0.0149173 0.0102567 -0.0268282 -0.0168887 0.0107907 
-0.0212242 -0.0182471 0.010791 -0.0216627 -0.0120923 0.0125118 -0.0270759 -0.0101972 0.0131396 
-0.0123994 -0.016379 0.0100981 -0.0120067 -0.0123272 0.0100499 -0.0193802 -0.0147159 0.0103809 
-0.0165485 -0.0177968 0.0102211 -0.0183519 -0.0108461 0.0102996 -0.0154911 -0.014027 0.0110652 
-0.0028567 -0.0198638 0.0103789 -0.00442957 -0.0131395 0.0100336 -0.00706627 -0.0101087 0.0101308 
-0.00166057 -0.0160191 0.0102843 -0.00835462 -0.0139593 0.010066 -0.00561347 -0.0169545 0.0103852 
-0.00101464 -0.012469 0.0120113 -0.00913603 -0.017161 0.0125373 0.00517545 -0.0180085 0.0100797 
0.00941684 -0.0150218 0.00996877 0.00251174 -0.0126616 0.0100213 0.00598711 -0.010673 0.0101338 
0.00951854 -0.0190205 0.0101032 0.00124343 -0.0188055 0.0100639 0.00583335 -0.0143827 0.0116387 
0.00165652 -0.0156682 0.0125399 0.0100062 -0.0124358 0.012975 0.0172442 -0.0132954 0.0100025 
0.0127284 -0.0127383 0.0100475 0.0129447 -0.0169406 0.0100712 0.0169019 -0.0172755 0.010607 
0.0192852 -0.0105925 0.0121722 0.0152874 -0.0106466 0.0123202 0.0148038 -0.0147186 0.0128674 
0.0200967 -0.0196303 0.010041 0.0279431 -0.0132116 0.0100065 0.0205338 -0.0156287 0.0101239 
0.0224224 -0.0119585 0.0100901 0.02808 -0.0172341 0.0101381 0.0245232 -0.0153925 0.0103912 
0.0240656 -0.0193671 0.0104751 0.0251726 -0.012402 0.0129698 0.031472 -0.0150935 0.0102587 
0.0369009 -0.0199261 0.0104223 0.0317906 -0.0196343 0.0106347 0.0351433 -0.0133811 0.0101696 
0.0394998 -0.0120724 0.0105839 0.0382634 -0.0159221 0.0108551 0.0325533 -0.0106052 0.0115189 
0.0345621 -0.0170284 0.0119189 0.0365942 -0.0111225 0.0132165 0.0422374 -0.0151637 0.0101267 
0.043593 -0.011049 0.0104585 0.0407819 -0.0189466 0.0101277 -0.0405623 -0.0074163 0.0102035 
-0.0406112 -0.00336832 0.0100801 -0.0444511 -0.00646827 0.0100757 -0.0443984 -0.00252633 0.0113195 
-0.0370334 -0.00519357 0.0100491 -0.0372387 -0.000245525 0.0100536 -0.0369934 -0.00922748 0.0102068 
-0.0314103 -0.00584831 0.0102456 -0.0321265 -0.00184031 0.0105162 -0.0342091 -0.0044016 0.0127945 
-0.0380074 -0.00272017 0.0131085 -0.0344412 -0.00840111 0.0131812 -0.0296776 -0.00948569 0.0101837 
-0.0274092 -0.00618826 0.0102418 -0.0209706 -0.00777784 0.0102367 -0.0281252 -0.00223198 0.0102746 
-0.0228947 -0.00424794 0.0102785 -0.0242819 -0.00737987 0.0124486 -0.0222668 -0.00119826 0.0128288 
-0.0256895 -0.00368772 0.01311 -0.0107449 -0.00853114 0.0100509 -0.0193893 -0.00228911 0.0102443 
-0.0147117 -0.0091057 0.0101444 -0.0153948 -0.00203788 0.0104343 -0.013222 -0.00539654 0.0103424 
-0.0115963 -0.000780338 0.0103103 -0.0174172 -0.00574419 0.0108358 -0.00276039 -0.00947649 0.0100112 
-0.00589925 -0.00627222 0.0100247 -0.0037682 -0.00286904 0.010161 -0.00763076 -0.00169015 0.0103208 
-0.000618204 -0.00533474 0.0106774 -0.00941919 -0.0050603 0.0115375 -0.00338465 -0.00703968 0.0131589 
-0.00467143 -0.000351812 0.0131513 0.00333332 -0.00540127 0.010012 0.00708226 -0.00682601 0.0101018 
0.00120004 -0.00886867 0.010174 0.00602432 -0.000380015 0.010603 0.00149935 -0.00185475 0.0102759 
0.00987701 -0.00970789 0.0100442 0.00950496 -0.00176542 0.0122044 0.00601558 -0.00388104 0.0126078 
0.00429052 -0.00815993 0.0127508 0.0106291 -0.00496304 0.0100598 0.0134838 -0.00794688 0.00997187 
0.0145516 -0.00406252 0.0101211 0.0175135 -0.00766048 0.0101043 0.0185644 -0.00379044 0.0102062 
0.012767 -0.000476396 0.0102776 0.0165942 -0.000505879 0.0114434 0.0248669 -0.00876229 0.0100831 
0.0287026 -0.000500429 0.0101304 0.0280942 -0.00546419 0.0100281 0.0214926 -0.0066017 0.010229 
0.0252952 -0.00259922 0.01033 0.0287347 -0.00938382 0.0109834 0.0215909 -0.00354778 0.0128497 
0.0249825 -0.00577646 0.0127465 0.031789 -0.00701916 0.00991266 0.0349696 -0.00455765 0.00983361 
0.0367336 -0.00858321 0.0100887 0.0342121 -0.000424207 0.0101769 0.0379535 -0.00189695 0.0100589 
0.0314417 -0.00322293 0.0111711 0.0378634 -0.00544015 0.0124591 0.0343073 -0.00719528 0.0130308 
0.0448972 -0.00262728 0.0104741 0.041159 -0.00427197 0.0103708 0.0444549 -0.00677954 0.0106158 
0.0407286 -0.00824193 0.0107055 0.0416148 -0.000291749 0.0103982 -0.0445235 0.00626595 0.0100419 
-0.0413839 0.000573838 0.0104187 -0.0448629 0.00231604 0.00873233 -0.0412546 0.00450621 0.0115557 
-0.0413372 0.00832562 0.0127705 -0.0385283 0.00759376 0.00975105 -0.0372315 0.00380508 0.0100127 
-0.035064 0.00961347 0.00993633 -0.0337078 0.00183873 0.0100952 -0.0337277 0.00584719 0.0101565 
-0.0311885 0.00910235 0.0115773 -0.0297243 0.00143235 0.0100449 -0.023145 0.00902779 0.0100874 
-0.0274785 0.00865374 0.0100809 -0.0210596 0.00554576 0.0101236 -0.0251063 0.00540394 0.0100919 
-0.0207338 0.0014884 0.0101331 -0.0250657 0.000354252 0.0103934 -0.0297701 0.00539413 0.0106808 
-0.0271597 0.00305795 0.0126698 -0.0231831 0.00271585 0.0130549 -0.0170691 0.00580434 0.00998378 
-0.0146019 0.00188004 0.0100143 -0.0191353 0.00924065 0.0100729 -0.0100004 0.00297633 0.010153 
-0.0130572 0.00557249 0.0101995 -0.0124968 0.0095298 0.0100124 -0.0175998 0.00060865 0.0124678 
-0.0150362 0.00797427 0.0127215 -0.00610649 0.00203208 0.0101479 -0.00535738 0.00601652 0.0101433 
-0.00106938 0.00472211 0.010141 -0.000123951 0.00893083 0.0100923 -0.00209707 0.000763922 0.0102899 
-0.00929306 0.00692558 0.0103969 -0.00270872 0.00747401 0.0127812 -0.00372536 0.00359249 0.0129584 
0.0060379 0.00386796 0.0101884 0.00247477 0.00203083 0.0101708 0.00270458 0.00610323 0.0101581 
0.00944965 0.00176907 0.0103101 0.00685509 0.00779711 0.0101603 0.00824919 0.00543746 0.0131371 
0.0189325 0.00237196 0.00993888 0.0182804 0.00632087 0.0100662 0.0145319 0.0078558 0.0102648 
0.0116052 0.00513726 0.0106077 0.0106144 0.00901859 0.0107787 0.0149417 0.00296387 0.0101817 
[...]
POINT_DATA 5999
FIELD FieldData 7
id 1 5999 int
544 514 482 144 333 828 27 1092 856 
1037 589 307 901 495 1045 924 862 520 
97 120 598 1044 135 52 379 145 107 
228 551 450 53 263 1095 158 426 257 
242 336 408 706 476 1008 501 773 203 
246 230 992 41 404 364 777 567 245 
247 760 608 690 46 397 154 966 1316 
274 440 557 115 512 434 378 1019 623 
874 816 344 63 294 669 946 724 502 
11 302 546 704 424 1015 199 1166 174 
504 952 469 684 776 365 371 276 114 
8 149 758 918 1042 310 614 876 54 
1036 844 1176 516 112 509 401 210 267 
861 136 413 348 57 1107 437 787 349 
659 803 360 650 281 131 550 68 1537 
664 374 84 311 345 487 296 429 175 
42 99 113 815 190 616 168 205 66 
293 1126 1338 38 980 1144 1494 317 875 
1083 353 1185 396 117 39 848 1077 256 
630 1288 461 350 528 231 1035 962 788 
523 123 86 142 423 372 1214 1262 853 
1503 134 417 686 802 1584 1123 399 163 
783 126 1096 20 72 1359 1772 731 447 
485 906 354 1269 1071 221 821 58 612 
584 1101 545 727 903 1105 931 1460 342 
441 445 543 500 1481 427 1486 489 627 
1027 710 1142 305 967 900 322 784 1692 
855 410 73 393 935 421 1161 896 389 
48 1032 108 458 128 241 914 418 367 
1151 604 1014 673 292 105 1516 12 224 
755 857 766 813 558 781 1351 775 16 
5 463 1128 23 971 330 607 998 352 
1254 229 77 594 462 667 206 78 563 
1277 346 845 170 763 1106 886 273 193 
498 375 560 734 384 127 517 1478 81 
432 286 3 934 956 473 320 712 377 
88 380 1197 313 1073 155 1613 341 295 
182 847 745 1066 586 954 742 387 1024 
1072 657 535 915 214 949 303 836 592 
165 244 394 298 331 1193 572 436 519 
287 868 691 334 1237 721 640 631 191 
996 64 260 326 216 98 671 79 579 
225 80 646 283 1040 266 356 75 337 
576 910 159 944 524 347 103 1124 316 
361 197 522 656 51 21 212 104 288 
1016 1097 923 412 600 736 1220 146 660 
91 839 556 715 425 880 1745 160 121 
290 76 521 926 152 1248 332 628 28 
569 406 386 599 177 478 748 1611 235 
1103 929 312 1368 428 226 116 227 799 
928 1899 1084 220 705 582 255 851 513 
304 96 388 1725 339 1134 118 409 629 
133 1703 204 1484 181 259 299 642 264 
973 140 1117 636 15 45 6 529 829 
173 289 769 213 916 507 327 129 475 
1025 132 141 899 497 207 904 111 395 
530 701 422 217 1489 343 268 215 477 
124 474 532 780 162 909 735 1790 161 
414 454 625 218 866 40 1461 328 882 
2618 1 913 602 877 18 455 250 122 
885 1323 67 995 1765 178 26 1386 601 
1119 430 1350 531 864 2254 19 1213 1433 
505 1171 200 100 680 1270 1098 390 282 
1477 997 1392 969 1957 2073 1194 797 1564 
271 407 153 1328 1575 1164 1828 1620 647 
1995 1861 795 566 1326 2364 1079 2621 2464 
1547 194 464 209 10 1286 981 1650 1834 
452 1289 1589 1299 1846 65 1774 1690 1882 
1602 1705 219 2157 1649 2527 515 138 185 
83 596 400 233 1446 665 892 2165 772 
1232 2065 883 1498 1878 1999 1718 2031 1175 
109 338 1033 907 391 1632 1067 696 1580 
707 1471 1677 1411 1688 852 1614 47 605 
968 1358 1387 1792 1284 1434 1608 147 449 
1543 1850 1421 1365 1169 1251 1519 340 1485 
1756 675 764 1280 285 443 580 750 1188 
323 1013 2027 889 411 662 1341 1187 1186 
687 2416 1952 254 33 713 94 1005 488 
198 1162 183 548 1563 493 574 1416 1017 
279 1785 1275 1058 1949 1733 2143 1506 1476 
402 119 49 1043 953 1639 1463 1836 2042 
744 2067 2300 1026 2781 2347 2145 1633 1470 
2185 1028 1418 711 1640 55 818 1331 1242 
1023 1605 1647 1059 905 1843 1734 1768 1538 
2150 1943 1696 1437 1676 633 1285 1179 1754 
534 1789 2285 1855 1159 2292 1283 1210 1944 
2092 1883 2191 1908 970 1654 2470 641 937 
102 392 2221 1697 943 1862 1074 1609 2109 
1274 938 1550 1170 1691 2345 1456 1483 1919 
858 1412 2136 442 1217 1191 1491 785 69 
1468 872 2296 1182 1258 2161 1659 1780 248 
382 779 22 1114 90 689 643 617 652 
471 800 1652 902 1047 1962 1224 2053 1403 
1057 249 1678 921 2328 1327 1178 1829 506 
2776 1093 223 703 525 741 639 824 1113 
578 1389 1064 1398 961 319 1592 1265 1680 
2228 2743 1968 1184 2004 854 125 243 533 
1325 668 1407 977 963 1683 2129 1345 106 
1844 1561 655 1354 1955 2066 1848 2557 2779 
2430 1208 674 1623 697 1722 1055 1448 7 
9 1672 832 2047 1749 1687 1594 2209 2113 
1562 2304 2714 951 201 964 808 403 747 
990 986 179 1525 888 1201 1597 1555 1587 
2490 2093 1595 1814 1155 2728 1881 807 718 
1152 1482 994 1404 1174 2128 1012 1684 1644 
1572 1240 1753 1701 1076 1061 211 1203 1070 
833 622 1177 1497 1710 726 270 1377 1960 
1913 1628 1852 1413 1183 1979 1272 2091 1763 
1141 2594 291 819 859 635 1508 1931 1330 
240 1383 1369 1406 987 1199 2312 1223 611 
1256 1552 806 2277 2301 2652 1775 43 679 
927 658 1319 1132 834 1243 518 2278 1767 
1347 1417 1308 1811 1493 1685 1958 2426 1642 
1663 314 590 1180 739 754 1276 252 805 
1293 1355 692 139 1372 1222 749 1324 1948 
653 985 2205 1397 1893 2366 1730 615 562 
1212 1961 898 1118 222 1679 835 1385 1329 
1860 1250 1505 1835 1215 1759 1776 1333 92 
1233 1830 654 826 202 767 613 25 1196 
941 318 1500 978 2014 2194 2348 863 1318 
1268 884 1443 496 369 619 1231 1235 1310 
1429 881 2307 1548 1472 694 2299 1317 581 
1109 1127 1643 1130 1133 278 1295 508 376 
1618 1622 1099 1822 1081 1536 1374 661 351 
1380 1513 1315 2478 1586 1140 1509 831 869 
2104 1003 575 1839 491 1356 1091 1263 2021 
1479 1340 2297 1588 1888 1454 1216 1088 1569 
695 830 1728 1876 1366 1030 1428 1125 1964 
479 1529 483 2038 1425 1809 1049 865 1634 
1838 537 1202 1674 1281 1444 1845 1181 893 
1630 1967 812 1279 1492 714 1348 2159 770 
2240 1100 1120 1145 1060 1886 1982 1399 1702 
1925 2346 959 1332 1921 1573 2210 2395 933 
1629 753 842 137 751 1914 1945 1041 1517 
1577 1935 1137 1426 536 172 894 693 796 
870 1011 1557 1006 879 2043 1624 2451 2036 
1009 756 24 1334 511 1228 1038 1221 873 
1353 1122 1719 2200 1002 1940 2037 2052 860 
610 890 1111 1744 982 983 110 1225 1842 
789 1357 585 2453 2024 2537 2232 1502 2441 
702 499 920 1567 988 1131 1928 1522 1362 
2362 794 1158 2001 2139 1804 1435 1496 1252 
2379 2258 1992 2154 682 1512 677 280 1871 
2018 1907 843 237 947 29 743 1975 1615 
1455 1361 1821 2425 2716 2546 2140 945 1600 
526 840 1300 1395 300 355 1226 878 942 
1480 728 838 717 1260 1720 1787 1342 1541 
2335 2589 2458 370 1168 1238 309 792 587 
1320 1148 570 381 1305 606 761 1518 1895 
1750 1593 1578 1521 1466 1970 678 297 719 
189 362 1054 188 1089 431 148 565 1707 
555 1381 814 1046 1129 549 1501 1304 171 
975 527 730 368 1796 1010 1487 1139 1831 
723 993 1445 253 31 1306 1031 1063 2264 
2074 2400 1244 1911 564 984 1778 503 1112 
1977 1812 1391 1291 187 1400 757 2072 1104 
1080 1149 1297 1450 1301 1673 2651 2269 1524 
919 1294 101 716 1439 1576 922 632 2248 
232 817 1370 366 2319 2237 2176 1110 265 
239 1523 1018 1090 867 167 1078 1052 2279 
1352 2242 1312 1553 1499 1675 2260 1910 1007 
2839 2414 700 827 32 419 588 778 1344 
1255 1884 1936 1826 1870 1556 1714 2398 1337 
2034 1997 1419 1998 70 1086 1490 1335 1430 
1394 2114 737 1972 1879 733 459 1367 1462 
1339 2012 2133 1574 672 1218 301 36 1020 
746 1153 453 676 420 911 2452 1540 1546 
1721 1154 1664 82 1314 1766 2108 1898 2658 
180 541 974 1150 1085 1311 930 979 484 
809 87 315 164 568 1535 822 1402 932 
1743 553 1302 1241 1415 1229 186 955 130 
648 958 609 1976 1021 1682 192 940 708 
2115 2148 1469 1082 2156 1190 1880 480 448 
626 765 238 1115 1321 554 1069 405 74 
150 887 1236 358 1230 2375 561 810 539 
1559 1511 1583 50 1271 1207 1384 481 1056 
1963 1441 573 2 849 1135 13 740 60 
1566 1532 620 1984 1247 1029 1379 1849 2152 
1827 2598 688 891 1022 1343 841 1604 1459 
435 1560 559 2010 2225 2446 2318 2134 2750 
2660 2223 1665 93 472 357 771 1346 925 
439 1349 1617 790 1449 1726 2406 1257 71 
1048 1373 1551 2119 2259 258 1442 62 1004 
603 1819 1001 1897 774 325 1102 470 2910 
948 1971 2101 2155 644 791 957 1246 683 
793 618 1309 1156 284 1625 681 1510 1669 
1934 2203 2039 1841 634 272 35 277 251 
725 1436 373 685 846 698 1859 416 2158 
456 2090 960 2272 444 2040 1698 1375 1712 
1227 638 738 1670 709 820 547 1695 583 
1582 752 1424 2035 1467 2219 637 1565 1393 
2410 965 2000 976 1163 329 95 571 1205 
850 34 85 804 1273 1267 363 1423 1261 
17 2198 972 1121 494 991 1655 151 1388 
1959 1053 1136 306 61 383 1165 1296 1875 
169 1764 1873 2460 468 1867 1116 2629 2243 
2032 2064 2956 275 798 14 89 1287 196 
1172 1534 624 2055 2049 2764 308 1755 2030 
1760 1923 2023 1932 1612 1298 1571 2051 1641 
2007 1160 1868 1410 1475 1303 4 2127 2284 
1795 2403 597 2211 1167 166 1068 811 591 
649 184 538 2146 1000 486 261 1631 1514 
1195 917 2474 1401 1758 2813 1610 30 666 
438 321 324 1504 1645 1108 1542 645 490 
759 1651 1591 577 1724 176 1627 651 1453 
1050 823 433 195 143 415 59 157 1249 
466 801 1336 359 1713 989 1708 2110 1579 
1422 1282 786 1752 1307 1554 234 999 1173 
593 1147 1530 1266 908 1495 1290 552 729 
510 56 269 762 156 670 1364 1239 1062 
451 621 1209 542 1816 1390 1980 2081 2384 
1922 1657 2327 1211 2569 446 1189 768 1570 
1143 2514 335 1856 2690 1717 2680 2122 2843 
2554 2775 2518 3284 1245 2196 2641 2046 2257 
3086 2100 3465 2999 2528 2911 2938 3002 2289 
1638 1259 1598 3160 2845 3808 3564 3155 2713 
3025 3142 2633 1906 2720 2686 1996 1777 1278 
2349 2508 2918 1869 699 2195 2303 782 2247 
1581 2847 2102 2250 2512 492 2977 3540 2588 
2341 2801 2275 3348 2245 1603 2987 3013 1783 
2421 2417 1661 2208 2963 3098 2862 3529 2851 
3319 2612 2121 2106 2526 1681 2084 1590 1626 
2098 2840 3413 2433 2968 3636 2958 2435 4100 
3707 457 1420 1488 2003 2825 1146 2383 2351 
1800 2959 2833 2975 2761 2506 3033 3099 3256 
3315 1533 2472 2455 2187 2684 2624 3174 2418 
3271 2378 2448 3207 3060 3095 3378 1981 3008 
2377 2075 2355 2932 2517 2606 3464 2545 3215 
3734 2871 3187 3650 2855 4051 2295 2735 2332 
2809 2044 1937 465 2611 2560 2689 2538 2675 
1802 2806 2443 1865 2669 2533 2568 2877 1771 
2391 2646 1382 2314 2493 2601 1991 2041 2135 
1458 3193 2483 2645 2239 2330 2556 3469 3125 
1779 2869 2008 2746 2613 1746 3094 3425 3411 
3391 3851 3111 2427 2009 2305 2812 2291 1619 
2767 3027 2396 3297 3303 2516 3122 2795 3492 
3082 2532 2510 2661 1983 1376 1727 1414 2276 
2486 2368 2183 2498 3286 3539 2505 3360 2487 
1953 1686 1405 2511 2015 1978 2468 2522 2765 
2111 2953 3079 2048 1866 2402 3249 2824 3553 
2739 2673 2808 540 1699 2408 1693 2562 1989 
2964 1716 3175 2338 2423 2515 2415 2280 3015 
2717 2848 3699 3721 2659 1954 2013 37 2329 
2173 2181 2298 3024 2943 3124 1737 2105 2450 
2025 1817 1711 2271 1378 2429 2859 2639 2610 
3238 1858 2667 1607 2061 2886 1887 1065 1773 
2491 2385 1700 2359 2576 3252 2389 3451 2829 
2805 2268 3799 2226 2057 2177 2142 2282 722 
3156 2151 2816 2668 2363 2708 3375 2387 3247 
2880 2858 3614 2231 2983 3345 2006 1794 1662 
3173 2794 2399 2103 2674 2457 3072 3338 1781 
2581 3005 1408 1253 2190 1636 1988 2916 2182 
2944 2870 3040 1942 3180 2694 1966 939 1671 
1668 2050 2600 1264 2804 2333 2120 1889 2736 
1840 2540 3772 2666 2549 1824 2671 2409 3158 
2846 2687 2520 2432 3211 3690 2534 2519 3208 
2461 3090 1087 2317 2179 2440 2071 2745 2420 
1965 2005 1987 1219 1198 2370 2709 2322 2361 
1531 2565 1905 1863 1658 2116 2579 2083 3063 
2202 3185 1805 2665 1539 1924 2935 3339 2939 
1896 3445 3368 1667 2774 2163 1969 2141 2688 
2773 3258 2206 2373 2082 2482 3029 1890 3250 
2787 3620 3548 2883 2548 1902 2796 1793 2712 
1723 2861 2875 1807 2444 3455 2772 2251 3039 
1916 3892 3150 1806 1363 1396 1917 1993 1452 
1736 1200 1815 1994 1877 2678 2989 2407 2922 
3890 2897 1507 2172 2577 1704 2392 1568 1051 
2521 1558 2786 2950 2207 3453 2741 2704 2263 
1927 2531 1637 2112 2130 2326 2595 2737 2573 
2820 3012 2676 2863 3214 2323 2536 2309 2481 
1206 1694 2449 2607 2215 2357 2603 1786 2978 
1545 3003 3189 2059 2405 2204 1985 3129 1094 
1447 2256 1833 1920 2118 2193 2192 2885 2125 
3569 2614 2086 1832 2584 1660 1732 1689 1941 
2699 1900 2220 2798 3257 1901 2749 2343 2835 
1813 2466 1653 1803 2422 2770 2940 2814 2881 
3363 1616 2290 3499 1735 1946 3149 3506 3278 
3633 2951 3757 2852 1769 1440 2488 3387 1885 
1762 1431 1990 2068 2473 2827 1938 2677 3246 
2572 3121 2899 2169 2941 2344 2653 2912 871 
1808 2762 2026 2077 2079 2439 2424 2752 2647 
2070 2222 2504 2325 2306 2849 1909 1729 2356 
1825 1585 1739 2564 2632 3574 2476 3112 2828 
2733 3470 1599 1292 2830 2094 2630 2132 2217 
2969 2657 2164 2844 3071 3179 3308 2465 2393 
2738 2570 2552 2642 1432 2124 2095 2500 1851 
2649 1820 1039 2887 2404 2865 1930 2724 2854 
2313 2337 2753 3351 1857 2990 1646 1360 1648 
1549 2636 2503 1798 1956 2442 2725 2218 3196 
2249 3009 2382 2620 2524 2175 2931 3485 1515 
1933 2459 1738 2638 1621 1915 2682 2316 3054 
2802 3273 3439 2797 2919 1528 1761 1810 1797 
2994 2253 3312 2431 1874 2445 2462 2017 2985 
2934 2011 3505 2763 2615 3006 2604 3085 3390 
2374 2785 3014 1656 1526 2529 2799 3053 2701 
2592 1706 2342 1409 2587 3050 2789 2413 3700 
2890 2471 3213 3489 3448 3093 3480 2367 2123 
2386 2178 3047 2902 2923 2352 2214 2274 1731 
2436 1947 2480 2273 3373 3337 2697 3087 2803 
2238 1740 2759 2199 1465 1892 1204 2543 2184 
1747 950 2167 2287 2447 3105 1451 1799 2213 
2201 2016 2608 2961 2162 2908 2535 3403 4017 
3123 2324 1894 1473 2888 2702 2336 2230 2029 
2492 3398 2137 3463 1918 2555 1854 2609 2723 
2884 1974 1075 2340 2924 2456 2321 2751 1872 
236 2288 2625 3277 3304 2045 2730 3756 3494 
2233 2925 1666 2655 1457 2076 2186 1527 1709 
2768 2281 2261 2982 2654 3251 2153 2933 1847 
3432 2679 2437 1138 2020 2019 2700 2227 2962 
2705 1234 1192 2212 1427 1635 2898 1742 2495 
2744 3138 3070 2734 2605 2681 3178 3785 1748 
2622 2265 2626 1818 2174 2331 2602 3307 2376 
2578 3234 2315 2097 3980 2715 2672 3170 4228 
3546 2731 3318 2800 2837 2160 2283 3031 1853 
2900 1939 2810 2547 3232 2691 3280 3712 2841 
2525 2469 3733 3190 2635 3803 2244 2022 1801 
1596 3017 2310 2397 1864 3045 2502 2729 3287 
3225 3274 2496 2062 3893 3745 3559 2619 2952 
3065 2561 2559 3010 2583 2089 2063 2494 2078 
2727 2644 3153 3301 3219 3358 3436 3330 3267 
3369 3836 1912 2711 2822 2590 2580 2936 2087 
3202 2703 2390 2882 2949 2311 2650 2485 2874 
3091 2054 1322 897 1601 2784 2360 2957 3371 
2627 3270 3145 2748 3116 2591 3818 2475 3367 
3248 3736 460 2138 1757 1544 2188 2903 2381 
2401 2988 2080 3292 1784 2663 3212 2831 3397 
2892 2388 3119 2380 2766 2876 2170 1715 1474 
2394 262 2670 2948 3372 2706 2631 2171 2945 
2107 3747 2582 3114 3034 3507 2236 2434 2234 
1791 2513 2033 3400 2872 2942 2270 2593 3460 
2563 2294 3293 3081 3939 3937 3059 3357 2791 
1788 2099 2197 2180 2411 2575 2586 2350 3201 
3120 3171 3266 3073 3895 1903 1926 2992 1034 
3004 2758 3442 3684 3646 3752 1313 1891 2497 
2302 1770 2229 2369 2692 3561 3341 2255 3435 
3444 2085 1520 2811 2793 3823 3467 825 2147 
2523 2235 2412 2778 2585 2909 3406 2144 2246 
3401 2637 3268 3396 2479 2058 3115 2060 2662 
2372 2126 2002 2501 3172 3738 2266 3285 1951 
2542 1973 1823 2856 1837 2937 3176 2574 2530 
3591 3783 3410 3320 3759 3162 2970 3487 3089 
3538 3525 2056 2131 2868 3630 3046 3255 2866 
2771 3509 3580 2069 3106 2685 3493 2742 3288 
2836 3804 3282 4039 3118 2879 3289 3955 3713 
3722 3446 2718 3279 3792 4166 3834 3703 4464 
4216 2507 3056 3958 4734 3961 3331 3902 3919 
3235 2623 3845 3639 4367 4200 2864 4060 4497 
4618 3972 3607 4124 3404 3862 3758 4098 2262 
2096 3677 3471 3822 2783 2891 4129 3790 3077 
2634 3032 3440 3778 3276 3058 3718 3654 3148 
3532 2308 3362 3844 3334 3194 3405 3723 3302 
3632 3195 4149 3985 3727 3547 3977 3670 4139 
3147 4257 3682 4002 3361 3472 2371 3433 3763 
3831 3913 4326 4388 2955 3764 4310 3349 2930 
3761 3165 4248 3766 3152 3967 3379 4066 3618 
3735 4416 4642 4270 4072 4918 4738 5772 4390 
4818 2499 2747 2467 2616 3768 3350 4439 3623 
4211 3894 3800 3675 2967 3711 4375 3083 4038 
5535 4415 3311 2553 2339 2596 1950 3537 3500 
3048 3708 3437 3578 3811 4086 3868 3883 4891 
3717 4456 4451 4536 4395 4279 2597 3313 3847 
2740 3067 2189 2973 3478 4170 4188 4460 2929 
3037 4255 2834 4647 4389 3833 3450 4637 2946 
4813 3715 4371 4169 4664 4420 5082 4463 2966 
3920 3325 2904 3662 4000 3052 3449 3512 3523 
4480 3993 3264 4632 4284 4567 4496 3221 3346 
2438 4056 2821 3186 2628 2721 2832 3676 3983 
3516 4007 4946 4521 4775 4705 4361 4136 3078 
2088 3522 3599 2842 3041 2907 3188 3103 3527 
3794 3907 2980 4797 4286 4093 3771 4648 4742 
4150 3028 2365 3572 3769 3226 3751 4317 3353 
3898 3714 3806 3347 4198 2648 3412 5425 3990 
4161 4003 4202 4290 4519 4600 3828 2216 3199 
2896 3365 3534 3370 3096 3298 4559 2976 2777 
4068 4012 3674 2656 3789 2867 3611 3774 4444 
3528 4240 4089 3743 3477 3615 3476 3826 3753 
3482 4065 3556 3409 3642 3754 4001 4646 3309 
3169 3000 3260 3594 3813 3462 3415 3317 3518 
3231 4130 4403 4560 3126 3166 2477 2168 2696 
3388 3651 2354 3136 3931 4504 3101 3634 3468 
3242 3459 3963 4175 3956 2693 2838 2788 2984 
2857 2927 3020 3829 4259 3624 4019 3344 3681 
3773 4700 3376 4205 3821 3306 3679 3143 3183 
3457 3848 3402 3974 4134 3640 3672 3987 3323 
4466 4328 3944 3418 3294 2895 3616 3979 3244 
3695 2698 3730 3259 4525 4291 3253 4387 3951 
4127 3988 4440 3281 3817 3924 2241 2732 3542 
3508 2954 1741 3590 3825 3504 3897 4232 2726 
4253 3705 4120 3861 3011 4374 3849 3853 3434 
3167 2757 3181 3557 4113 2860 2769 3392 3706 
4545 3092 3377 3474 4242 3526 4359 2286 3227 
4281 2558 3655 3788 4575 3881 4075 2544 3921 
4699 3571 4590 2664 4833 4806 3860 4485 3001 
2995 3100 3692 3427 3649 4306 4133 4046 4597 
4754 3886 4448 4477 4970 3140 3466 3157 3746 
4154 3222 4103 3422 3973 4084 4979 4340 4263 
3035 2915 3767 2894 3563 2993 3236 3237 3399 
3926 3191 4031 4099 3856 4189 3275 4393 3108 
2484 4184 2683 3748 2819 3952 3927 4125 2823 
4688 4872 3577 2567 3327 3326 2541 3941 3545 
2998 2617 2914 3229 3638 2707 3204 3685 3644 
4262 3598 3139 3698 3055 4142 2986 3066 2293 
3163 3109 3428 3107 3272 3030 3680 3837 3424 
4506 4753 4061 3586 4109 3127 3490 3336 3097 
3075 2947 2571 3925 3810 4237 4570 4295 3550 
3241 3104 3786 4731 3948 4937 4870 2539 3333 
3498 3393 4454 3408 3484 3356 4112 3622 3744 
4105 3592 3628 3473 4095 3316 3858 2780 3935 
2850 3762 4335 3588 3891 3200 3859 2419 4245 
3981 3568 3877 4233 4069 3324 4394 4207 4465 
4617 5179 5247 4443 4958 3694 3023 3864 3936 
3061 4402 4429 3888 4349 3452 3819 3530 3007 
4309 3230 2928 3243 3558 3283 3596 3044 4438 
4434 4528 2722 3652 3665 3855 4128 3210 3970 
4156 3824 3458 4484 3414 3016 3084 2358 2756 
3663 4217 2760 3946 4114 3332 3220 4246 2991 
2971 3161 2599 3796 3022 2965 3197 2807 3205 
4024 3609 3867 3502 3443 4386 4008 3659 3989 
3838 3576 2320 2815 3617 2920 3501 4020 3619 
3613 3128 3520 4468 3689 3863 4239 3602 3135 
3668 2817 2926 2893 2334 3601 3544 3130 3198 
4176 2974 3184 3144 3830 4772 4419 3486 2972 
3305 3164 4083 4365 3673 3117 4531 3018 4315 
4899 3608 3687 3380 4235 4327 2755 4344 3666 
3431 3582 3088 3795 4053 3776 4573 3872 3755 
4337 3429 3842 2906 3177 3560 3366 3584 3874 
3552 2643 4081 3686 4203 3479 3850 4062 3750 
4369 3513 4331 3905 4028 3911 3300 3702 3239 
3775 4137 3359 2960 3110 3575 4018 4614 4347 
3447 3996 4183 4206 3595 4747 4555 4077 3827 
4193 3945 3991 3950 3395 3816 4311 4472 3749 
3805 4811 3631 3610 4352 4338 5195 4685 4116 
4097 3779 3719 4736 3159 3600 4102 4673 4158 
3589 3960 2826 4249 3871 3419 3835 2792 3777 
2428 3643 3653 3720 3245 3383 3541 3593 3637 
4364 4231 3134 3739 4639 4990 4312 4080 3295 
3491 2463 2997 4187 4163 3233 3043 3343 4090 
3216 3417 3329 3314 3299 3975 2889 4425 3262 
3661 3019 4486 4201 4256 4412 3488 3168 3852 
4565 4342 1904 3741 3074 3760 3394 2353 4165 
3832 3533 4288 3420 4320 3514 3656 3218 4204 
3605 3536 4033 3151 3182 3146 2224 3904 2754 
2979 3441 3068 3880 3915 3900 2853 3660 4058 
4215 3554 3223 3042 3133 3999 4146 3261 4561 
4199 4307 4487 4479 3737 3968 3732 4252 4250 
4174 4219 4591 4258 3965 3865 3846 3731 3426 
5123 4148 3740 3645 3224 4108 3296 3716 3627 
3930 3793 3629 4152 3051 3876 2981 4047 4598 
3693 4341 5224 4999 5294 2917 3626 3036 3407 
2550 3878 3962 4157 4551 4860 4190 4823 2551 
4041 3354 3969 3597 3917 3697 3291 3782 3064 
4131 2921 4073 3585 4042 4178 3929 4078 2719 
3688 3725 4234 4182 3385 3269 3901 3531 4107 
4055 3916 4192 3021 3587 4589 4377 3678 4513 
3340 4140 3381 3704 3290 3352 3519 3787 3389 
3141 3515 2901 3382 3461 3780 3131 4238 3570 
3603 3671 4625 2913 4272 3495 3454 3154 3421 