# vtk DataFile Version 4.2
Generated by LIGGGHTS
ASCII
DATASET POLYDATA
POINTS 6000 float
-0.0163714 -0.0173921 0.0143937 -0.0157497 -0.0179549 0.0124163 -0.0125089 -0.0203292 0.0123531 
-0.0107933 -0.0213562 0.0122975 -0.0141473 -0.0191741 0.0123071 -0.0105824 -0.0193933 0.012612 
-0.00875377 -0.0201577 0.0123275 -0.00915411 -0.0220256 0.0132304 -0.012307 -0.0184543 0.0130539 
-0.00989282 -0.017524 0.0123819 -0.011553 -0.0209563 0.0141318 -0.0132398 -0.0198409 0.0141581 
-0.0148959 -0.0187198 0.014138 -0.00867578 -0.0185317 0.0140557 -0.0119611 -0.0186368 0.0151213 
-0.0102235 -0.019597 0.0148689 -0.00851026 -0.0205039 0.0143564 -0.0103938 -0.0175682 0.0144826 
-0.0137089 -0.0172233 0.0123263 -0.0078169 -0.0178755 0.0123312 -0.00733109 -0.0227555 0.0128477 
-0.00687201 -0.0208566 0.0123363 -0.00680582 -0.0192467 0.013595 -0.00538505 -0.0232847 0.0127524 
-0.00162481 -0.0238982 0.0123369 -0.00106307 -0.0218738 0.0123013 -0.00487946 -0.0206118 0.0123641 
-0.00292795 -0.0211115 0.01235 -0.00337324 -0.0191592 0.01234 -0.000657321 -0.0192716 0.0123128 
-0.00190569 -0.0177214 0.0125117 -0.00343344 -0.0230461 0.0123836 -0.00503766 -0.0182769 0.0135389 
9.2542e-05 -0.0173894 0.0123348 -0.0038388 -0.017203 0.0122838 -0.00669102 -0.0213323 0.0142795 
-0.00194067 -0.0197262 0.0137785 -0.00310308 -0.0181194 0.0140654 -0.00221413 -0.0235831 0.0142431 
-0.000194872 -0.0219048 0.0141155 -0.000238824 -0.0238978 0.0143023 -0.00396999 -0.0199321 0.0141868 
-0.000806345 -0.0180973 0.0141911 -0.00249512 -0.0216027 0.0142801 -0.00474926 -0.0217726 0.0140571 
-0.00413801 -0.0234938 0.0148723 -0.00611746 -0.0231673 0.0148362 -1.04965e-06 -0.0199251 0.0143473 
-0.00715173 -0.0176071 0.0149763 0.000386405 -0.0238672 0.0123174 0.000823894 -0.0206204 0.0122996 
0.00276405 -0.0203398 0.0127157 0.00325299 -0.0237129 0.0123149 0.00521678 -0.023302 0.012379 
0.0030625 -0.0174281 0.0122989 0.00459752 -0.0210562 0.0123388 0.0061736 -0.019802 0.0122968 
0.00174589 -0.022399 0.0123084 0.0015675 -0.0187628 0.0124123 0.00651621 -0.0217783 0.0123279 
0.00753905 -0.0206699 0.0136585 0.00667394 -0.0176352 0.0133466 0.00431644 -0.0190423 0.012275 
0.00795022 -0.0188806 0.0124419 0.00505237 -0.0171385 0.012284 0.0033298 -0.0221029 0.0135062 
0.00485645 -0.0213734 0.0145792 0.00338586 -0.0185621 0.013978 0.00171234 -0.0219299 0.014718 
0.00199496 -0.0237474 0.0139193 0.00381765 -0.0236811 0.0147893 0.00758634 -0.0226018 0.0141842 
0.00575161 -0.023153 0.0147739 0.00200192 -0.0199129 0.0145243 0.00528571 -0.0182087 0.0146759 
0.00119504 -0.0176569 0.0140491 0.00907597 -0.0205296 0.0122309 0.0117769 -0.0180219 0.0123853 
0.00841722 -0.022417 0.0123403 0.00904013 -0.0171442 0.0123298 0.0109751 -0.0211799 0.0123679 
0.0127406 -0.0202274 0.0123428 0.0158013 -0.0176762 0.012367 0.0144176 -0.0191188 0.0123017 
0.0100357 -0.0188932 0.0129476 0.0136408 -0.017274 0.0122925 0.00944051 -0.0219696 0.0145966 
0.0116662 -0.0202627 0.0140721 0.0122991 -0.0183712 0.0143341 0.0139832 -0.0194626 0.0143164 
0.00927823 -0.0199807 0.0144515 0.0140601 -0.01744 0.0145414 0.0105265 -0.0174484 0.0142397 
0.0160208 -0.0177877 0.0143573 -0.0187918 -0.0123617 0.0123356 -0.0177517 -0.0140774 0.0122906 
-0.0167915 -0.0123048 0.0123204 -0.0171781 -0.016546 0.0123805 -0.0207199 -0.0118305 0.0123376 
-0.0179954 -0.010512 0.0123324 -0.0199326 -0.00998906 0.0123807 -0.0219458 -0.00965345 0.012275 
-0.0182264 -0.0154441 0.0136815 -0.0194609 -0.0138807 0.0135001 -0.0204321 -0.0123081 0.0142638 
-0.0191978 -0.0107268 0.0141225 -0.0182481 -0.0124808 0.0142734 -0.0170029 -0.0109338 0.0140347 
-0.0174553 -0.0141578 0.0150245 -0.0214194 -0.0105677 0.0140392 -0.0179538 -0.0093309 0.0148997 
-0.0169075 -0.00902676 0.013115 -0.0198168 -0.00882432 0.014089 -0.0222388 -0.0087157 0.0140332 
-0.0162547 -0.0154228 0.0140423 -0.0157523 -0.0140123 0.0124307 -0.0158569 -0.0105288 0.0123142 
-0.0152664 -0.0159576 0.012369 -0.0115694 -0.016154 0.0123958 -0.0101178 -0.0146989 0.0123438 
-0.0140722 -0.0114317 0.0123274 -0.0089495 -0.0110907 0.0124527 -0.00858539 -0.0159907 0.0123594 
-0.0138682 -0.0133891 0.0126953 -0.0133402 -0.015321 0.012837 -0.011964 -0.0139338 0.0123962 
-0.0102476 -0.0126843 0.012377 -0.0108378 -0.0104196 0.0124948 -0.0121376 -0.0119361 0.0123915 
-0.0127717 -0.00990084 0.0123359 -0.00937765 -0.00905337 0.012426 -0.0160237 -0.0128921 0.0140743 
-0.00867199 -0.014331 0.0136887 -0.0145851 -0.016516 0.0141867 -0.0150127 -0.0111363 0.0140718 
-0.0124013 -0.016638 0.0141576 -0.00870571 -0.0165005 0.0143136 -0.0106131 -0.0156184 0.0140687 
-0.0144912 -0.0144788 0.0142523 -0.0130294 -0.0108815 0.0141311 -0.010882 -0.011535 0.0141671 
-0.00907902 -0.0123925 0.0139975 -0.0124321 -0.0127573 0.0145202 -0.0122536 -0.0147659 0.0148669 
-0.0106503 -0.0136243 0.0142394 -0.0102464 -0.00964183 0.0142705 -0.00832305 -0.00910735 0.0141453 
-0.0143748 -0.00930298 0.0134034 -0.0158597 -0.00946115 0.014763 -0.0121582 -0.00907873 0.0140809 
-0.00809088 -0.0128943 0.0123148 -0.00748083 -0.00972927 0.0123576 -0.00709607 -0.0146387 0.0123647 
-0.0053267 -0.015853 0.0123101 -0.00173609 -0.0117426 0.0124382 -0.00522213 -0.013855 0.0124003 
-0.00121904 -0.00960896 0.0124058 -0.00355431 -0.0108666 0.0125258 -0.00162588 -0.0157482 0.0123302 
-0.00342607 -0.0148774 0.0123434 -0.00618984 -0.0121049 0.0123718 -0.00545651 -0.0102411 0.0123781 
-0.00340181 -0.0128577 0.0123423 0.000132183 -0.0124992 0.0123086 -0.00159837 -0.0137489 0.0124423 
-0.00692066 -0.0163665 0.0134037 -0.0031098 -0.00891408 0.0123497 -0.00741321 -0.011174 0.0137416 
-0.00389059 -0.0159944 0.0139491 -3.92736e-05 -0.0160051 0.0137866 -0.00675819 -0.0133307 0.0138558 
-0.00219342 -0.0105476 0.0139777 -0.00736399 -0.0151555 0.0149685 -0.00195084 -0.0164524 0.0141782 
-0.00451039 -0.0130582 0.0141558 -0.00400191 -0.00968097 0.0140829 -0.00257054 -0.0125315 0.0141662 
-0.00253171 -0.0145334 0.014174 -0.00545119 -0.0112793 0.0141283 -0.0055185 -0.0148571 0.0142308 
-0.000623607 -0.0120727 0.0142235 -0.000582009 -0.0140833 0.0142146 -0.00538031 -0.0166686 0.0151178 
-0.00635941 -0.00949695 0.0140239 -0.00121283 -0.00881804 0.0143313 0.000250832 -0.0145522 0.0124266 
0.00031028 -0.0106559 0.0131602 0.00380325 -0.0155637 0.0124021 0.00164321 -0.0160048 0.0123736 
0.0057176 -0.0148523 0.0122397 0.00601794 -0.0127672 0.0122897 0.00420438 -0.011573 0.0123801 
0.00735371 -0.0160148 0.012314 0.00207963 -0.0119165 0.012386 0.00222593 -0.0140533 0.0124474 
0.00456507 -0.0096118 0.0125675 0.004177 -0.0135899 0.0124631 0.0058615 -0.0111093 0.0134 
0.00314536 -0.0125947 0.0140367 0.00753603 -0.0108002 0.0123493 0.00179552 -0.0095825 0.0123575 
0.00758809 -0.0140068 0.0123566 0.00511506 -0.0160126 0.0140019 0.0011952 -0.0130441 0.0140413 
0.00694451 -0.00954854 0.0140356 0.00725329 -0.0127536 0.0139437 0.00285422 -0.0106273 0.0137132 
0.00666637 -0.0146643 0.0141208 0.00519199 -0.0130074 0.0143898 0.00169395 -0.0150436 0.0141838 
0.00373463 -0.0146622 0.0146152 0.00676126 -0.0166021 0.0150644 0.00310539 -0.016583 0.0141234 
0.00454635 -0.0104296 0.0147605 0.00133471 -0.0112341 0.0149311 0.000689058 -0.00934841 0.014655 
0.00822886 -0.011055 0.0143713 0.00397741 -0.0085146 0.014658 0.0108613 -0.0162323 0.0124376 
0.00886643 -0.0122936 0.0123767 0.0153943 -0.0138606 0.0122548 0.0146481 -0.0120061 0.0123619 
0.0112475 -0.0138365 0.0123984 0.0132063 -0.0133955 0.0124107 0.0128573 -0.0110958 0.0124184 
0.0126806 -0.0153655 0.0122839 0.0109948 -0.0118499 0.0123972 0.00945151 -0.0147353 0.012464 
0.00974283 -0.0102819 0.0125802 0.0150257 -0.0158294 0.0122552 0.0145364 -0.010006 0.0123849 
0.0117433 -0.00966177 0.0132556 0.00826873 -0.00893522 0.0123764 0.012193 -0.0163519 0.0139815 
0.00857209 -0.0165062 0.0142155 0.0139811 -0.0145908 0.0139093 0.0157345 -0.0110992 0.0138589 
0.013808 -0.010635 0.0141409 0.0117648 -0.0143967 0.0142588 0.0101346 -0.0129845 0.0138307 
0.0120474 -0.0124093 0.014026 0.00863934 -0.0143582 0.0142887 0.0102311 -0.0155593 0.0148259 
0.0140387 -0.0126187 0.0142553 0.0101665 -0.01126 0.0148467 0.0120253 -0.0105455 0.0150439 
0.0105067 -0.00926178 0.0148294 0.015935 -0.0132598 0.0140951 0.0152626 -0.00915337 0.0140557 
0.0163981 -0.0151358 0.0135494 0.0165289 -0.00983378 0.0123709 0.0131353 -0.00858012 0.0123039 
0.0166515 -0.0120269 0.0123392 0.0174343 -0.0138844 0.0123746 0.0194547 -0.0138738 0.012281 
0.0173687 -0.0164087 0.0122375 0.0206233 -0.0122395 0.0124585 0.0186516 -0.0119186 0.012358 
0.0198477 -0.0106443 0.0134746 0.0215717 -0.010462 0.0123632 0.0185127 -0.00956854 0.0123208 
0.0184622 -0.0152146 0.0134733 0.0177071 -0.0107749 0.0137001 0.0179275 -0.0134842 0.0143288 
0.0199071 -0.01326 0.0141431 0.0218129 -0.00996377 0.0143318 0.0173697 -0.0163709 0.0148041 
0.0208662 -0.0116384 0.0149569 0.0188139 -0.0118266 0.0150165 0.0203873 -0.00885229 0.0122773 
0.0172098 -0.00868033 0.0140031 -0.0231503 -0.00573366 0.0123148 -0.0235972 -0.00374411 0.012303 
-0.0186514 -0.00845408 0.0123191 -0.0206447 -0.00812174 0.0123117 -0.0226774 -0.0077741 0.0123196 
-0.0171498 -0.0071251 0.0122951 -0.0190459 -0.00648894 0.0123129 -0.0211672 -0.00618828 0.0122618 
-0.0216583 -0.00424892 0.0122883 -0.0196863 -0.00459445 0.012281 -0.0185946 -0.00294076 0.0125575 
-0.0168513 -0.00430732 0.0123146 -0.0166961 -0.00230254 0.0124602 -0.0218969 -0.00223602 0.0122861 
-0.0200315 -0.00153284 0.0125306 -0.0238423 -0.00175799 0.0123365 -0.0181356 -0.000877546 0.0124229 
-0.0175141 -0.00567214 0.0136241 -0.018301 -0.00747428 0.0141552 -0.0208853 -0.00713255 0.0140766 
-0.0228994 -0.00676686 0.0140504 -0.0233777 -0.0047522 0.0140573 -0.0217433 -0.00322854 0.0140196 
-0.0172751 -0.00377035 0.0142013 -0.0194775 -0.00567134 0.0141418 -0.0197694 -0.00366866 0.0140568 
-0.021427 -0.0052074 0.0140476 -0.0236953 -0.0027781 0.0140516 -0.0184763 -0.00217886 0.0144038 
-0.0204325 -0.00176481 0.0144761 -0.0225121 -0.00110823 0.0139019 -0.0113498 -0.0084912 0.0123481 
-0.0132845 -0.00796694 0.012316 -0.0152794 -0.00783196 0.0123777 -0.00988681 -0.00712018 0.0123432 
[...]
POINT_DATA 6000
FIELD FieldData 7
id 1 6000 int
723 595 569 1169 1212 1278 1154 727 1890 
231 260 1574 40 1106 588 941 874 685 
701 285 632 441 1141 534 587 186 224 
837 1053 1300 12 561 353 1464 1017 508 
1473 1095 49 83 14 2497 1739 896 708 
391 1048 889 562 1455 195 108 1655 608 
904 556 533 944 158 1737 192 300 179 
1242 1081 719 412 443 1416 68 73 222 
206 234 287 1158 986 13 37 298 297 
117 605 955 1540 230 687 305 256 326 
1543 2013 1255 876 908 1662 1034 1226 1585 
1569 909 2931 1753 628 629 599 1400 1963 
603 1593 1138 1107 1435 1860 1310 1793 565 
493 372 549 840 552 1714 816 1203 539 
1089 501 793 650 154 232 151 1463 814 
1673 901 344 769 778 1405 380 1084 429 
1334 1609 418 1535 161 191 102 1317 142 
383 455 1132 772 259 584 663 404 301 
741 1360 67 961 479 176 570 373 456 
522 713 558 318 829 850 498 1004 131 
1549 61 223 521 248 1070 497 980 712 
639 56 1429 227 500 946 532 700 879 
550 581 1395 115 1517 207 1518 2093 777 
99 1087 1045 81 1439 631 1064 724 366 
797 725 279 219 26 1092 129 867 989 
1367 2113 123 1658 1136 3170 2960 1103 2293 
419 239 1827 1096 1978 199 360 1716 1054 
2793 1603 1100 1584 1038 3188 1007 1938 323 
273 578 1380 833 1098 691 45 1197 1063 
371 1313 2141 1052 1725 3168 2606 1936 2852 
3250 5931 4497 1307 1640 8 1651 5020 4536 
647 2011 454 20 4470 1247 3467 2424 3090 
894 541 2147 1921 5773 4880 122 2470 5508 
3853 5334 818 3295 3083 426 21 716 954 
1986 15 693 832 1615 143 4001 1586 189 
810 392 4697 3713 514 616 872 1502 431 
2194 333 1127 1028 511 1388 1069 1443 1495 
4426 1492 2215 2061 399 753 607 540 1040 
1332 611 551 1031 258 825 451 385 1001 
97 537 1349 166 615 673 808 265 469 
211 678 526 690 1447 1671 834 150 721 
763 1356 499 973 762 988 658 253 1219 
692 1205 362 132 646 495 274 805 351 
345 856 447 315 1718 638 4 59 34 
897 357 959 860 238 1441 92 461 1118 
101 823 1058 564 1980 174 919 594 171 
1104 95 1285 1764 88 30 636 934 774 
415 731 396 571 177 478 1248 998 1105 
935 1207 728 855 491 1377 433 390 245 
1039 187 105 590 707 1460 2669 966 784 
215 1868 711 1458 530 1131 2142 593 1220 
953 71 2105 1886 921 474 1645 307 623 
120 546 812 671 208 188 1696 2595 6014 
6001 6070 5556 3248 5774 5486 4671 5068 5977 
4137 5287 5775 5623 5850 3422 5833 4056 5793 
5904 2549 4473 5281 5891 5052 5353 5567 3837 
5119 3440 6002 5155 5708 542 3538 2169 1530 
1072 5766 5610 5740 3131 124 2720 3524 4248 
614 1715 4036 4628 2608 4639 749 144 4748 
4430 1561 4819 2799 529 1468 1117 866 2481 
3546 504 669 651 308 1126 2358 2154 737 
196 1945 1689 543 1299 119 340 3027 1217 
65 743 799 652 1647 1594 200 1099 751 
134 359 58 264 386 482 520 1477 622 
127 696 968 912 140 1123 1392 681 754 
580 1347 135 635 346 1330 1250 733 752 
1116 869 1149 604 674 226 1286 440 1146 
773 1635 1442 1822 389 321 783 1481 450 
270 381 82 202 841 25 1801 513 942 
597 943 1784 1162 1225 178 311 582 1386 
439 765 826 423 269 938 516 267 181 
686 167 3 1125 446 1301 1005 918 1580 
1159 434 414 51 1272 2131 802 246 445 
987 1445 490 379 847 914 4356 4484 5980 
951 5599 5616 4969 3478 5951 5411 6008 3492 
1879 5139 3517 4912 5928 4446 1249 4332 5011 
2708 2417 2920 5825 3349 2923 5171 5757 2618 
3594 4735 4539 5246 3345 4303 5492 5261 3996 
3494 2642 1333 4787 5360 168 3382 47 1352 
4422 3080 1630 4545 5703 1381 4107 2583 313 
3606 2391 1350 1234 278 544 52 1076 979 
960 666 3918 1867 1670 1027 2268 517 1617 
1424 1848 3447 2313 684 1927 1785 254 76 
303 2291 1378 786 397 1009 110 263 448 
1931 427 865 233 824 2536 317 1478 1008 
939 111 2041 1056 376 35 1836 485 492 
424 1500 1322 19 343 198 2245 487 1179 
228 266 325 1365 566 5 1181 1318 642 
277 835 996 971 464 809 670 282 3762 
4166 2432 4213 4198 5684 5692 5808 4246 4974 
5248 3591 2570 5650 4541 3962 5498 5185 5704 
6 3402 98 3742 5557 4903 5348 5204 5344 
4176 5959 995 5066 4117 5195 3463 5800 2308 
4519 5280 2829 4032 5392 5786 5760 3377 5721 
3924 3632 3861 2458 2682 689 3410 336 4561 
1133 3254 3873 3395 1258 5037 57 2297 1011 
3611 169 2290 702 3949 776 1965 425 184 
304 240 1043 1032 221 74 2288 2643 1579 
804 255 398 79 679 505 735 5778 817 
1130 1047 1006 210 1329 494 563 1026 271 
1426 1576 378 197 888 94 309 1260 1703 
84 1652 1747 1224 225 682 460 2028 1075 
2129 320 1021 2204 857 990 1421 69 1992 
1679 384 2007 1498 2396 337 2457 284 1222 
1091 72 468 1167 393 407 1180 547 785 
1704 64 204 630 781 1314 884 104 368 
618 1265 100 790 2097 2160 572 1685 1246 
217 1789 1155 2040 803 981 1674 1988 656 
1690 1643 1243 1766 364 1174 1143 1120 999 
1457 1797 1128 1253 854 1015 417 2136 148 
1592 10 466 1025 152 1414 1145 1572 519 
800 55 965 1013 11 923 1523 1261 1951 
2 477 789 591 1176 620 289 624 1504 
714 214 1153 828 1018 349 1633 1202 428 
957 296 367 525 1733 1605 1273 2220 1914 
458 585 2123 2081 2078 1680 1147 2261 2423 
435 1119 2163 2184 1486 976 1510 1312 1022 
193 314 332 2328 1701 2233 1121 2617 1552 
1840 553 2072 2612 2653 1808 2447 2542 1866 
2046 1729 2006 1152 2234 2456 619 1201 348 
1555 717 216 1553 172 3275 17 483 1188 
794 46 3104 33 722 637 1810 2616 4502 
1231 4281 4351 331 438 1319 1357 3149 4792 
1389 2076 1942 2935 4121 1554 3774 293 2264 
4712 3370 2997 2341 1093 1343 1940 1750 87 
1814 1751 1449 1251 640 1339 1425 1173 1229 
2188 330 2243 1037 1480 114 1619 822 2455 
4896 2554 2742 5544 1030 2656 2731 2759 137 
1235 617 1371 868 992 764 598 1820 750 
704 1527 32 1288 871 2010 2009 509 2224 
1362 1707 1280 775 706 1982 1175 606 1274 
250 576 242 782 510 2092 1184 760 1611 
1682 89 1508 1484 2075 1254 1620 1994 43 
4429 183 2175 2274 2111 2376 146 1612 1194 
2159 1930 2605 1336 1041 2850 1239 1744 848 
453 1779 1531 1991 3224 463 3091 1295 2734 
2380 50 507 820 1738 2051 846 1266 545 
237 683 465 1110 1060 244 738 1233 983 
1309 416 1077 1932 347 925 1452 1575 949 
275 235 449 523 947 155 792 1323 655 
369 160 873 891 462 302 156 710 975 
241 406 1083 1884 18 680 718 437 1571 
276 1193 1638 36 1462 86 1664 2384 190 
1995 133 970 1164 218 2118 1515 39 2280 
1000 502 586 1035 408 557 294 579 1042 
1413 1917 1113 1732 1719 927 63 885 1698 
664 352 1428 394 48 703 1799 1869 375 
1012 715 1562 1369 974 559 1407 2157 1291 
1557 90 1074 1476 720 1538 779 1813 1144 
1843 1223 488 201 1964 1548 66 2418 1016 
358 1892 1999 422 1800 734 864 1157 1841 
842 1792 1398 815 1901 1020 654 1908 1139 
1937 1390 1723 1904 2238 1363 5048 1228 327 
2020 3346 596 1221 1692 2192 1906 1475 3073 
758 2443 1065 334 1102 1436 1948 1208 2413 
4375 4103 2329 2620 257 1241 3262 2393 2747 
3706 2540 3187 4861 2882 3592 4271 3332 3535 
2416 2119 2710 1683 2978 3857 3126 948 2049 
268 1772 878 1023 2399 1950 1968 3911 2673 
2166 1928 1621 1705 2115 2886 2533 2402 130 
3765 3397 2520 910 2339 1947 2977 4390 3303 
3359 4285 2545 2253 3788 3319 3118 5001 4083 
3223 3532 2437 4808 1608 796 1342 1370 4358 
2674 4443 1422 3526 1564 5293 3117 2658 4388 
5824 1199 978 1491 1877 4160 5882 1804 3062 
5581 2834 5926 3607 2082 2186 2804 2395 2969 
3324 1213 4843 5930 5946 4055 5131 5539 5012 
5056 103 3272 2462 3071 2979 5384 2102 5214 
3763 5690 3146 2705 1849 4312 2272 3014 3340 
5843 2876 3455 2929 4700 5734 3618 5815 5231 
5073 141 2171 3152 695 295 139 688 395 
1588 795 322 162 1809 627 4222 1283 1434 
1828 859 4207 574 2246 402 757 1142 356 
182 459 2647 213 2514 1397 811 163 858 
1411 1878 382 2535 1993 3302 1150 641 2209 
2269 2482 1850 887 3171 3292 1292 2240 3922 
1545 3109 3507 126 806 2085 1642 2167 3892 
958 457 819 515 175 1108 931 1275 1770 
220 1151 7 1024 1399 312 335 726 892 
410 756 1913 1331 994 165 481 932 16 
1387 93 1293 1080 173 272 1044 387 180 
2156 1111 1348 1036 1385 350 23 354 1337 
1466 1311 895 118 1438 1166 489 1376 1566 
229 261 1731 1366 1437 286 518 956 1472 
85 1326 1384 339 1372 2210 1567 1325 1837 
1344 755 1864 928 1856 922 2248 1558 310 
1599 252 1613 863 613 1186 205 341 634 
770 153 1506 676 411 524 1479 2045 2083 
1085 771 1787 852 138 906 1086 1851 471 
1051 1786 567 788 496 791 1889 649 1695 
527 1519 698 355 1565 916 1417 1097 1059 
838 409 1618 280 1842 1544 1354 1137 1450 
27 185 1881 1148 70 1499 2429 665 1474 
2088 1623 476 405 1262 766 1029 194 1379 
2145 836 950 1079 882 705 1589 940 601 
2052 1700 1795 2106 964 1135 1189 1368 1654 
42 473 1501 1925 699 512 113 3121 746 
1537 1 1539 452 1494 2601 342 768 62 
844 2282 1259 1624 1308 54 1394 730 560 
1713 548 1601 1090 787 475 2711 902 1591 
1287 251 1919 365 1520 1985 125 1996 1757 
1512 1629 3011 577 2008 1595 1297 2582 1790 
1002 1858 2108 862 1803 1200 648 610 1451 
78 1374 1406 531 1263 1240 675 767 147 
106 80 1172 486 1509 3536 3150 2588 633 
77 729 2751 870 937 1819 985 288 893 
2400 1489 759 926 967 1190 555 1979 554 
984 1010 1756 262 899 1284 1375 736 745 
1987 1812 1604 1298 1279 2087 2785 2286 1835 
1721 2634 1361 2589 2303 827 2289 1277 5776 
2898 2221 1977 2810 4949 1296 3190 3199 3997 
5324 4335 5957 4965 6064 5901 5709 4887 5018 
4191 5082 5966 5464 5805 5987 3730 5779 5677 
4421 6017 6058 4720 5472 1823 3792 4909 5141 
5229 5799 4976 5794 4679 6031 5788 5663 4310 
5292 5722 5356 5538 4674 4728 4459 3176 5576 
5554 5266 5900 5208 3648 5737 5635 5105 5199 
4807 5239 3258 5804 3696 4651 5846 5569 4959 
6028 5744 4776 5429 5326 5256 4834 5821 5135 
5670 4920 4343 4073 5568 2802 3191 2104 3838 
5938 4019 5910 2625 5430 5047 2179 5563 2847 
5994 4408 3642 4848 5027 1454 1957 3894 3078 
1187 5432 3822 5178 5474 3045 5252 6038 3477 
1923 761 2551 5196 3193 4319 5728 5029 5150 
4534 2569 4757 3462 3623 5420 4028 3160 3348 
4522 2518 6006 5877 4203 4105 4758 3926 5494 
5565 5592 5163 5310 5342 4278 5154 5839 3108 
1717 1290 2532 1989 3259 2098 845 849 2307 
3652 2500 1420 813 3401 2504 116 668 2954 
2492 929 2262 400 2117 2249 2152 377 2094 
2516 2405 1627 1761 2828 1541 1773 2177 2621 
1678 936 2043 1871 3736 2463 2761 2666 2703 
2677 3053 2553 3578 1315 1665 1650 2604 4178 
1206 2626 2128 3021 4696 3179 3970 3050 1687 
1830 3335 2191 2438 3192 4400 4197 159 1427 
1066 626 853 1214 164 821 807 583 1796 
38 306 1269 880 1547 528 1412 1109 877 
659 1003 969 145 2132 316 2453 1281 861 
1706 420 467 1949 2202 28 1409 667 2772 
1876 170 1736 2127 2879 1983 338 2336 1929 
1230 2116 430 1402 324 2784 2183 2168 1622 
1335 2818 2353 1831 2063 1616 1505 136 742 
1924 2480 2140 1211 1019 281 1668 1192 660 
1408 1720 1050 1496 1582 1528 1614 1847 917 
2107 1748 157 798 1872 1959 149 1094 31 
1341 1952 2904 645 1691 915 963 1710 2449 
2573 1653 1897 1895 2055 1423 2465 1818 945 
1735 1204 900 2100 1497 503 2624 1160 2162 
592 1419 1306 1257 2398 3154 2137 2629 2172 
1974 972 536 121 1969 1688 1712 2205 3088 
3520 3386 4007 3353 1724 1861 2239 1887 1483 
1046 1752 29 1191 1926 1101 3234 1216 2165 
1846 361 236 1573 1967 2324 2038 2219 2197 
1340 2752 22 2687 2471 1891 1646 2138 1693 
1893 2263 3943 1533 1433 1503 2120 53 1033 
747 3400 1708 1071 2526 2206 3114 2070 3046 
1470 3342 2510 4221 2679 4453 4480 3180 5743 
2527 2047 3942 2672 4372 2779 644 4708 5104 
3041 2893 3496 3369 3722 4571 5604 5571 4367 
5976 5359 4659 4201 4209 5339 5143 4277 6000 
5271 4461 5466 4557 3881 5002 5398 5515 4900 
5999 5419 4727 4850 5758 4152 5537 5040 4129 
5919 4428 5622 4894 5685 6026 4769 5549 5638 
5608 4037 6068 5714 6048 5701 4860 2941 4616 
6003 5847 4525 5138 5719 3388 5741 4417 5660 
4157 4675 5235 4991 5967 4299 5046 6007 5527 
6024 5836 6065 5100 4110 5923 5335 5424 5288 
4150 5213 4851 5389 5520 3219 5521 5535 5435 
5939 4938 5724 4677 5674 5932 4617 4833 5870 
5177 5803 4972 5813 4719 5308 6040 6022 5470 
4997 6023 5189 5409 6053 5590 5028 5669 4365 
5845 4977 5090 5745 5806 5587 5627 5984 5223 
5400 4014 3064 2735 2351 2430 2335 3836 2912 
5394 4118 5619 2995 3960 5612 5311 3186 3649 
4917 4610 4910 5301 4924 3603 3681 4172 4167 
2146 3424 4413 3279 3819 3740 5585 5158 4598 
4602 4901 2064 3731 5099 3249 5405 4726 4546 
4939 4711 4656 2724 4389 5647 4665 4759 3963 
4049 5523 4661 3826 4338 4186 4017 4986 3865 
2603 4232 5550 4575 4021 4954 5471 4261 2684 
621 1728 107 3225 1453 2867 2486 1600 4514 
2281 3863 2501 1782 3862 2099 2789 2223 1661 
75 3373 470 2714 4100 1915 2300 2632 2242 
1916 3660 3151 2947 4188 3572 3084 3127 3539 
2933 4531 3563 2373 2325 2760 4436 3047 3709 
4268 2899 2950 3347 3504 3430 2812 3393 4692 
4486 2798 4127 3898 2374 2476 4599 2562 4211 
4016 3361 575 96 612 1524 363 1883 1068 
2880 2029 291 2851 839 1556 2522 1383 1875 
2865 2433 1734 2074 2103 890 3134 3141 3626 
2866 3227 881 2548 2109 2056 2831 1758 1780 
3725 2484 1769 2649 3771 4006 2409 3905 2158 
2121 3471 3220 1418 3431 1885 3343 4130 3355 
3446 3885 2265 2538 2787 2925 4424 2421 2902 
3659 3354 3549 1182 1656 480 600 506 109 
2112 24 1834 1014 907 2478 2080 2915 1583 
1403 875 1446 2375 2306 2228 2494 2071 1649 
1981 1467 421 3019 3521 2652 2499 2347 3893 
3003 2126 1771 2746 2718 1218 2615 3380 3379 
5262 1762 3237 3072 1806 5993 5975 4368 4101 
5869 5118 4895 5600 5630 5816 4950 5236 5886 
5861 4214 6050 5699 5351 5736 4907 5460 5713 
5403 5792 5522 4852 5730 5707 3778 5241 6051 
5206 5712 5245 5458 5075 5731 5383 5948 6049 
4346 5469 5875 4846 4585 5410 5015 5207 3981 
5491 4063 5844 243 6020 5381 5414 5767 3101 
4058 5514 4723 6018 5828 4874 5818 5998 4489 
5667 5110 5449 5896 4407 4330 4369 5300 5763 
5624 5222 5762 5140 5168 5879 4701 6045 5166 
4821 5379 4812 3936 3542 4698 4383 5322 5355 
5345 5927 5782 4837 5764 3022 4323 4147 2524 
2993 91 3672 5006 4076 4070 3566 3043 3957 
3766 1073 2018 2661 3122 3655 3635 4937 3604 
3945 2284 3437 3576 4494 3845 4580 3812 4145 
3811 2699 4582 4657 3537 5307 5013 1115 4158 
5369 4523 5142 4405 6055 4120 4012 5925 4653 
4318 3449 5785 4605 1156 41 2296 2640 2633 
830 112 2164 2379 2596 4463 2436 2050 2786 
2354 2004 780 1185 328 2729 3434 1984 2381 
3106 3051 2585 4313 3799 3469 3859 2657 1742 
3614 2110 4314 3274 3567 4048 3787 3009 3716 
3791 3543 4234 3775 4597 2644 1057 2721 1513 
2345 913 370 2185 3550 1078 3638 2680 2491 
1482 2411 3016 2023 1905 1954 5232 1805 3794 
2951 5443 1863 2203 2622 3930 4457 2988 2942 
2801 4832 3931 3482 3165 2938 3737 4479 4790 
4745 1829 2022 905 1844 2091 1382 2431 1597 
1859 1355 1684 60 2389 1953 3129 4533 1865 
2250 2987 1316 2940 662 1590 2906 2614 2148 
2189 2059 1514 3944 3988 1997 1570 4412 3693 
5350 5559 128 4066 1778 5117 3548 4958 4886 
3596 4517 3835 3733 5689 5662 3172 3486 5841 
5375 4648 6063 4840 1686 2937 1660 4760 3017 
3270 3977 3123 2918 3588 3824 5399 2594 1536 
2144 2697 1854 374 1215 2016 1909 2513 3322 
1628 2332 2378 2663 1759 4647 1888 2096 3735 
589 1432 2237 5194 2962 2725 2348 4591 3002 
3020 3784 2541 4361 4385 3281 962 4236 2568 
3290 2683 4829 3658 2781 5831 3694 2928 2998 
3102 2701 1657 3951 3338 1493 2450 2732 4254 
4983 2404 2872 4868 3979 2466 3773 4394 4694 
4173 3371 3289 2190 2475 5855 2556 3015 2999 
3464 3599 1636 2519 2890 2267 3897 2000 2919 
2031 4730 2748 1346 4090 2543 2474 4420 442 
3230 3155 2564 3676 2555 5658 5454 4025 5628 
2515 4169 2067 4601 5790 3133 4841 4918 2737 
2077 1874 3983 5164 4691 2217 2445 3010 4233 
3839 4882 4466 4283 1448 5881 4416 2485 3183 
4658 3251 3746 3222 4873 3429 4566 5341 1998 
4532 3148 4322 5749 2707 4715 3847 4035 4038 
3287 2744 2309 3800 1577 2212 1529 5373 1525 
2366 1767 739 5657 3785 5555 930 2014 2386 
2814 2730 3351 993 1960 3474 299 2765 2464 
3986 3677 4955 2037 1122 2195 4475 3485 2971 
4185 3328 2033 2581 2502 3005 2686 5074 2958 
2830 2337 4174 2843 3336 5108 4138 4002 2641 
5560 6056 2946 4204 1303 2057 694 1232 1321 
2260 203 1198 2452 1681 1900 2201 740 329 
661 2200 1802 1568 2350 247 2058 1345 1754 
1161 1648 2321 283 2609 2315 249 538 991 
1268 1990 2733 1587 2425 2610 1711 4050 643 
2333 4717 1912 609 2176 3426 2817 5912 2170 
2174 3667 3805 3357 2114 2635 5021 1551 3423 
1542 2259 5954 2495 2498 5121 1196 3559 4930 
2021 5463 3048 4184 653 1327 432 1134 1852 
1256 1210 1237 1775 2252 1922 697 1741 1488 
1471 3198 1973 1918 2862 1526 1853 2155 2229 
1082 2406 2025 1625 2419 1304 1227 886 2488 
1289 1430 2756 3075 1238 1364 982 2459 1676 
2559 2531 1245 2226 1444 2738 1324 3465 1637 
2320 3801 4934 1677 4224 5583 2909 2323 2178 
2314 3570 2068 1602 5956 5971 4857 2444 3085 
2576 5639 1745 3902 2790 3297 5407 2881 3331 
2561 2722 2270 2651 2773 4687 3444 4490 1749 
3529 1049 2505 1788 1487 2285 2678 3928 1270 
3472 2917 1578 3195 3878 1939 2963 3708 2139 
3666 3358 2628 4673 3025 1560 3291 5636 4520 
3769 5302 3613 3207 3782 2891 3067 2819 3627 
4143 4381 3314 3886 5091 3846 1522 2860 2719 
4244 2715 3156 1140 3551 4469 3992 5043 3268 
2273 5750 4824 3311 4458 2691 2451 4830 3263 
4802 1195 5069 3685 4069 3315 3461 3966 2035 
3060 2970 4655 3232 4287 3908 5385 2461 4135 
4718 3622 4881 2645 5533 2225 4914 2304 3887 
1675 3703 2777 5978 5769 4478 3087 5943 4223 
4134 3947 4095 3579 2816 3888 2394 5866 4839 
5220 2310 3620 3233 3196 3938 3501 5004 5173 
2135 4768 5309 5257 4963 4573 3980 3950 3818 
3901 3416 4593 3753 4376 4764 4670 4418 5323 
5809 5086 2371 4921 3278 2981 2671 3820 5438 
2805 5602 5711 5561 5705 1975 3849 1970 3194 
4284 2181 4818 2774 4247 5524 5364 4298 3829 
5495 3807 4904 3711 3145 5509 3320 2558 5865 
3586 1328 4425 1124 4156 1461 1898 1899 2754 
4386 2807 2258 3031 1817 3362 1791 3099 3074 
3553 2277 1855 3059 1598 1631 1933 2275 2302 
2840 1546 2193 4111 1781 3489 2327 3326 3004 
2743 2755 2403 4243 3175 883 2467 3789 5673 
3630 4153 2695 5182 5753 2766 5186 3547 6062 
4588 4291 3554 5205 4384 677 319 898 1666 
1178 1663 1267 2956 2017 484 1244 1163 1765 
1114 1639 2768 2360 1783 2577 997 1209 1659 
2401 1183 1305 1743 1465 1271 1815 2048 1955 
1282 2521 1171 2001 2151 1774 3205 1061 2283 
1934 2392 2627 2932 2060 3715 4613 2895 2692 
4491 3143 2066 2675 2196 3310 5218 3012 3761 
5894 2427 1699 403 2153 1055 977 2298 1456 
843 2483 933 1393 2567 2255 1294 2084 1760 
1359 4504 1415 1862 831 2254 1062 1088 2331 
1824 1794 413 1776 1606 1634 1845 2024 2365 
2557 1961 1129 1252 2547 1353 2441 1946 1903 
2367 1697 2032 1165 1880 1956 2095 2377 4836 
3269 2412 2580 1667 1236 2670 2771 2251 2182 
2517 2266 2507 1559 2584 3367 1669 4327 5973 
2523 2883 2027 2552 2512 3159 3028 2124 3384 
2623 3556 4364 2892 2600 1694 2346 2343 1894 
2352 1276 2230 2782 2460 3420 1826 1839 2528 
1302 1911 2388 1516 2161 3360 2574 2187 2357 
3831 3688 2479 1798 4415 3044 2700 2086 2079 
1902 2868 2706 3641 3105 4180 1873 1709 1358 
3228 3256 2709 4507 1740 2983 3867 3935 2359 
3396 5922 2044 3200 5609 4354 3130 3668 5540 
4193 4620 4141 3687 4262 2599 4033 4289 1882 
3096 5406 5706 2809 3390 3488 2591 2739 5611 
4161 3070 4495 2825 2322 2855 1431 1607 625 
4450 3917 4377 3698 1320 1469 5325 5269 4637 
3612 4280 2878 5380 2986 4250 3518 3732 5146 
2704 1351 4577 4516 3505 4707 2698 4286 4866 
3739 4216 2783 4884 3953 3403 5477 4097 2927 
6025 4564 5814 5606 4126 5078 3244 4414 5134 
5832 4538 3178 4257 5270 3883 4961 4370 5446 
6052 5125 5675 5656 5605 4801 5631 5116 5578 
4360 5377 5986 5725 5296 4177 5761 5081 5442 
4782 5607 5911 5860 4799 5511 4854 5095 4820 
5065 6015 4897 4212 4979 5644 5716 5584 3856 
4339 4125 5950 5777 4008 4391 4944 3868 5488 
4935 4515 5829 3097 2884 4527 4729 4015 3989 
3914 4195 3341 5887 5221 5240 4652 3519 3173 
4189 3405 4996 5752 4071 5603 5129 5995 6009 
3971 5080 5878 4595 5475 4862 5858 5856 4003 
3870 3238 3903 4452 4664 4226 5625 5918 5791 
4902 5543 4500 4612 5909 4761 4604 5123 4266 
2952 6029 5551 5137 3394 6060 3745 4274 4326 
3965 5678 4660 4237 3625 3940 4088 4324 4638 
4855 4181 3816 4962 3723 3958 1521 5811 3162 
3212 4131 3040 5530 5890 5085 6059 2257 2911 
4592 2968 4164 2218 3975 2631 2619 4872 2390 
1755 1972 2723 3300 2861 3645 3076 3598 2770 
3181 2889 2414 2496 4256 3802 3605 3375 4252 
3407 4814 3414 2948 3135 2949 5387 3680 2586 
2926 3815 4093 2326 3574 3817 2859 3136 2415 
5008 2397 4382 5889 4556 3702 5921 4202 4540 
3533 4826 4916 5372 4741 4084 6035 3748 5107 
5357 5388 1722 1702 2815 2408 2312 2019 2976 
748 2613 2797 3285 2440 2587 3419 1910 2896 
2090 3209 3848 1626 1857 2292 2849 1641 2967 
1727 2383 2845 3333 2550 2864 3790 4106 1825 