# vtk DataFile Version 4.2
Generated by LIGGGHTS
ASCII
DATASET POLYDATA
POINTS 5999 float
-0.0174986 -0.0414363 0.0119233 -0.0137176 -0.0427662 0.0120762 -0.00974237 -0.0432117 0.0122016 
-0.00203387 -0.0439302 0.0121595 -0.00597505 -0.0446127 0.0122126 -0.00655077 -0.0406596 0.0125563 
-0.00269636 -0.0402871 0.0137149 0.00908083 -0.044064 0.0119955 0.00216696 -0.0403362 0.012242 
0.00183798 -0.0449469 0.0120697 0.00526233 -0.0428839 0.012199 0.0152345 -0.041005 0.0120047 
0.0124951 -0.0432232 0.0139023 -0.0308046 -0.0326549 0.0122351 -0.0246122 -0.0334347 0.012002 
-0.0211128 -0.0396701 0.0120221 -0.0211539 -0.0354533 0.0119562 -0.0245585 -0.0376416 0.0130462 
-0.0211738 -0.0314662 0.0126536 -0.0278394 -0.0353401 0.013461 -0.011103 -0.0394514 0.0119533 
-0.0175994 -0.0374329 0.0120097 -0.0140209 -0.0350467 0.0121287 -0.0138804 -0.031053 0.0123867 
-0.0101817 -0.0332504 0.0120117 -0.0176863 -0.0334434 0.0123239 -0.0143539 -0.0385688 0.0141406 
-0.00607912 -0.0309781 0.0120715 -0.00794775 -0.0369297 0.0120062 -0.00210442 -0.0304931 0.0121291 
-0.00046575 -0.0373024 0.0121834 -0.00341705 -0.0341173 0.0132044 0.00698058 -0.0392707 0.0121507 
0.00763748 -0.0353083 0.0121485 0.00366409 -0.0364272 0.0121574 0.00868539 -0.0314457 0.0121523 
0.00471654 -0.0325564 0.0121706 0.000504665 -0.0334578 0.0127677 0.010967 -0.0386648 0.0120026 
0.0186516 -0.0389261 0.0121285 0.0146663 -0.0369747 0.0120727 0.0171077 -0.0310902 0.0120728 
0.0131191 -0.0305716 0.0122519 0.0115834 -0.034298 0.0121733 0.0182338 -0.0349332 0.0123575 
0.0149568 -0.0336264 0.0143067 0.0222752 -0.0349156 0.012073 0.0211657 -0.0310055 0.0120726 
0.0250637 -0.0320158 0.0121792 0.025964 -0.0366182 0.0122204 0.029184 -0.0341173 0.0122676 
0.0285371 -0.0300218 0.0122531 0.0226455 -0.0388951 0.0124464 0.032059 -0.0315579 0.0133741 
-0.0398553 -0.0208836 0.0121849 -0.0326402 -0.0289697 0.011949 -0.0302575 -0.0255574 0.0118135 
-0.036089 -0.0268456 0.0121369 -0.0327263 -0.0215743 0.0123421 -0.0365161 -0.0229575 0.0129766 
-0.0285828 -0.0292122 0.0121198 -0.0287353 -0.0217909 0.0120412 -0.0210743 -0.0274953 0.012168 
-0.0245899 -0.0294087 0.0123294 -0.0248205 -0.0209232 0.0121362 -0.021792 -0.0235434 0.0120687 
-0.0253254 -0.0254748 0.0122371 -0.0185248 -0.0211905 0.0121405 -0.0143117 -0.0270882 0.0120585 
-0.0178068 -0.0251256 0.0122009 -0.0110715 -0.0247034 0.0121162 -0.017559 -0.0294422 0.0122774 
-0.014611 -0.0222952 0.0123833 -0.0108035 -0.0205242 0.0122893 -0.00868265 -0.027926 0.0121315 
-0.00394778 -0.0235314 0.0121535 -1.59468e-05 -0.0227643 0.0121263 -0.00677573 -0.0206603 0.0122479 
-0.00102632 -0.0266381 0.0121459 -0.00484644 -0.0273144 0.0131302 -0.00745568 -0.0242167 0.0139517 
0.00391069 -0.0219902 0.0121326 0.00576182 -0.0286868 0.0122303 0.00675805 -0.0248063 0.0121605 
0.00290173 -0.0258678 0.0121334 0.00185241 -0.0297335 0.0121485 0.0096595 -0.0275625 0.0123476 
0.0137437 -0.0254467 0.0122556 0.0173879 -0.0270928 0.012145 0.0172147 -0.022909 0.0121769 
0.0134865 -0.0214494 0.0122662 0.0103645 -0.0236574 0.0134604 0.0200209 -0.020059 0.0121139 
0.0207279 -0.0248917 0.0122639 0.0246119 -0.0238746 0.0121333 0.0236142 -0.0277961 0.0121551 
0.027719 -0.0211099 0.0121824 0.0270947 -0.0265943 0.0137299 0.0381656 -0.0236351 0.0121928 
0.0341399 -0.0229931 0.012246 0.0359763 -0.0269754 0.0124598 0.0320426 -0.0276976 0.0122867 
0.0303165 -0.0241091 0.012718 -0.0432825 -0.0113705 0.0122051 -0.0421637 -0.0156304 0.0128857 
-0.0385096 -0.0171119 0.0122003 -0.0317567 -0.0143758 0.0121606 -0.030553 -0.0181976 0.0121065 
-0.0357631 -0.0141776 0.0120828 -0.0394944 -0.0127168 0.0122323 -0.0346003 -0.0180163 0.0121226 
-0.0335937 -0.0108145 0.0121927 -0.0242236 -0.0110946 0.0121841 -0.0233856 -0.0150047 0.0123299 
-0.0266403 -0.0173453 0.0122281 -0.0215505 -0.0185718 0.0122903 -0.0296542 -0.0101222 0.0121965 
-0.0274459 -0.0134378 0.0125757 -0.0157958 -0.0182605 0.0121003 -0.0119337 -0.0165009 0.0120886 
-0.0118967 -0.0124908 0.0121893 -0.0193473 -0.0152059 0.0122917 -0.0181761 -0.0113742 0.0125543 
-0.0154473 -0.0143026 0.0125626 -0.00264328 -0.0197376 0.0122283 -0.00421598 -0.0130621 0.0121558 
-0.00813445 -0.013879 0.0121397 -0.00543926 -0.0168704 0.012327 -0.00132061 -0.0159553 0.0125537 
-0.0006831 -0.0122038 0.0138281 0.00286095 -0.0128121 0.0120664 0.00594022 -0.0185387 0.0121732 
0.00989382 -0.0153854 0.0120735 0.00634848 -0.0108199 0.0120094 0.00128652 -0.0189693 0.0120825 
0.00984827 -0.0194901 0.0123403 0.00615585 -0.0147106 0.0133351 0.0181471 -0.0131599 0.0120079 
0.0131682 -0.0124041 0.0120003 0.013354 -0.0174537 0.0121363 0.0173334 -0.0170885 0.0123485 
0.0159556 -0.0107438 0.0143398 0.0275124 -0.013091 0.0120744 0.0231717 -0.0124019 0.0120595 
0.0211349 -0.0158645 0.0121263 0.0288205 -0.0171528 0.0121787 0.024024 -0.0195758 0.0123791 
0.0249063 -0.0158278 0.0134643 0.0201811 -0.0105688 0.0142826 0.0366982 -0.0199166 0.0123315 
0.032011 -0.0195886 0.0123378 0.0313897 -0.0140849 0.0121429 0.0355745 -0.0130858 0.0122133 
0.0382593 -0.0160561 0.0122251 0.0393869 -0.01154 0.0124202 0.032902 -0.0103243 0.0133273 
0.0345651 -0.016774 0.0135958 0.0435754 -0.0111608 0.01209 0.0422281 -0.0153822 0.0121105 
0.0406486 -0.019262 0.0123583 -0.0410033 -0.00777324 0.0122487 -0.0407555 -0.00376445 0.0121378 
-0.0445913 -0.00600714 0.0124381 -0.0445651 -0.00198335 0.0122977 -0.037077 -0.00535623 0.0121433 
-0.0322677 -0.00234673 0.0122251 -0.0323791 -0.00698435 0.0123546 -0.0373214 -0.00935039 0.0123258 
-0.0372259 -0.0002722 0.0121492 -0.0278555 -0.00267333 0.0121307 -0.0223869 -0.00465279 0.01213 
-0.0276017 -0.00668226 0.0121802 -0.0207831 -0.00834592 0.0122421 -0.0242267 -0.00759616 0.0141362 
-0.010574 -0.00871137 0.0121305 -0.0189217 -0.00264644 0.0121656 -0.0173113 -0.00635709 0.0121334 
-0.014523 -0.00940124 0.0121398 -0.0112271 -0.000607304 0.0122222 -0.0131336 -0.00563495 0.0122195 
-0.0149653 -0.00208544 0.0124695 -0.00677083 -0.0099747 0.012057 -0.00283336 -0.0092531 0.0120733 
-0.00553579 -0.00608497 0.0120546 -0.00350605 -0.00261147 0.012061 -0.000883105 -0.00561759 0.0123997 
-0.00735727 -0.00158204 0.0125681 -0.00927322 -0.00505373 0.0130979 0.00311508 -0.00557759 0.0120705 
0.00703602 -0.00686915 0.0119728 0.00121386 -0.00912976 0.0120286 0.00107898 -0.00213247 0.012182 
0.00943754 -0.00157587 0.0139144 0.00593339 -0.00351403 0.0140281 0.0101342 -0.00950365 0.0120405 
0.0139134 -0.00806945 0.0119404 0.0108034 -0.00550898 0.0119241 0.0184725 -0.00412459 0.0121359 
0.0144712 -0.00388524 0.0120807 0.0179198 -0.00808893 0.0120716 0.0127996 -0.000246959 0.012194 
0.0167255 -0.000573337 0.0128902 0.0281089 -0.00527028 0.012263 0.0249345 -0.00882306 0.0123911 
0.025463 -0.0013857 0.0123295 0.0289026 -0.0093369 0.0122643 0.0215969 -0.00662228 0.0126504 
0.0318634 -0.00664764 0.0121414 0.0349324 -0.00407879 0.0121338 0.0372291 -0.00797191 0.0121418 
0.0377449 -0.00121105 0.012136 0.0311705 -0.00268994 0.0122276 0.0449372 -0.00169276 0.0124738 
0.0411387 -0.00370602 0.0124281 0.0412212 -0.00792036 0.0124517 0.0445585 -0.00572937 0.012997 
-0.0412196 0.000210063 0.0124367 -0.0445488 0.00602496 0.0123335 -0.0448046 0.0020188 0.0123452 
-0.041067 0.00412137 0.013283 -0.043856 0.00996782 0.0122362 -0.0380313 0.00764072 0.0121751 
-0.0337144 0.0016951 0.0122829 -0.0371623 0.00373398 0.0122736 -0.0336438 0.00571112 0.012367 
-0.0345783 0.00967401 0.0122158 -0.0243071 0.000131968 0.0118608 -0.0204433 0.00116824 0.0121067 
-0.0298133 0.000817568 0.0121303 -0.0209864 0.00514082 0.0122727 -0.0225583 0.00887192 0.0121892 
-0.0249909 0.00518622 0.012154 -0.0283891 0.00859288 0.0123967 -0.0297011 0.00480663 0.0124423 
-0.0149261 0.00192598 0.0121832 -0.0169429 0.00549481 0.0120719 -0.0185256 0.00921774 0.0122165 
-0.0129267 0.00542502 0.0124731 -0.0123581 0.00984744 0.0123208 -0.0052202 0.00634433 0.012281 
-0.00145297 0.00500996 0.0120944 -0.009602 0.0032 0.0121618 -0.00574798 0.00205947 0.0120599 
-0.0093402 0.0072099 0.0123688 -0.00178821 0.0010345 0.0124056 -1.38427e-05 0.00878208 0.0121137 
0.00625744 0.00428692 0.0121183 0.00712964 0.00819072 0.0121585 0.00233319 0.00167033 0.0122733 
0.0024991 0.00566962 0.0121295 0.00964198 0.00218969 0.0125364 0.0060551 0.000373007 0.0130237 
0.0183328 0.00302435 0.0121541 0.0183373 0.00703404 0.0123457 0.0145331 0.00827784 0.0122663 
0.0114396 0.00573997 0.0121316 0.0108061 0.00962796 0.0128264 0.0144622 0.00332091 0.0131603 
0.0289455 0.000633969 0.0121949 0.0219817 0.000615993 0.0121461 0.0254299 0.00668707 0.0121288 
0.0254717 0.00262046 0.0121782 0.021964 0.00872996 0.0122469 0.0220037 0.0046205 0.0121775 
0.028966 0.00463449 0.0122852 0.0287075 0.00847357 0.0135857 0.033973 0.000164315 0.0122017 
0.0323863 0.00751829 0.0123065 0.0380618 0.00293382 0.0121359 0.036409 0.00658601 0.0122086 
0.0337046 0.00392755 0.0135399 0.0414622 0.000280363 0.0121786 0.0447565 0.00279654 0.0121226 
0.0444378 0.00680558 0.0122053 0.0404654 0.00687317 0.0127319 -0.0427619 0.013845 0.0122142 
-0.0415028 0.0173892 0.0135771 -0.0322386 0.01292 0.0122687 -0.0362372 0.0133268 0.0122471 
-0.0396934 0.0112794 0.0121896 -0.0377665 0.0170435 0.0121665 -0.0338489 0.0166353 0.0130295 
-0.029888 0.0162726 0.0124671 -0.0258775 0.0160842 0.0122349 -0.0277654 0.0125395 0.0121842 
-0.0218456 0.0163863 0.012307 -0.0236015 0.0127913 0.0122676 -0.027727 0.0196555 0.0122953 
-0.0236466 0.0199595 0.0122582 -0.0200568 0.0195248 0.0140527 -0.015075 0.0196055 0.0122517 
-0.0156959 0.0120712 0.0122012 -0.0178601 0.0167209 0.0122302 -0.0139768 0.0157578 0.0122233 
-0.0111859 0.0186196 0.0123702 -0.0195496 0.0131171 0.0126288 -0.0107017 0.0135 0.0126443 
-0.00376644 0.0101671 0.0122787 -0.000672446 0.0127286 0.0121791 -0.00771288 0.0108643 0.0122828 
-0.00266906 0.018052 0.0123029 -0.0078932 0.0163497 0.0125562 -0.00460164 0.0140577 0.0127751 
-0.00619346 0.0199667 0.0123155 0.00370174 0.0101215 0.0128875 0.000968156 0.0163803 0.0121618 
0.00420193 0.0140118 0.0121024 0.00397534 0.0190196 0.0121694 0.00775716 0.0121783 0.0120457 
[...]
POINT_DATA 5999
FIELD FieldData 7
id 1 5999 int
544 514 482 333 144 828 27 1092 589 
856 1037 307 901 1045 120 862 97 924 
520 598 107 52 135 379 228 145 551 
263 53 1095 158 426 408 336 476 706 
501 1008 203 230 246 992 364 41 404 
777 247 608 46 245 760 397 690 154 
1316 966 115 557 274 440 434 1019 378 
874 344 816 623 294 669 946 11 63 
724 502 704 546 174 1015 424 199 1166 
504 952 469 684 776 365 276 114 8 
149 758 396 1042 310 614 876 54 516 
210 509 401 112 861 136 348 57 1107 
437 349 787 659 360 281 131 550 163 
650 311 664 374 84 345 487 296 429 
99 113 42 815 205 616 168 66 1126 
293 1338 1144 1494 317 875 353 117 848 
39 1077 630 256 1083 350 528 461 231 
962 1035 788 523 142 86 423 372 1214 
1262 853 1503 802 686 417 134 1096 20 
783 126 72 731 447 1071 485 1269 354 
906 175 221 821 58 584 612 1101 903 
1105 931 342 445 543 441 427 1481 627 
1486 489 1027 710 967 1142 322 784 900 
410 73 393 421 1161 48 1032 458 108 
914 241 418 367 88 604 292 1014 105 
673 558 813 12 857 224 766 755 781 
5 16 463 23 971 352 1254 1128 998 
594 77 229 206 346 78 563 1277 1460 
170 763 1106 886 273 193 305 498 734 
384 560 375 517 127 935 432 1478 81 
286 128 320 473 712 380 1197 313 1613 
1073 155 341 182 847 586 745 1066 954 
288 949 1072 387 1024 535 657 214 915 
592 836 165 394 244 298 556 334 436 
287 519 868 691 631 640 191 721 996 
64 260 98 671 579 79 225 80 3 
1040 266 576 910 337 356 75 159 944 
524 361 197 522 103 347 316 1124 21 
212 104 1016 1097 736 1220 146 660 388 
715 91 839 425 880 1745 926 160 76 
521 181 290 121 152 332 628 28 406 
569 177 478 1103 748 235 312 1611 929 
428 1368 116 226 227 928 1899 1084 705 
220 255 582 851 96 304 513 1725 1134 
118 409 629 1703 133 204 1484 259 642 
299 264 45 636 15 6 140 1117 529 
289 173 213 769 916 507 327 129 475 
1025 899 141 497 207 111 904 395 530 
701 422 268 217 1489 477 215 124 474 
532 162 909 735 1790 414 454 161 625 
780 218 866 40 1461 328 882 2618 1 
877 18 455 250 122 885 1323 67 995 
1765 178 26 1386 495 1119 430 1350 531 
864 19 1213 411 1433 1044 505 200 1171 
680 100 1270 254 390 1098 282 1477 997 
1392 969 797 450 271 407 1506 1328 153 
1575 1164 1828 1995 1620 647 1861 795 566 
1326 2364 1079 2621 257 242 515 194 209 
10 1286 981 1650 452 1289 1834 1299 1589 
65 1846 1774 1882 1602 1705 773 138 185 
596 400 1690 83 892 233 1446 1232 2165 
665 772 1999 1498 883 1878 1718 567 1033 
338 109 391 1067 1632 907 696 1580 707 
1471 1677 852 1688 1411 1358 47 605 968 
1792 1387 1284 1434 1608 147 449 1850 1543 
1365 1421 1169 1251 340 1485 1678 512 285 
1280 675 580 443 764 750 1188 1013 323 
889 2027 662 1187 1341 1186 2416 687 33 
713 1005 94 1162 488 183 198 548 1563 
574 1416 493 1017 279 1275 1058 302 49 
402 1476 119 1043 953 2300 1463 1639 1836 
2042 744 2067 1785 1026 2781 2347 2145 464 
1028 1418 55 711 1640 818 1331 1242 1023 
1647 1605 1059 905 1843 1734 1768 1538 2150 
1943 371 1676 633 1285 1179 534 2285 1789 
1855 1159 2292 1944 1283 2065 1210 2092 1883 
2191 1654 918 641 102 392 937 2221 1754 
1697 943 1862 1074 1609 2109 938 1274 1550 
1170 1691 2345 844 1036 858 1176 1412 2136 
442 1330 1217 1191 1491 785 1406 69 1468 
872 2296 1182 1258 2161 1114 267 382 90 
779 248 22 689 643 617 652 471 800 
1652 1047 902 1962 1224 2053 1403 413 1057 
249 921 1327 2328 1178 1829 506 2776 223 
803 525 703 741 639 824 1064 1113 578 
1389 1398 319 961 1265 1592 2228 1680 68 
125 1537 533 1325 243 668 854 1407 1683 
963 977 1345 2129 1561 1844 106 1354 1955 
2066 2557 674 1623 1208 1448 1722 697 1055 
7 1672 9 832 2047 1749 1594 655 1687 
2209 2113 2304 1562 190 951 201 964 808 
403 747 990 986 179 1525 1201 1555 888 
1597 1587 2093 1595 1814 38 718 1152 994 
1482 1404 1174 2128 1012 1684 1644 1572 1240 
1753 1701 2490 1076 1061 211 1203 980 1185 
622 833 1177 1497 1710 726 270 1377 1913 
1960 1628 1852 1413 1183 1979 1272 2091 635 
1288 291 859 819 1508 1931 240 1383 987 
1369 2312 1199 1223 1552 611 1256 806 1141 
2277 2301 123 1775 679 43 927 658 1319 
1132 834 518 2278 1243 1767 1347 1417 1811 
1308 1685 314 590 1180 739 754 1276 252 
805 1355 692 139 1372 1222 1324 749 894 
1948 653 2205 1397 1584 92 1123 399 615 
562 1212 1961 1118 1679 898 222 1329 1385 
1860 985 1250 1505 1215 1835 1359 1772 1233 
1830 826 654 202 767 613 1196 25 941 
1500 318 978 2014 2194 1318 863 2348 1268 
1333 884 619 496 1443 369 1231 1235 1310 
1429 881 2307 1548 1472 694 2299 581 1317 
1109 1127 1643 727 1130 1133 545 278 508 
1295 376 1618 1622 1099 1822 1315 1081 1536 
1374 661 351 1380 1513 1155 500 831 1586 
1140 1509 869 2104 575 1003 491 1839 1091 
1356 1263 2021 1479 1340 1588 2297 1088 1569 
830 695 1728 1876 1030 1366 1964 1125 479 
1529 483 2038 1809 1425 1049 865 1634 1838 
855 1692 537 1674 1202 1281 1845 1444 1181 
1630 893 1967 812 1279 1492 714 1348 2159 
2240 770 896 389 933 1120 1100 1145 1060 
1886 1982 1702 1493 1399 1925 2346 959 1332 
1921 2210 1629 842 751 137 1945 1041 1517 
1914 1391 1577 1935 1137 1573 1151 693 796 
1011 870 1557 1006 879 1624 2043 1104 2036 
2451 1516 1009 1334 24 756 511 1228 873 
1038 1221 1353 835 1122 2319 1719 1002 2200 
2037 2052 1940 1351 775 610 890 1744 867 
982 1111 983 1225 110 1842 1357 585 789 
2453 2024 2537 1352 607 330 702 499 920 
1567 1131 1928 1522 794 2362 1362 1158 2001 
2139 1804 1435 1252 1496 2379 462 667 682 
677 1512 1871 2018 1907 843 29 237 947 
1975 743 1615 1361 1455 1821 845 840 526 
280 1300 300 1395 355 1226 942 878 1480 
728 838 717 1260 1720 1787 1342 1541 2335 
1168 370 678 1238 309 587 792 1428 1320 
1148 570 1305 381 606 761 1518 1895 1750 
1593 297 719 189 362 1054 188 1089 565 
431 148 1707 555 1381 1046 814 1129 549 
1501 934 956 171 527 975 730 368 1010 
1796 1487 1139 1831 723 993 1445 253 31 
1306 1031 1063 2074 2264 2400 377 1426 564 
984 1778 503 1112 1977 1812 1291 187 1080 
1297 1149 1450 1673 1301 2651 2269 1524 295 
101 919 1294 1439 1576 922 632 2248 232 
817 366 1370 2237 2176 1110 742 716 265 
239 1018 1523 1090 167 1078 1459 1052 2279 
2242 1553 1499 1312 1675 2260 1910 303 827 
32 988 419 588 778 1344 700 1255 1449 
1884 1936 1826 1870 1556 1714 2398 2034 1997 
1419 331 1193 572 1086 70 1490 1430 1335 
737 1972 1879 459 733 1337 1462 1339 2012 
2133 1237 301 36 1020 746 1153 676 420 
453 2114 911 2452 1546 1721 1154 1664 82 
1766 180 326 216 541 974 1085 1150 1311 
979 930 484 164 809 87 315 1535 822 
1402 932 1743 553 568 646 283 186 955 
130 648 958 609 1321 1682 192 1976 1021 
940 708 2115 2148 1469 1082 1190 480 448 
626 238 765 561 554 1069 1271 405 74 
150 887 1236 358 1230 1115 2375 810 1583 
50 1400 1384 481 1207 1056 1963 656 573 
849 51 2 1135 13 740 1532 60 1566 
620 1984 1247 1029 1379 2152 1849 412 923 
600 891 1022 688 1343 841 1604 435 1560 
559 2010 2225 2318 2446 2134 2223 2750 2660 
1665 93 357 771 472 1346 439 925 1349 
1617 790 1726 1257 2406 71 1373 1551 1048 
2119 1760 62 1442 258 1394 1004 603 1367 
1819 1001 1897 774 325 1102 2051 470 1971 
2910 948 2155 957 1246 1248 791 618 683 
793 1309 1156 284 1540 681 1625 644 1510 
1934 1669 1314 2039 2203 1841 386 599 272 
35 277 251 725 1436 373 685 846 698 
1859 416 2158 456 2090 960 2272 1227 1670 
976 329 638 820 709 738 583 547 1695 
1582 752 1424 2035 1467 2219 1163 637 1565 
2410 799 95 571 1205 850 85 34 1273 
804 1267 363 1423 1261 17 2198 972 1121 
991 1655 151 1388 1959 1053 1136 306 61 
383 1165 1296 1875 169 2460 1873 1764 1172 
468 1867 1116 2629 2243 2032 339 275 89 
14 798 1298 1287 196 624 2055 2049 1534 
2764 308 1755 2030 1923 1932 2023 1571 2007 
1641 1160 1868 1410 1475 1303 4 2127 1795 
2284 2403 597 2211 973 166 811 1068 591 
649 184 1000 2146 486 1167 538 261 1631 
1514 1195 917 1610 1401 2474 438 321 324 
30 666 1504 1108 645 1651 1542 490 759 
1591 577 1724 176 1645 1627 651 1453 1050 
195 433 143 415 59 157 965 1249 466 
801 1336 1713 359 989 2110 1708 786 1752 
1307 1173 132 999 234 593 1147 1495 1266 
1530 908 1290 552 510 729 56 269 762 
156 670 1364 1239 1062 451 621 1209 542 
1816 1390 1980 2081 1922 2384 2327 1657 1211 
829 343 446 1189 768 1570 1143 1579 1856 
2690 1717 2680 2122 2843 2554 913 602 1245 
3284 2196 2641 2046 2257 2100 3086 3465 2999 
2528 2911 2938 3002 601 2289 1638 1259 1598 
3160 2845 3808 3564 2713 3155 3025 2254 2633 
2720 2686 1777 1278 2349 2508 2918 1957 1194 
2073 1564 1869 699 2195 782 2303 2247 1581 
2847 2102 2250 2512 492 2977 3540 2588 2464 
2275 1547 3348 2245 1603 2987 3013 2421 1783 
1661 2417 2963 2208 3098 2862 3529 2341 2851 
219 1649 2157 2527 2121 2612 2106 1590 2526 
1681 2084 1626 2098 2840 2968 3413 2433 3636 
2958 4100 3362 2031 1175 457 1488 1420 2003 
2825 1146 2351 2383 1800 2959 2833 2975 2761 
2506 3033 3256 3099 1614 3060 1533 2472 1906 
2455 2187 2624 2684 2418 2378 3174 2448 3271 
3095 3207 1519 1981 3008 2377 2075 2355 2932 
2517 2606 3464 2545 3215 2332 2871 3734 3187 
3650 2855 2295 1756 2735 2809 1952 2044 1937 
465 2560 2611 2689 2538 2675 1802 2806 2443 
1865 2669 2568 1949 2143 1733 1771 2391 2646 
2226 1382 2314 2493 1991 2601 2041 2135 1458 
3193 2645 2330 2239 2556 3469 2483 1633 2185 
1470 1779 2869 2008 2613 1746 3094 2746 3425 
3391 3411 3851 3111 1437 1696 2427 2305 1253 
2291 2812 2767 2396 3027 3297 3303 2516 3122 
3492 2795 1908 2470 970 1619 2009 3082 2661 
2532 2510 1983 1414 1727 1376 2276 2183 2368 
2486 2120 2498 3286 2673 3539 2505 1483 1456 
1919 1405 1953 1686 2511 2015 1978 2765 2953 
2468 3079 2048 1866 2402 3249 2824 2739 3553 
1780 1659 540 2408 1699 1693 2562 1989 2522 
2964 1716 3175 2423 2515 2338 2415 2280 3015 
2717 1954 2013 37 2329 2173 2298 2943 3024 
3124 1737 2105 2450 2025 1711 1817 1093 2271 
1378 2859 2639 2610 1184 2004 2743 1968 1858 
1607 2667 2061 2886 1065 2429 1887 1773 2491 
3451 2385 2359 3252 1700 2576 2389 2787 2829 
1848 2430 2779 2057 2142 2282 2177 722 3156 
2816 2668 2708 2363 3375 2387 3247 2858 2880 
2714 1794 2006 1662 3173 2151 2794 2399 1917 
2103 2674 2457 3072 1781 3338 2581 2728 807 
1408 2944 1636 2190 1988 2916 2182 2870 3040 
1942 3180 1881 1070 1966 939 1671 1668 2600 
1264 2804 2333 1889 2736 1763 2594 2666 2549 
1824 2050 2671 2111 2409 1840 3158 2846 2687 
2520 2432 3211 3690 2534 2519 3208 2652 1087 
2317 2179 2440 2071 2745 2420 1965 2005 1987 
2426 1642 1958 1663 1219 1198 2181 2709 2370 
2322 2361 1531 2565 1293 1905 1863 1658 2116 
3063 2083 2579 2202 3185 1893 2366 1730 2665 
1539 1924 1805 2935 3339 1896 2939 1667 3368 
3445 1759 1776 2774 2163 2141 1969 2688 2773 
3258 2206 2373 2082 3029 2482 1890 3250 1916 
3620 3548 2883 2548 1902 2796 1793 2712 1723 
2861 1431 2875 1807 3455 2772 2251 3039 2444 
3892 3150 1806 1363 1396 1993 1452 1736 1200 
1815 1994 1877 2678 2989 2407 2922 2478 1507 
2172 2577 1704 2392 1568 1051 2786 2521 1558 
2950 2207 3453 2741 2704 1216 1888 1454 1927 
2531 1637 2112 2130 2326 2595 2737 2573 2820 
3012 2676 3214 2863 2323 2536 2309 2481 1206 
2449 1694 2607 2215 2603 2357 2978 1786 1545 
3003 3189 2059 2405 2125 1985 1094 1447 2256 
1833 1920 2118 2699 2193 2192 2885 3569 3336 
2395 753 1832 2086 1732 1660 1689 1941 1900 
2220 2798 3257 1901 2749 2343 536 172 1813 
2466 1803 1653 2422 2770 2940 2814 2881 1616 
2290 3499 1735 1946 3149 3278 3506 2951 3633 
3757 860 2852 1440 1769 2488 3387 2232 1502 
2441 1885 1762 1990 2068 2473 2827 1938 2677 
3246 2572 3121 2899 2169 2941 2344 2653 1992 
1998 2258 1808 2154 871 2762 2026 2079 2077 
2439 2752 2424 2070 2647 2222 2504 2325 2306 
2716 2425 2140 1600 2546 945 1729 2356 1909 
1825 1739 1585 2564 2849 2476 2632 3574 3112 
2828 2589 2458 1599 1292 2094 2830 2630 2132 
2217 2657 2969 2164 2844 3071 3179 2738 3308 
2465 2393 1578 1521 1466 2124 2095 1432 2500 
1851 1820 2887 1039 2404 2204 1930 2865 2724 
2854 2313 3009 1304 1360 1648 1549 1646 2636 
2503 1798 1956 2442 2725 3196 2218 2249 3485 
2382 2620 2524 1911 1244 2459 1515 1933 2584 
1738 2638 1915 1621 2682 2316 3054 2802 3273 
3439 757 2072 1528 1761 1810 1797 2994 2253 
2431 2445 1874 2462 2017 2985 2934 2011 3505 
2615 3006 3390 3085 2604 2374 2785 1007 2839 
2414 1526 2529 1656 2701 2799 3053 2592 1706 
2342 1409 2587 3050 2789 2413 3700 2890 2471 
3489 3448 672 2367 2123 2386 2178 3047 2902 
2923 2352 2214 2274 1731 2436 1947 3234 2480 
2273 3337 3213 3373 2697 3087 1574 1218 2238 
1740 2759 2199 1465 1892 1204 2543 2108 1898 
2658 1747 950 2167 2287 2447 3105 1451 1799 
2213 2201 2016 2608 2961 2162 2908 2535 3403 
1302 1241 1970 1415 1229 2324 2336 2702 2888 
2230 2029 2649 2492 1894 3398 3463 2137 2753 
1918 2555 1854 2609 2156 1880 1075 2340 2456 
2175 2924 2321 236 2751 1872 2288 3277 2625 
2045 3304 2730 3756 2233 3494 539 1559 1511 
1666 1457 2076 2186 1527 1709 2281 2768 2261 
2982 2654 3251 2933 2153 2655 1847 3432 2437 
2679 1441 1138 2020 2019 2700 2962 2227 1827 
2598 1192 2212 1234 1427 1635 2898 1742 2495 
2744 3138 3070 2605 2734 2681 1748 2622 2265 
2626 2174 2331 2602 1818 2376 3307 2578 3980 
2097 2315 2715 3170 4228 2672 3546 2160 2837 
2283 2259 1853 3031 1939 2900 3017 2810 2547 
3232 2691 3280 3712 2841 2525 2469 3733 3190 
2635 2101 2022 1801 1596 2310 2397 2502 3045 
1864 3287 2729 2561 3274 2244 3225 2184 2496 
2062 3893 3745 634 2559 3010 2583 1912 2063 
2089 2494 2078 2727 2644 3153 3301 3219 3358 
3330 444 1375 2040 1712 1698 1473 2711 2590 
2580 2936 2822 2087 3202 2703 2882 2390 2949 
2311 1393 2000 2054 1322 1757 897 1601 2784 
2360 2957 3371 2627 3270 2748 3145 3116 3818 
2591 3367 2475 3248 494 2138 460 1544 2188 
2903 2381 2401 2988 1784 3292 2080 2663 3212 
2831 3397 2388 2380 2766 2876 2170 2064 2956 
1715 1474 2394 262 2670 2948 3372 2706 2631 
2171 2107 2945 3114 3747 2582 3034 1612 2434 
2234 1788 2236 1791 2513 2033 2942 3400 2872 
2270 2593 2563 3460 2294 3293 3081 3939 3937 
3357 2197 2180 2099 2411 2575 2586 2350 3201 
3171 3120 3266 3073 1758 2813 1903 2992 1926 
1034 3004 2758 3442 3752 3684 823 1891 1313 
2497 2302 1770 2229 2369 2692 3561 3341 2255 
3435 2650 3444 2085 1520 2793 2811 1422 1282 
825 2147 2523 2235 2412 2778 2585 2909 3406 
2144 2246 3401 2637 3268 3396 2479 1554 2060 
2662 2372 2126 2002 2501 3172 3738 2266 1951 
2542 1973 1823 2856 1837 2937 3176 2530 2574 
3591 3783 3410 2569 3162 2970 3487 3089 3538 
2514 335 2056 2131 2868 3630 2058 2775 2518 
2866 3255 3718 3580 3509 2069 3106 2685 3493 
2771 3288 2742 2836 3804 3282 4039 3142 3955 
3289 3713 2879 3722 3446 3279 2718 3792 4166 
3834 1996 3703 4216 2507 3056 3958 4464 3961 
3331 3902 2801 3235 2623 3845 3639 4200 2864 
4060 2634 4618 4497 3972 3607 4124 3404 3862 
2262 3471 3319 2096 3677 3822 2783 2891 3032 
3790 4129 3077 3148 3440 3058 3778 4422 3654 
3276 4358 4392 2435 3707 2308 3844 3334 3194 
3723 3405 3302 4149 3523 3632 3195 3985 3727 
3547 3670 2487 3315 3682 4002 3361 3472 2371 
3433 3913 3831 3763 4139 4326 4388 2955 3764 
4310 3349 3378 2930 3761 3165 3152 4248 3766 
3967 3379 4066 3618 4416 3735 4642 4072 4270 
4918 4738 4051 2499 2747 2467 2616 3768 3350 
4439 3623 4211 3894 3800 3675 2967 3711 4038 
3083 4375 3311 2553 4415 4086 2533 2339 2877 
1950 2596 3537 3048 3500 3437 3578 3708 3811 
3868 3717 3883 4456 4395 4451 4891 3125 2597 
3313 3847 2740 3067 2189 4279 2973 3478 4170 
4460 4188 3037 2929 4647 4255 2834 4389 3662 
3833 3450 2946 4637 4813 3715 4371 4420 4169 
4463 4664 3221 3920 2966 3325 2904 3449 2721 
3052 4000 3512 4480 3516 4632 3993 3264 4496 
4284 4567 3360 3346 2821 2628 2438 3186 4056 
3676 2832 3983 4521 4007 4705 4946 4775 4361 
4366 4136 4742 2808 2088 3078 3599 3041 3522 
2907 2842 3103 3188 3794 3907 3527 2980 4797 
3771 4093 4648 3699 2848 2659 3028 3721 2365 
3572 3769 3751 3226 3353 3898 4317 3714 3806 
4198 3412 3347 5425 3990 4161 4202 2216 3828 
3199 2896 3365 4113 2648 3096 3370 3534 4559 
4068 2976 3298 2777 4012 3674 2656 3238 3789 
2867 3774 3556 3528 4240 4444 4448 2805 2268 
3799 4089 3743 3477 3615 3476 3826 3753 3482 
3409 3754 3642 4065 4646 4001 3614 2231 2983 
3345 3309 3000 3169 3260 3594 3813 3462 3415 
3317 3518 3231 4403 4560 4130 3126 3005 2477 
2168 2696 3651 3388 2354 3931 3166 3399 3101 
4504 3634 3468 3242 3459 3963 3956 4175 2694 
2693 2838 2788 2984 2857 2927 3020 4259 3829 
3624 4019 3681 3773 3344 4205 4700 3376 3821 
2540 3772 3679 3143 3183 3457 3848 3402 3974 
4134 3640 3672 3323 3987 3204 4328 3944 4466 
2461 3090 2895 3616 3306 3418 3979 3244 3695 
2698 3730 3259 4525 3897 4291 3253 4387 3951 
3988 4127 3924 2732 3542 2241 3508 1741 2954 
3590 3504 2726 3825 4232 4253 3705 4120 3011 
4374 3861 4440 4870 4600 3167 2757 3181 3557 
3849 2769 2860 3392 3706 4545 3092 3474 3377 
4359 4242 3526 2286 3227 2558 4281 3655 3788 
4575 3881 2544 4075 3611 3921 4699 3571 4590 
2664 4833 4806 3001 2995 3100 3692 3427 4306 
3649 4597 4133 4046 4754 3886 3140 3466 4154 
3746 3157 3222 4103 3422 3973 3819 4084 4979 
4340 3596 3035 3890 2897 2915 2894 3767 3136 
3563 2993 3237 3236 3926 3191 4099 4031 3652 
3856 3275 4189 2263 2484 2683 3748 2819 3952 
3927 4125 2823 3108 4688 4184 3577 4872 3326 
3327 2567 2541 3941 2998 3545 2617 2914 3229 
2707 3638 3685 3644 4262 3598 3139 3698 3055 
4142 3129 2986 3066 3163 2293 3107 3428 3272 
3030 3837 3424 4753 3127 4506 4109 4061 3586 
2614 3097 3075 2947 2571 3925 3810 4237 4570 
3550 4295 3241 3104 4731 4937 2835 2539 3333 
3498 4454 3393 3408 3484 4112 3356 3786 3622 
3744 4105 3592 3473 3363 3316 3858 2780 3935 
2850 3762 4335 3588 3891 3200 3859 2419 3628 
3981 3877 3568 4233 4069 3324 4394 4207 4465 
4617 5247 5179 4443 4958 3694 3936 3023 3864 
3061 4402 4429 4349 3452 3888 2912 3530 3007 
2928 3230 3243 3558 3283 3044 4434 2722 3665 
3855 4128 3210 4156 3970 4438 3824 2733 3470 
3016 3084 2358 2756 3663 4217 2760 4114 3946 
4246 3332 3220 2570 2642 2552 2991 2971 3161 
2599 3796 3022 2807 3197 2965 3205 4024 3609 
3867 3502 3576 3443 4386 4008 1857 2990 2337 
2320 3109 3617 2815 2920 3501 4020 3613 3680 
3619 3128 4468 3689 3863 2931 3351 3602 3135 
3668 3948 2817 2926 2893 3601 3544 3130 3198 
4176 2974 4239 3184 3830 3144 4772 2919 3486 
2797 3164 3305 2972 4365 4165 3673 3117 4083 
3018 4531 4899 4315 3608 3687 4235 3380 3312 
4245 3666 3431 3582 3795 3088 4053 3776 3872 
4573 2979 2763 3429 3842 3177 2906 3560 3584 
3366 3014 3874 3552 2643 2853 4081 3686 4203 
3479 3850 4062 3513 3750 4369 3915 5001 4137 
3480 3093 3300 3702 3239 4309 3775 3359 2960 
3110 3575 4479 4614 4347 3996 3447 4183 3595 
2803 3827 3945 4193 4077 3991 3950 3816 3395 
4472 3805 3749 4311 4018 4811 3631 4352 4338 
3610 4206 5195 4685 4116 4097 2826 3719 4736 
3159 3779 4102 3600 4158 3589 4673 4017 3123 
3871 3419 3777 3835 2792 2428 3643 3653 3720 
3383 3541 3245 3593 3637 4231 4364 3739 4639 
4990 4080 3134 2723 2884 1974 3295 3491 2997 
2463 4187 4163 3233 3520 3043 3343 4090 2925 
3329 3314 3299 2889 3975 4425 3262 2334 3661 
4201 3019 4486 4256 3488 3852 4412 3168 4565 
3741 3760 1904 3074 3394 2353 3832 3533 4288 
3420 4320 3656 3514 3605 3218 4204 4033 2705 
3146 3151 3182 2224 3904 2754 3441 3068 3178 
3785 3900 3660 4058 4215 3554 3223 3042 3133 
4146 3999 3261 4199 4307 2731 3318 2800 3737 
3732 4252 4174 4250 3716 4219 4591 3865 3965 
3846 4258 3731 4272 3426 4791 3803 3224 4108 
3296 3968 3627 3930 3793 3629 3876 3051 4152 
2981 4047 5224 4598 4341 3693 4999 3740 4727 
2952 3065 2619 3559 2917 3626 3036 4551 3407 
2550 3878 4157 3962 4860 3369 3267 3436 3836 
2551 4041 3354 3969 3597 3917 3697 3291 4131 
3782 3064 2921 4073 3585 4042 2485 2874 3091 
3929 3216 4078 2719 3688 4234 4182 3725 3736 
3269 3901 3240 3531 4107 4055 3916 4192 3021 
3587 4589 3340 4377 4513 3678 3119 2892 3704 
3290 3352 3787 3519 3141 3389 3515 3382 3461 
3780 2901 3131 4238 3603 2913 3671 4625 5101 
3507 3495 3154 3454 3421 3132 4391 3798 3691 
3802 3658 4273 4717 3384 3062 3059 3562 2791 
3069 3521 4505 3321 3535 4336 4044 4274 3566 
4943 4602 3625 3869 4604 4094 3895 3263 4035 
3565 4194 3517 3342 3355 4578 3430 3322 4300 
4009 4023 4135 5232 4926 5133 3646 3823 2489 
3683 4096 3049 3192 2905 4118 4212 4316 3635 
4801 4428 4224 4040 3647 3203 3467 3843 3934 
4459 4087 3080 3503 2878 4292 3664 3942 3765 