# vtk DataFile Version 4.2
Generated by LIGGGHTS
ASCII
DATASET POLYDATA
POINTS 6000 float
-0.0149737 -0.0186576 0.0059978 -0.0133213 -0.0197858 0.00600032 -0.0129154 -0.0176455 0.00599915 
-0.0114951 -0.021025 0.00600083 -0.00977875 -0.0199579 0.00599918 -0.0165427 -0.0172223 0.00604783 
-0.00942107 -0.0219243 0.00600126 -0.00788994 -0.0206378 0.00599967 -0.00600009 -0.0214156 0.00599879 
-0.00383125 -0.0216152 0.00600322 -0.00511065 -0.0178673 0.00599875 -0.00311303 -0.0179108 0.00602276 
-0.00277529 -0.0198946 0.00599877 -0.00477371 -0.0198406 0.00604663 -0.00114497 -0.0171381 0.00599814 
-0.00755573 -0.0226674 0.0060109 -0.00341002 -0.0235936 0.00600565 -0.00141082 -0.0238344 0.00600014 
-0.000987104 -0.0207852 0.00599935 -0.000247829 -0.0189251 0.00600357 -0.00725809 -0.0169414 0.0059989 
0.000597304 -0.0238558 0.00599961 0.00236553 -0.0228247 0.00601067 0.00423721 -0.0235598 0.00600094 
0.00526721 -0.0198758 0.00600111 0.0057103 -0.0179246 0.00600001 0.00621883 -0.0230245 0.00600976 
0.00684204 -0.0211284 0.00603461 0.00124676 -0.0210905 0.00600822 0.00380082 -0.0185143 0.00599983 
0.00175297 -0.0190439 0.00600626 0.00320076 -0.0204237 0.00601509 0.000850885 -0.0172579 0.00599806 
0.00878876 -0.022285 0.00600105 0.00868064 -0.0202735 0.00600117 0.0123448 -0.0204544 0.00599816 
0.0105771 -0.0213907 0.00599854 0.00879677 -0.0182407 0.00599885 0.0107356 -0.0177485 0.00600072 
0.0137698 -0.0174421 0.00599803 0.0140549 -0.0194186 0.0060064 0.0156618 -0.0181585 0.00600194 
-0.0176856 -0.0137585 0.00599818 -0.0187124 -0.0118584 0.00599925 -0.0178975 -0.0157467 0.00599924 
-0.0179155 -0.010025 0.00600017 -0.0199281 -0.00987868 0.0059999 -0.0225549 -0.00812704 0.00599958 
-0.0207822 -0.0117159 0.00600133 -0.0146384 -0.0166146 0.00600103 -0.0103201 -0.0164759 0.00599866 
-0.0121941 -0.0157745 0.00600006 -0.0104644 -0.014477 0.00601458 -0.0119464 -0.0102472 0.00599876 
-0.00935121 -0.0113921 0.00599818 -0.0139122 -0.0147527 0.00599803 -0.0156728 -0.013808 0.00599857 
-0.0149596 -0.011941 0.00599947 -0.0129482 -0.011998 0.00609442 -0.0110098 -0.0125066 0.00600024 
-0.013945 -0.0102192 0.00599891 -0.0121982 -0.00825 0.00600226 -0.00883139 -0.0133266 0.00601941 
-0.00859274 -0.0154528 0.00599841 -0.00686949 -0.0144394 0.00599955 -0.00815822 -0.00978882 0.00599802 
-0.00653801 -0.0109651 0.00600072 -0.00284276 -0.0106108 0.00600349 -0.0055101 -0.015906 0.00600161 
-0.00539905 -0.0130863 0.00599986 -0.00345989 -0.0125284 0.00602301 -0.00274959 -0.0159474 0.00600112 
-0.00470805 -0.00989362 0.00600156 -0.000327244 -0.0130758 0.00600044 -0.00300166 -0.00858103 0.00600215 
9.57435e-06 -0.0151649 0.00599887 0.000718736 -0.011361 0.0060236 0.0032893 -0.0148542 0.00599908 
0.00092057 -0.00935738 0.00599923 0.0057536 -0.0125671 0.00600152 0.00152008 -0.0138404 0.00599958 
0.00279177 -0.0167887 0.00601056 0.00537054 -0.0145315 0.00599992 0.00660079 -0.0161126 0.00599912 
0.00766136 -0.0142746 0.00599775 0.0061389 -0.0106065 0.0060002 0.00417148 -0.00937689 0.00600032 
0.00263839 -0.0121832 0.00600064 0.00619435 -0.00860491 0.00600463 0.00822377 -0.00856017 0.00607787 
0.0148747 -0.0117303 0.00600002 0.0130199 -0.0155664 0.00599886 0.0117457 -0.0139937 0.00600063 
0.0136015 -0.010193 0.00599805 0.0150766 -0.0153038 0.0059977 0.00891579 -0.0127196 0.00599899 
0.00871416 -0.0161111 0.00600726 0.0107767 -0.0157481 0.00600136 0.01586 -0.0134663 0.00599891 
0.0157353 -0.0094514 0.00599972 0.0102253 -0.00895167 0.00599963 0.0124773 -0.00854292 0.00599854 
0.00851911 -0.0105357 0.00599891 0.011612 -0.0103943 0.00600855 0.0169008 -0.0112284 0.00600157 
0.0190418 -0.0114114 0.0060355 0.0216477 -0.0103256 0.00600504 0.0178314 -0.0131482 0.00599941 
0.0183795 -0.0153254 0.00599972 0.019814 -0.0133928 0.00600021 0.018121 -0.00963468 0.00599676 
0.0200476 -0.00895646 0.00603228 0.0222831 -0.0084317 0.00600984 -0.0188637 -0.00818549 0.00600447 
-0.0234948 -0.00422744 0.00600062 -0.0206902 -0.0073727 0.00599759 -0.0195637 -0.00572164 0.00599924 
-0.0219738 -0.00292907 0.0059987 -0.0181087 -0.00429972 0.00600278 -0.020017 -0.00361666 0.00600823 
-0.0214371 -0.00502501 0.00599972 -0.02306 -0.0061922 0.00599971 -0.0204331 -0.00165439 0.00600097 
-0.0238148 -0.00203762 0.00599967 -0.0222215 -0.00073009 0.00599927 -0.016848 -0.00273522 0.0059992 
-0.0161561 -0.0048143 0.00599961 -0.0101267 -0.00535987 0.00599811 -0.0103336 -0.00750164 0.0059996 
-0.0121665 -0.0042261 0.00608805 -0.0140969 -0.00505302 0.00599869 -0.0119337 -0.00621019 0.00599958 
-0.0106898 -0.00285976 0.00608886 -0.0126786 -0.00229652 0.00599894 -0.0152257 -0.00128738 0.00599969 
-0.00951359 -0.00124475 0.00599846 -0.011444 -0.000724426 0.00602177 -0.0134207 -0.000428986 0.00599938 
-0.00855407 -0.0036346 0.00599738 -0.00627256 -0.00504048 0.00599892 -0.00832367 -0.00779479 0.00600305 
-0.00815845 -0.00570428 0.00599919 -0.00747778 -0.00194234 0.00599997 -0.00582242 -0.00307724 0.00599825 
-0.00233519 -0.00649264 0.00605396 -0.00107508 -0.00804999 0.00599743 -0.00253593 -0.000456303 0.00599823 
-0.00798265 3.78067e-05 0.00599884 -0.00483592 -0.00775953 0.00600108 -0.00428932 -0.00582329 0.00601896 
-0.00419717 -0.00188197 0.00601144 -0.0022787 -0.00251953 0.00601382 -0.00383816 -0.00385574 0.00600431 
-0.00174788 -0.00445608 0.00600953 -0.00586209 -0.000764657 0.00600091 -0.000113386 -0.000120779 0.00599917 
-0.000267343 -0.00274123 0.00599939 0.00250516 -0.00813974 0.00599884 0.00478106 -0.00221861 0.00600261 
0.000814266 -0.00707257 0.00599955 0.00663951 -0.00659821 0.00600971 0.00600382 -0.00380161 0.0060023 
0.00697348 -0.00205113 0.00599915 0.00270891 -0.00210515 0.00600603 0.00445651 -0.00739857 0.00600513 
0.002439 -0.00579197 0.0060059 0.000133133 -0.00519218 0.00601619 0.00346978 -0.00397711 0.00606463 
0.00769758 -0.00485889 0.00609745 0.00188541 -0.000160936 0.00599962 0.00588254 -0.000256181 0.00599877 
0.00388326 -0.000227573 0.0059995 0.0138554 -0.00468301 0.00599796 0.0144495 -0.00731014 0.00599807 
0.0156808 -0.00573829 0.00599925 0.0130775 -7.77572e-05 0.00599923 0.0118492 -0.00471868 0.00599872 
0.0141842 -0.00255604 0.00604066 0.0106427 -0.00680655 0.00599818 0.0106671 -0.00308255 0.00607348 
0.00973111 -0.00484692 0.00599814 0.0122901 -0.00191528 0.00599947 0.010467 -0.00109605 0.00599957 
0.0086546 -0.00661015 0.00599847 0.00866842 -0.00311355 0.00600035 0.0157008 -0.00125359 0.00599931 
0.00840023 -0.000650816 0.0059995 0.018527 -0.00762774 0.00599909 0.0192728 -0.00251575 0.00599828 
0.0204633 -0.00699853 0.00600227 0.020602 -0.00101885 0.00599999 0.0217012 -0.00332236 0.00599826 
0.0238317 -0.00267851 0.00599685 0.0185586 -0.00562587 0.00599765 0.022655 -0.00646685 0.0060468 
0.0172427 -0.00307933 0.00599923 0.023856 -0.00067812 0.00600077 -0.0205351 0.000343574 0.00600928 
-0.0238536 0.000425438 0.00599885 -0.0237901 0.00242301 0.00599985 -0.0176892 0.00114476 0.00599964 
-0.0234565 0.00439394 0.00599867 -0.0177477 0.00314861 0.00600062 -0.0194649 0.00418286 0.00600204 
-0.0194758 0.00204013 0.00599812 -0.0215463 0.00324418 0.00600146 -0.0198614 0.00614504 0.00599948 
-0.0210472 0.00775272 0.00599854 -0.0179428 0.00560142 0.00612904 -0.0216445 0.00524112 0.00600586 
-0.0229315 0.00678216 0.00600014 -0.0184671 0.00758103 0.00599983 -0.0157414 0.000663608 0.00601967 
-0.0165331 0.00707064 0.0060053 -0.00874133 0.00643388 0.0060624 -0.0157275 0.00312171 0.00599737 
-0.0140193 0.00167962 0.00600022 -0.0140634 0.00465687 0.00599856 -0.0120086 0.00124164 0.00600346 
-0.0100697 0.000727902 0.00600013 -0.0127067 0.00318824 0.00599948 -0.00883637 0.00230135 0.0060012 
-0.0160127 0.00509964 0.00599956 -0.00915898 0.0042755 0.00599928 -0.0107151 0.00302137 0.00599973 
-0.0132721 0.00785711 0.0059992 -0.00983507 0.00815208 0.00601992 -0.0033732 0.00153932 0.00599977 
-0.00225598 0.0037022 0.00599897 -0.00137156 0.00143328 0.00599826 -0.00371787 0.0054864 0.00599904 
-0.00634358 0.00117661 0.00606335 -0.00502139 0.00267106 0.00599826 -0.00171713 0.00562729 0.00599986 
-0.0055133 0.004608 0.00599927 -0.00698477 0.00307117 0.00600055 -0.00392367 0.00747762 0.00600175 
-0.000293247 0.00702992 0.00599914 -0.00612298 0.00657854 0.0061324 -0.000337446 0.00314275 0.00599914 
0.000920509 0.00159027 0.00599759 0.0069463 0.00143836 0.00599862 0.00632828 0.00542081 0.00599881 
0.00605498 0.00322908 0.00599888 0.00658663 0.00740239 0.00599912 0.000200533 0.00506585 0.00599808 
0.00291365 0.00174958 0.00599967 0.00491597 0.00158627 0.00599969 0.00197921 0.00355158 0.0060018 
0.00797352 0.00428577 0.00600007 0.00397901 0.00345269 0.00600685 0.00825114 0.00626496 0.00599891 
0.014893 0.00372344 0.00599937 0.0159231 0.00200981 0.00601089 0.0108053 0.00337221 0.005998 
0.0127797 0.00368391 0.00599933 0.0136916 0.00739419 0.00599931 0.0138321 0.00198552 0.00599983 
0.0118429 0.00165666 0.00600084 0.0138036 0.0053999 0.00599912 0.0118346 0.00575486 0.00602964 
0.010005 0.000846748 0.00601226 0.00992277 0.00516732 0.00600019 0.0100131 0.00720757 0.00600485 
0.0155475 0.00664808 0.0060076 0.00894243 0.00253853 0.00600001 0.0221449 0.000351529 0.00599865 
0.01898 0.000148982 0.00599867 0.0169872 0.000317046 0.0060005 0.0238428 0.0015254 0.00599947 
0.0168546 0.00413378 0.00599994 0.023279 0.00561852 0.0059989 0.0236815 0.00366187 0.00599835 
0.0174554 0.00604664 0.00599898 0.0208793 0.00409882 0.006 0.0219272 0.00233835 0.00599952 
0.0212143 0.00607023 0.00599881 0.0171283 0.00801863 0.00600828 0.0193852 0.00770363 0.00599932 
0.0199176 0.00225559 0.00601114 0.0179204 0.00216959 0.00600316 0.0188829 0.00396886 0.00599849 
0.0226404 0.00751192 0.00600099 -0.0196581 0.00918928 0.00599879 -0.0198157 0.0133504 0.00599845 
-0.0189094 0.01157 0.00599893 -0.0209091 0.011615 0.00600106 -0.018606 0.0149413 0.00599845 
-0.0172322 0.0166222 0.00600609 -0.016729 0.0120758 0.00600804 -0.0217495 0.00979658 0.00600746 
-0.011641 0.00901219 0.00600519 -0.0156311 0.0103354 0.00599821 -0.01011 0.0125976 0.00600135 
[...]
POINT_DATA 6000
FIELD FieldData 7
id 1 6000 int
595 1212 1278 1169 441 1226 727 632 837 
186 1017 663 1300 1053 904 508 587 1455 
719 158 383 608 556 37 298 279 297 
13 108 227 1081 533 980 117 230 605 
955 1367 239 578 833 1380 1662 908 1753 
1569 909 1860 1585 701 231 1890 1714 501 
176 539 232 840 793 552 650 426 102 
142 456 1317 301 772 1132 741 455 1070 
479 500 753 946 1395 56 274 581 1429 
639 219 129 2113 1103 1219 532 495 1980 
1938 273 1092 174 691 989 867 1038 1313 
707 919 1285 323 3170 1063 2852 2669 45 
1098 1197 105 966 784 1307 5931 1640 5020 
647 894 2011 4536 8 454 4497 1247 20 
1586 143 954 693 832 15 616 189 431 
4001 1986 4697 810 451 2061 392 258 825 
1031 607 1349 537 1332 551 385 611 1001 
540 1040 529 658 646 345 59 1205 856 
1718 805 132 362 988 447 351 359 264 
58 95 1764 934 226 636 415 1104 88 
30 731 604 171 774 187 1123 1460 188 
590 423 208 765 215 711 1458 269 3467 
2424 6014 3090 5556 6001 6070 2595 5833 5774 
5793 4671 5904 5623 5486 1492 2549 4248 3538 
542 5766 3713 2215 1530 2169 3248 124 1072 
5740 3131 1468 504 737 3546 866 1126 1117 
2358 308 2799 651 2154 669 140 912 386 
622 752 196 127 696 520 968 1477 482 
1286 440 1822 783 111 1442 1146 389 321 
773 1635 311 450 1149 826 938 516 686 
167 266 267 1481 1005 1125 325 1009 1365 
181 3 446 566 5287 951 5708 3440 5616 
4484 5980 4137 5610 5977 2417 4332 5825 2720 
5011 5171 3349 1561 2923 3478 3524 2481 2618 
1352 168 2920 2642 3382 1689 1333 4422 517 
3080 1234 52 979 544 1670 3918 1867 666 
960 47 1630 1076 1027 2268 582 1617 1931 
865 427 824 233 263 939 397 317 2245 
304 5 1478 1318 228 1008 221 1249 3762 
3591 2708 3594 2432 3996 4166 5360 4213 3402 
6 98 5959 3463 4246 5348 3742 5204 689 
278 995 3924 2458 336 3861 3254 2682 4561 
57 3410 1965 240 425 1032 74 114 1154 
723 260 569 941 1574 493 285 1260 874 
1047 1141 817 104 562 2341 1106 1130 1329 
588 888 1426 460 1006 735 1576 210 197 
271 225 40 84 1128 1703 764 94 309 
1026 378 682 534 224 195 353 944 708 
561 896 1473 961 49 2497 1048 1095 12 
393 584 889 14 83 1416 738 558 1167 
204 223 1739 1180 391 785 618 1265 407 
781 547 1704 468 1155 1685 1120 949 803 
100 2040 790 64 630 2097 1110 1789 957 
2 477 789 2160 1243 854 572 1690 1797 
1015 800 1643 217 1674 364 347 1464 986 
1255 123 192 443 300 419 1655 1737 687 
1517 99 412 1540 1242 1054 1716 305 256 
296 1799 179 287 1439 348 222 1555 73 
68 234 1158 1176 591 1543 620 206 289 
1202 624 1504 17 483 428 714 717 48 
525 1869 1188 1733 1153 367 214 33 722 
458 1201 1914 1136 26 876 326 3168 2293 
371 1139 1007 1023 216 172 794 2013 1553 
46 3275 5048 2673 1908 331 3104 3346 2997 
3073 596 637 334 3765 1102 4351 4502 4285 
1810 4281 2115 3788 628 2931 603 1435 1400 
599 629 1593 1310 1138 1107 1034 1203 1751 
1963 1814 617 1343 1940 87 1750 640 1339 
1093 1449 1229 1173 1251 2243 1037 1480 1619 
2742 2188 2455 822 2554 1235 1425 330 1982 
565 154 1535 549 816 685 1793 1405 1673 
372 151 1089 778 380 429 706 1820 161 
1609 418 846 992 563 89 901 32 814 
871 1084 868 2010 494 769 344 606 598 
704 1527 1175 250 1288 1362 1463 2075 1334 
576 782 1274 775 1371 1612 146 1280 760 
1184 750 510 1620 43 1283 1254 1194 925 
1611 2224 1484 72 2111 509 1779 1682 404 
1360 497 67 762 399 570 259 521 131 
166 318 850 522 1549 248 829 207 498 
61 34 366 712 1004 1266 713 545 416 
373 724 931 885 244 683 1452 237 1060 
1233 275 1275 947 983 465 1309 235 523 
242 155 449 1323 655 792 873 462 160 
241 302 369 406 710 156 891 975 703 
958 1193 718 1083 1575 1638 1571 680 1664 
974 1884 190 115 1518 253 879 700 1658 
777 797 897 177 1087 550 2093 1064 638 
1045 1228 1698 199 1723 1012 375 81 725 
664 1363 1937 863 1584 394 1428 2083 352 
631 1074 715 1557 90 1562 471 1475 1948 
720 1476 1539 559 758 1407 2157 1565 779 
1390 2141 1603 3188 1827 1096 360 998 1936 
2960 2793 268 3250 1772 1904 327 1978 1248 
1100 42 1950 2105 1221 3911 878 2413 1368 
1654 1621 2238 910 1928 1263 1374 2020 2601 
1692 2192 342 1436 1906 548 3150 62 768 
125 2977 2402 2711 729 2520 1608 1065 2008 
2443 1208 2253 2049 1052 2399 1725 953 1968 
2142 2606 71 1645 4390 3359 1375 2166 1705 
78 3397 3536 2886 2751 1406 2533 130 1947 
2339 3303 2588 3319 2400 633 77 926 736 
796 1284 2545 1489 1298 5001 1279 2437 3223 
1422 1651 4470 122 818 5773 2147 2470 541 
3853 2674 5508 514 1370 4880 1921 3117 5334 
2658 1199 1342 137 2186 4358 1564 5293 4160 
5926 4443 5882 3526 1804 978 1877 1491 3062 
5581 2834 5012 2082 1213 2969 3324 2804 2395 
3607 5539 2462 5946 2102 2705 3272 5815 3146 
3071 2979 5690 3763 5056 1615 21 716 1028 
1443 2194 2171 1069 872 1502 695 3152 191 
333 1388 141 795 511 4426 1994 2269 139 
162 322 1588 688 295 1809 574 395 1828 
859 1434 2246 356 757 402 1142 213 1397 
182 811 2514 3302 1411 858 1878 1738 1993 
163 2209 1150 2482 2647 3171 459 382 4207 
848 1850 1292 3292 2240 641 3014 3109 887 
627 97 265 808 678 673 819 834 1671 
1447 211 469 615 690 721 763 150 526 
499 175 515 220 1770 1024 7 1151 312 
756 457 410 1913 1399 335 1331 994 481 
726 1293 1387 16 1044 892 165 932 93 
1080 272 173 387 1111 180 2156 118 23 
1036 1311 1385 1348 354 1466 1337 229 1438 
63 350 489 1166 895 1376 1566 518 261 
1366 1731 85 956 286 1437 1372 692 315 
973 357 1441 564 4 860 959 1058 101 
238 1118 92 461 205 433 1105 823 681 
543 613 1186 1108 153 411 770 1506 676 
2045 341 634 771 1085 1479 113 159 524 
852 1097 1787 138 1051 1851 1086 1786 906 
496 1695 1889 567 791 838 409 1494 788 
649 698 1519 527 1949 1059 1189 355 280 
467 1354 185 1417 27 1148 916 1450 1544 
1842 1137 2429 1881 1474 170 1868 594 396 
935 478 855 1377 571 728 1220 270 491 
390 1207 1039 245 82 202 1925 648 699 
473 1501 512 1537 281 452 746 1019 3121 
844 1624 1720 38 1259 1 1520 54 1308 
2282 1394 560 1713 1601 730 1591 1090 787 
1451 475 1985 645 1748 157 1190 767 1483 
902 1287 251 1818 1919 1996 365 1757 1629 
900 1512 1790 577 2087 593 307 530 1131 
434 1159 623 921 1696 531 120 474 1886 
671 812 546 486 445 1752 147 675 985 
893 1835 1509 1046 80 1240 1191 1926 1010 
555 1172 1967 870 106 1979 1756 984 1819 
937 554 759 288 967 262 1891 1708 1721 
2324 1646 2038 2138 2219 1987 2526 2785 1604 
1296 899 2634 1470 2286 3342 4388 3295 3083 
5957 3422 5353 5850 5891 3997 5324 5901 6064 
5052 4965 5709 4056 4843 5930 5131 4055 5734 
3618 3176 4335 5018 5805 4421 5987 3730 5779 
6017 5677 5464 5824 1823 4720 5794 5799 5472 
5231 3792 4674 4728 5576 5788 5229 4909 5538 
5266 4459 5073 4679 4976 6031 5141 6058 5900 
5994 5554 5635 5208 5239 5214 3648 4807 6028 
5569 5804 1127 1495 4036 5281 4628 1715 614 
4073 4191 5568 2608 2535 1545 5292 2104 2625 
2802 4222 5430 5047 4848 4408 1454 2167 6038 
3922 5027 3078 2847 2551 5029 5196 1957 4534 
4319 5432 5563 3642 3193 761 3892 3822 5150 
4757 5728 3462 3160 2569 3477 3348 4522 5310 
4028 144 749 1945 652 1299 65 1356 1647 
1217 340 119 3027 134 743 751 1099 3108 
799 200 1594 2532 845 1717 1290 3259 849 
2504 2098 3191 3401 4019 2500 1420 2307 2179 
813 116 668 1613 2492 2152 1187 2117 2094 
2516 929 1627 377 1761 2405 2828 2177 1678 
2621 1541 936 2043 2249 2954 2262 2761 2463 
2677 2703 2666 3053 1923 2553 1665 1315 3578 
1650 1206 2604 1347 754 135 1330 635 580 
346 1392 1250 869 1989 1427 861 853 880 
626 1066 1214 807 1269 164 821 583 400 
659 1773 528 1281 1109 145 969 316 1547 
877 1412 2132 1003 2202 2453 1876 28 2501 
1409 667 2127 1983 338 2879 1929 1622 2336 
430 2116 2183 1402 324 2784 674 841 597 
513 1668 1801 942 178 25 943 1784 1116 
1225 1162 1056 1386 381 733 376 1211 1192 
1050 1582 660 1408 1614 306 798 945 1959 
1796 1872 149 1847 2107 1706 420 1691 1496 
31 1341 1094 2449 1952 963 1710 1653 915 
1204 1895 2573 1497 1735 1556 2029 75 96 
1423 2100 503 1736 2055 2866 592 1780 917 
2162 2398 2137 1160 1419 3725 1758 1257 1306 
414 987 918 1580 51 2131 1272 439 1445 
490 802 379 246 29 1301 996 1101 3943 
2197 2752 1693 1433 2206 1846 914 236 847 
600 506 971 1528 3234 2165 1216 361 1340 
747 1033 2904 2687 22 1503 2471 2263 1893 
2120 2112 1573 1583 1533 53 3400 2465 1897 
2228 1403 839 875 1071 2070 3114 2494 3003 
2652 3369 3046 4453 2510 3905 4473 5567 5775 
5599 4356 5155 5951 6002 3837 1879 6008 5737 
4310 5663 5199 3696 5105 5256 5966 5722 5082 
5139 3517 4367 4659 5356 4201 5339 5466 5143 
4571 4209 4920 6000 4277 5604 5571 4461 4557 
3881 5758 4900 4343 4850 5068 4639 5119 3492 
5757 3345 4430 4819 4748 4539 5246 4887 4735 
4446 3894 5178 5271 5670 5002 5976 4727 5714 
3838 5910 4616 5701 2941 5938 5847 4912 5252 
5660 5492 4157 4675 5741 3388 5235 5335 5967 
6007 5398 5839 5836 3219 4299 5719 4860 5138 
5046 5100 3045 6024 5520 5420 5213 5521 5288 
5435 6065 5674 1381 4787 2391 4303 3494 5703 
3606 3652 4545 5154 4150 5223 4107 2735 3836 
4014 2335 5474 1871 5394 3064 2430 5619 3649 
3186 2995 4917 3960 4924 3681 3603 4910 5301 
2146 3736 5527 4110 4172 3424 5158 5612 4598 
5585 3731 4602 5099 4901 5405 4939 2064 4546 
3249 4938 4178 5647 4400 4261 4610 4413 3740 
684 1424 313 1848 254 303 1785 76 2583 
2313 1927 2291 2297 3447 4711 107 3225 2684 
1453 2351 2867 2486 2912 1728 4118 1600 3279 
3863 3862 2772 2281 2099 2789 2223 1782 3373 
2714 4167 470 1915 2661 4100 4514 1916 2300 
2947 3151 4188 3572 3127 3084 4726 2933 3047 
1661 4436 110 2536 448 19 35 1378 1836 
1322 786 485 343 702 2041 198 169 621 
575 612 291 2633 2632 1068 1883 1524 1383 
1875 2522 2851 1182 2640 2103 2880 3134 2865 
2242 3106 2354 2056 881 2109 2548 3799 3227 
2074 2484 2649 2325 3626 1769 2699 2433 835 
424 492 1179 1500 1181 487 277 809 282 
642 421 109 1446 1734 24 1649 363 1656 
464 907 1834 505 890 2080 2478 480 670 
1806 1014 2375 2306 1981 1467 2071 2381 2915 
2126 1771 2499 1742 2831 5999 5411 5261 5808 
4969 4101 4541 4198 5248 5684 5928 2570 5359 
5515 6048 4417 5816 5650 6003 3962 5993 5923 
5118 5498 4895 5861 4214 4950 4991 6050 5736 
5236 4907 5600 5608 5460 6068 5699 1350 5557 
2829 5344 5704 5195 2308 3377 5800 5280 4974 
5185 4519 4368 4032 5381 4176 4525 5400 5311 
5886 5844 243 4063 4903 5692 4117 5786 3101 
4058 5066 5760 5392 5414 5869 5767 5721 3819 
5514 4874 5630 6020 5828 5491 5403 6018 5449 
5896 4723 4407 5389 5998 5110 5818 3632 3022 
3873 1258 1133 3611 5764 5037 1011 3395 5006 
4147 4323 2993 3672 2524 4076 3566 4070 3043 
3766 3957 3655 3635 4937 3604 4489 3122 3812 
3437 3945 4145 4582 3811 4580 3845 4494 3576 
4158 4657 4330 5307 184 776 1043 2288 804 
1579 255 679 398 2643 79 830 2290 3949 
2004 3469 3051 2296 41 91 4463 2018 112 
2164 780 1156 1073 328 2379 1185 2436 3434 
2729 1984 2050 2585 2284 2786 2657 3614 3859 
2596 4597 1747 1652 1222 1224 320 2028 2204 
2129 1075 1679 857 1992 990 1021 1421 1314 
5778 384 2007 69 2457 337 2185 1513 1498 
2644 2345 2721 2396 1057 2203 1078 3638 913 
5443 2680 2023 1482 2491 2411 1863 3016 999 
1246 981 368 656 349 1174 1143 1025 1261 
466 519 2136 1951 1592 148 10 1457 152 
1766 828 417 1633 1988 1253 905 1414 1145 
1572 2072 2328 1013 923 55 1829 884 1523 
2022 11 1018 1022 370 1844 1355 965 1382 
1859 2250 2940 1597 2389 1316 2431 619 60 
1312 1684 1152 1215 1701 2332 662 1909 3281 
2059 1493 2541 1865 2906 1953 1628 1997 1514 
4647 2081 1510 1273 1605 2078 1291 1147 2123 
585 1231 1319 2220 332 1680 193 2163 2423 
2261 435 1486 2416 1357 2006 2046 1854 976 
314 2184 2612 1119 1389 1121 1552 2617 2233 
553 2234 1866 2264 2447 2542 2144 1759 2513 
1808 2016 2456 2653 2697 1729 3322 1840 1554 
374 2543 2000 2267 1636 442 2216 2031 3002 
1657 1346 2732 2348 1432 3155 2738 2076 1942 
4103 2616 438 4375 3149 3774 2935 4121 4792 
3535 4808 4271 3331 293 4712 4730 2919 2890 
3370 3897 2519 4090 5628 2564 3444 4143 3622 
4687 3230 4914 5626 4655 5533 2759 2656 1030 
4896 2515 5544 2009 4601 2067 2731 4169 5790 
4918 3847 1874 2077 1448 3010 3983 5164 2737 
3746 5341 3183 4416 4882 4566 3839 3222 4283 
4233 2445 4658 3429 4841 3133 5657 3351 1707 
2092 2605 2159 1930 1508 1077 2376 36 1091 
820 1744 183 2175 2274 1336 1041 1531 3224 
1239 1767 2051 1303 453 3091 5555 284 2850 
2380 1932 4429 1991 507 1917 463 2734 1295 
50 1122 1577 1529 3800 4691 930 739 2014 
2309 1960 2212 299 5373 1525 2744 2730 993 
2814 2366 2386 1754 2502 3986 643 2195 3785 
2037 3474 2217 3677 4955 2170 2464 2765 2832 
2200 2384 86 1035 18 276 218 437 1164 
586 133 1462 408 1995 2118 1732 1515 1000 
1113 294 1321 39 502 1042 2280 1538 422 
1232 557 970 1719 579 1198 203 1802 538 
694 1413 2057 2260 927 1568 740 661 2201 
1900 653 1256 329 2350 2452 2058 1345 247 
1990 1268 1681 1526 1648 2609 1161 2321 1587 
2174 2315 249 1853 2176 2091 1590 283 2733 
2736 589 991 609 1813 1499 1144 1369 201 
488 1843 1548 2329 1241 1157 1016 1223 1964 
2418 1892 66 1841 358 3187 654 1800 864 
1578 2610 1398 1999 734 1327 977 1020 842 
432 1134 1901 2237 815 1237 1973 1210 1792 
697 1918 2651 1922 2252 2155 1741 1488 1775 
1082 2406 886 1852 2229 1625 1471 1903 1487 
1359 1227 2419 2025 2773 1270 2819 1939 2628 
2488 2531 3198 1289 1238 982 1245 1430 1364 
2881 2756 2068 2393 3011 4861 4083 257 2620 
2710 3118 3262 3706 2582 2747 3332 2540 1297 
2882 948 3966 2343 2748 2270 3769 3592 2119 
3126 2722 1683 3857 3529 2978 2561 2505 1049 
4490 3627 1788 2285 3878 2678 1749 2963 3928 
2917 3472 3666 3708 4673 3195 2139 4287 2574 
3831 3360 5636 3908 2816 3291 2860 5091 3025 
3314 5978 3315 1902 3782 3846 3358 3613 3311 
3461 3532 745 2289 2035 3060 2589 2303 2970 
4637 3087 2809 1675 2461 5385 4135 5769 2645 
4881 4718 2304 2767 4450 625 3612 1320 3232 
2777 3703 3887 3685 4286 5030 4097 3340 5384 
2272 103 1849 2876 3455 4312 2135 4700 3233 
5173 2310 2929 3980 3938 4573 3620 3820 5220 
5881 4921 2485 5843 4396 4038 3196 3950 3501 
4963 4670 4156 5004 4376 3818 4764 3901 5257 
4818 5809 4418 5323 3416 4035 2671 3753 5086 
2981 2371 2275 3849 3194 5602 3278 5438 5509 
1975 4247 5524 4284 1970 4298 4339 2774 3405 
126 806 3507 1328 1124 1642 2085 3586 677 
4425 1899 1461 2754 4593 1817 4386 1898 2807 
2258 3031 3099 2327 3059 3362 1933 1791 2277 
1631 1855 2840 2302 1598 3489 2755 3326 2033 
2193 3074 3553 2283 1781 2403 2743 3004 4243 
3789 883 3423 1837 1567 1472 339 1384 1344 
1326 2210 1325 755 1558 1618 928 310 2248 
898 1856 922 1599 252 319 1666 1864 1135 
1912 2956 1267 1178 484 1663 2017 1244 2298 
1114 1393 1639 997 2768 1163 2577 1765 1783 
1209 831 2401 1862 1305 1659 1711 1196 1061 
1183 1743 2048 2151 1271 1815 1465 1955 1171 
2001 1282 1252 2521 1774 3205 1676 2060 1934 
2114 2066 2517 2895 2692 2584 1415 665 476 
2088 70 1262 405 1623 1379 766 1079 950 
2145 836 1230 882 1029 194 940 964 601 
1589 403 1795 1894 1304 2153 1700 2106 705 
1699 2052 843 1456 2255 1055 2567 2483 933 
1200 1294 2084 1794 1824 2032 2254 2331 2346 
1088 1062 1760 2377 413 1845 1634 1606 2557 
1961 1946 1129 2365 1353 2547 1776 2441 1667 
2024 1165 2580 1516 2226 1602 2550 2367 2086 
1637 1956 1550 2320 1694 1236 2095 2412 2316 
1324 3367 2444 2479 1595 1858 610 1002 121 
2108 1803 536 972 1977 2230 3420 1276 862 
2352 2334 2782 2961 2528 1358 2460 1826 2571 
1302 1839 1873 3688 1911 2161 2187 2388 2357 
1798 1709 2503 2700 4415 3888 4180 3008 2322 
3044 3641 3096 2868 2706 2983 3105 1697 2225 
3228 2079 3668 5922 2709 3159 4507 3920 1812 
3190 827 1277 2527 2047 3180 2898 5611 3199 
2810 5776 1361 2221 4161 4949 4225 3942 2739 
4377 3917 5269 4095 3070 1469 2901 2591 3488 
5700 2934 3427 4495 2855 1607 4577 3390 1431 
3629 5152 4607 2704 3698 4250 5325 3732 2355 
3518 5146 1351 4516 5972 4783 4505 4943 4275 
4280 5874 2878 3124 4492 6061 4866 2783 5005 
5477 3466 4054 5285 4682 5003 5561 3258 4651 
5846 5446 5309 5429 4776 4959 5605 5326 4961 
4768 5675 3883 6052 4370 5377 5725 5607 4801 
5125 5631 5705 5081 5711 2805 5887 4015 5205 
5761 5865 5580 5296 4979 4782 4854 4799 5911 
5860 4177 4515 5442 4897 5511 4125 2558 5065 
4008 3097 4944 4703 4729 3989 5950 5777 4391 
3868 5181 5829 4212 6015 4820 5488 4935 2884 
4071 3914 6021 5279 5221 6009 5752 6011 4888 
5054 5668 2518 4758 5877 4105 5163 5494 3926 
4203 6006 4862 5986 4003 4595 5858 5856 4278 
5475 1546 4111 4226 4153 5123 5129 3870 5878 
4664 4452 5543 4902 4761 4500 3630 4612 4237 
4274 4855 3745 4604 3965 3625 4088 4660 4326 
3940 5625 5918 5678 4324 4266 5791 3958 3816 
4181 4771 3817 3715 4638 3723 3143 2626 2128 
1687 1830 4696 3021 3623 3179 2191 3335 3970 
2438 3050 3192 2218 4592 2968 3975 4613 5085 
2360 2257 1755 2619 4164 2631 3238 2723 2390 
2952 1972 2861 3300 2770 2392 2627 2889 2496 
3076 3645 2414 3181 3394 3375 3605 3414 3407 
3802 3815 2948 3135 2949 4093 3776 2926 4252 
2859 3318 3136 2415 3702 3680 2196 5008 6041 
3598 1335 2168 2818 2063 1616 2353 1505 1831 
136 1924 2480 2911 1722 2140 1702 2815 2408 
2019 2312 2976 748 2440 2613 2797 2587 3419 
1910 3285 2896 2090 3209 1626 2292 2864 1857 
2967 1641 2849 3333 3499 3848 1727 4106 3000 
2383 2845 1896 2660 2638 2648 3001 2900 3624 
2980 2251 2764 2795 2908 1825 2026 1974 3154 
2624 742 1712 2205 1688 1887 2172 3347 1969 
3088 4007 1861 3220 3520 2239 1724 3353 1418 
3294 2629 3049 2778 2214 3235 2276 4108 2073 
3534 2420 2953 4627 2654 2311 2689 2877 2943 
2575 3793 1170 5060 2232 2955 2848 2924 2530 
4804 3243 3772 2509 3089 2607 2330 4738 5502 
3082 2685 3056 1112 3617 4009 2844 1768 4192 
3498 2030 4569 5253 3441 4708 4676 3978 2347 
4221 2672 2893 5743 4480 2679 2727 3893 3722 
5262 1762 2779 4372 3041 644 1672 3496 1644 
3511 3386 4113 4045 2775 3167 4136 5114 5238 
5104 2349 1976 3764 3350 3544 3473 3921 2446 
1730 3307 4485 3306 2800 5418 5756 3468 4704 
1966 3026 1832 4823 3562 2034 2885 4705 5493 
5455 2990 5621 4337 3438 4993 3296 4290 4596 
4441 4722 3487 3796 4068 5784 3899 3884 5744 
5656 5821 5419 4834 4152 5135 5537 5040 5622 
4894 5919 4428 4129 5644 5116 5095 3856 5716 
5995 5080 3644 4360 5685 5130 6026 4890 5358 
5039 4023 5872 4739 2921 5059 5112 4341 5461 
5439 5079 5873 3552 4631 5687 5216 4437 5565 
4769 5578 4851 4677 5939 5724 4719 4617 5308 
5870 5177 5535 5932 5342 5470 6040 5590 5638 
5592 5028 6023 5017 5409 4977 5189 4365 6022 
4037 6053 5813 5584 6029 5551 6060 5909 4962 
5530 5321 5739 4844 5669 5519 5803 4681 5501 
4229 5817 4235 4995 5676 5227 5996 5534 5090 
5137 4702 4024 5276 4119 4889 4922 4952 4747 
5224 5618 5144 4512 5366 5964 5898 5025 5203 
6037 5989 4742 5863 5482 4401 5157 4549 5968 
5890 5147 5929 4649 5416 5542 4872 4759 4389 
4661 3826 4049 2603 4665 3963 4338 4232 4833 
5745 5523 4197 4186 4017 5471 4954 3142 4986 
4656 4925 4668 5198 5845 5390 4814 4693 4568 
4966 5723 3628 4021 3954 4669 4946 3457 4403 
3069 3903 3872 4256 4562 4827 5387 5933 4556 
4350 4170 5349 5960 4263 5637 5201 4973 3451 
5167 5906 3164 5718 4891 4552 5903 5570 4124 
5243 4684 4382 4845 4583 5192 4102 4410 3669 
5259 3701 5371 4795 5615 5415 3527 2476 3539 
3563 2899 2724 2760 4531 3709 2950 3504 3430 
3361 3393 2812 2798 3898 3660 2562 3865 4211 
3409 4127 4692 4599 4486 4929 5230 5393 3449 
3221 4317 3453 4878 5298 2913 3790 2646 2846 
3242 3712 3941 3601 3288 4154 3433 5862 4242 
3392 5552 3525 4781 4200 3032 4947 4981 4427 
3589 2326 4329 5132 3443 3366 4305 3933 3959 
3991 4998 4547 3286 5391 3608 5327 4550 1885 
3343 4268 2373 3771 4006 2158 3471 4130 4313 
3355 4016 3885 3431 3446 2787 2374 3141 2925 
2964 4424 3549 3639 3274 2409 2121 3354 2265 
2902 4260 3844 3182 3460 2231 4334 3231 3659 
3876 3132 4314 4041 3998 4279 5516 2426 5067 
3184 2888 3100 4293 4809 2871 3937 3791 3994 
5331 4074 5062 3583 5574 4990 3869 3033 1596 
5838 3236 4806 4487 5267 4906 1581 4609 3915 
5413 2615 2984 1218 2421 2538 3019 2746 2718 
3521 3237 3379 3380 3775 4133 4112 3720 3072 
4116 4971 4092 4455 4438 5275 4838 3858 3038 
4320 5103 4067 5408 3406 3795 3927 3907 4749 
3879 3153 2788 5456 5541 3729 3814 5109 4196 
4276 6027 2905 5077 5549 4770 4972 5806 5975 
5424 5792 5713 4852 3778 5351 5730 5241 5410 
5984 5712 5245 5522 5707 5383 4793 4997 5875 
4788 5153 4464 5731 4650 5627 6051 6049 5948 
5883 5469 5015 5207 4513 5336 4346 4732 5888 
4432 5864 4987 5468 5071 4635 5643 5717 5550 
5458 5206 5300 5075 5763 5667 5140 5168 5624 
5879 5762 5587 4369 5222 4821 4383 3542 4585 