# vtk DataFile Version 4.2
Generated by LIGGGHTS
ASCII
DATASET POLYDATA
POINTS 5999 float
-0.0173315 -0.0415281 0.0120696 -0.0135511 -0.0428278 0.0122779 -0.00957284 -0.0432511 0.0122556 
-0.00581636 -0.04463 0.0122669 -0.00186142 -0.044003 0.0124009 -0.00639668 -0.0406895 0.0127479 
-0.00256386 -0.0403719 0.0139401 0.00934713 -0.0439687 0.0118688 0.00203323 -0.0449358 0.0123325 
0.0054937 -0.0429309 0.0122599 0.00242163 -0.0403513 0.0123848 0.0151094 -0.0409955 0.0119399 
0.0125717 -0.0432045 0.0141309 -0.0304352 -0.0331636 0.0122684 -0.024433 -0.0335483 0.0122127 
-0.0209008 -0.0355028 0.012133 -0.020947 -0.0397634 0.0119711 -0.0243172 -0.0377213 0.0126791 
-0.0210019 -0.0315266 0.0127252 -0.0275604 -0.0355772 0.0136694 -0.0110296 -0.0395184 0.0122125 
-0.0173985 -0.0374757 0.0122837 -0.0139347 -0.0352941 0.0122318 -0.0174736 -0.0333883 0.0124229 
-0.0101252 -0.03323 0.0121868 -0.0138226 -0.031223 0.0124369 -0.00595305 -0.0311378 0.0121743 
-0.00781765 -0.0369805 0.0121755 -0.00195366 -0.03066 0.0122776 -0.000354615 -0.0374179 0.0123891 
-0.00321631 -0.0345609 0.0127835 0.00706828 -0.0392513 0.0122435 0.00371828 -0.0364697 0.0122822 
0.00876868 -0.0314368 0.0122701 0.00480686 -0.0325957 0.0122678 0.00775094 -0.0353093 0.0122375 
0.000907068 -0.0336223 0.0124731 0.0110912 -0.0389898 0.0120588 0.014691 -0.0370055 0.0121799 
0.0171445 -0.0311928 0.0120892 0.0185744 -0.0390024 0.012249 0.0131267 -0.0306661 0.0122318 
0.0116514 -0.0343849 0.0122882 0.0181494 -0.0350353 0.0125827 0.022326 -0.0349478 0.0122301 
0.0211666 -0.0311184 0.0121881 0.0250927 -0.0320253 0.0123338 0.0288419 -0.0339741 0.0122797 
0.0259198 -0.036772 0.0123255 0.0225617 -0.0389354 0.0125645 0.0318996 -0.0317196 0.0136022 
-0.0397099 -0.0211511 0.0124027 -0.0324825 -0.0297144 0.0123101 -0.0357303 -0.0273717 0.0123956 
-0.0329198 -0.0217861 0.0126437 -0.0365225 -0.023494 0.0129998 -0.0297634 -0.0258931 0.0121504 
-0.0284472 -0.0296862 0.0121785 -0.0289455 -0.0219763 0.0121736 -0.0209622 -0.0275435 0.0122591 
-0.0250026 -0.0212811 0.0121234 -0.0217443 -0.0236113 0.0121661 -0.0252294 -0.0255893 0.0122727 
-0.024452 -0.0295108 0.0124231 -0.0184862 -0.0212765 0.012147 -0.0141479 -0.0270263 0.0121583 
-0.0108405 -0.0246806 0.0120928 -0.0177087 -0.0251993 0.0122469 -0.0145651 -0.022619 0.0122881 
-0.0173995 -0.0293862 0.0123837 -0.0106348 -0.0204307 0.0124135 -0.00385329 -0.0236699 0.0121681 
-0.00096579 -0.0267238 0.0122604 -0.00861976 -0.0280378 0.0121462 -0.00664195 -0.0208007 0.0122377 
-0.00479735 -0.0274249 0.0131823 -0.00734472 -0.0243251 0.0140183 6.32298e-05 -0.0228536 0.012207 
0.00397811 -0.022021 0.0121577 0.0068091 -0.0248465 0.0121755 0.0058217 -0.0287262 0.0122472 
0.0029475 -0.0258912 0.0121432 0.00195512 -0.029764 0.0122789 0.00977141 -0.0275326 0.01231 
0.017361 -0.0271931 0.0119386 0.0171507 -0.0229846 0.0122174 0.0137718 -0.0254475 0.0122339 
0.0134744 -0.0213818 0.012314 0.0103943 -0.0236697 0.0135066 0.028537 -0.0299857 0.0122864 
0.0245245 -0.0239068 0.0120508 0.0235448 -0.0278522 0.0121611 0.0280019 -0.0211172 0.0121239 
0.0206594 -0.0249266 0.0122141 0.0270039 -0.0265858 0.0137363 0.0201178 -0.0201047 0.0121193 
0.038211 -0.0235781 0.012126 0.0360175 -0.0269595 0.0125505 0.0320748 -0.0278974 0.0123749 
0.034088 -0.0230887 0.0122492 0.0302253 -0.0243716 0.0128063 -0.0435003 -0.011381 0.0122258 
-0.0420612 -0.015915 0.0127099 -0.0383715 -0.0173843 0.0121821 -0.0317885 -0.0145001 0.0122825 
-0.0302631 -0.018199 0.0122583 -0.0357808 -0.014332 0.0120897 -0.0395167 -0.0128762 0.0121594 
-0.0344346 -0.0181108 0.0121996 -0.0336347 -0.0109528 0.012168 -0.0242229 -0.0112771 0.012084 
-0.0230471 -0.0151628 0.0121844 -0.0263241 -0.0174606 0.0123258 -0.0217295 -0.018944 0.0123564 
-0.0275026 -0.0136592 0.0127301 -0.0296805 -0.0103387 0.01219 -0.0158074 -0.0182966 0.0121324 
-0.0118801 -0.0165928 0.0121073 -0.0117938 -0.0125917 0.0123241 -0.0190632 -0.0159233 0.0122415 
-0.0186111 -0.0119282 0.0125612 -0.0154013 -0.0143239 0.0125307 -0.00259863 -0.0198635 0.0122458 
-0.00411934 -0.0131693 0.0121871 -0.00804059 -0.0139817 0.0121791 -0.00538817 -0.01698 0.0122691 
-0.00134097 -0.0160416 0.0123654 -0.00663818 -0.0100611 0.0121467 -0.00055842 -0.0124112 0.0138546 
0.0030478 -0.01294 0.0121729 0.00608004 -0.0186155 0.0121163 0.00661229 -0.0111134 0.0122064 
0.00132763 -0.0190179 0.0122244 0.00998057 -0.0194353 0.0125779 0.00627455 -0.0148772 0.0135315 
0.0100187 -0.0152324 0.0121547 0.0183292 -0.0131922 0.0121319 0.0133322 -0.0123967 0.0121087 
0.0133948 -0.017375 0.0122672 0.0173888 -0.017194 0.0124151 0.0242027 -0.0197808 0.0122947 
0.0272359 -0.0129434 0.0120782 0.0232414 -0.0125387 0.0121081 0.0211914 -0.0159896 0.012058 
0.0289544 -0.016952 0.0121185 0.0249821 -0.0159975 0.0133575 0.0365655 -0.0199339 0.0123773 
0.0319552 -0.0196947 0.0123058 0.0311936 -0.0135693 0.0122368 0.0356585 -0.0131442 0.0122666 
0.0381629 -0.0162634 0.0121585 0.0393945 -0.0113201 0.0122332 0.0331505 -0.0101404 0.0132472 
0.0344048 -0.016752 0.0134907 0.0405519 -0.0194671 0.0123654 0.0436137 -0.0109939 0.0122186 
0.0421409 -0.015515 0.0121296 -0.0409323 -0.00770785 0.0121767 -0.0407253 -0.00370131 0.012117 
-0.0445804 -0.0060651 0.0122975 -0.0443397 -0.00187472 0.0129217 -0.0369616 -0.00550391 0.0121326 
-0.0330067 -0.00220376 0.0121591 -0.0324591 -0.00713372 0.0123584 -0.0373632 -0.00950937 0.0123678 
-0.0369223 -0.000421657 0.0121354 -0.0272673 -0.00286545 0.0122414 -0.0221511 -0.0047172 0.0121456 
-0.0204764 -0.00837993 0.0123143 -0.0276785 -0.00688348 0.0125172 -0.0240357 -0.00779135 0.0140497 
-0.0243411 -0.000138475 0.012241 -0.010446 -0.00882664 0.0121731 -0.0184288 -0.00258168 0.012302 
-0.0170194 -0.00632354 0.012171 -0.0144036 -0.00955344 0.0121883 -0.0109198 -0.000204026 0.012511 
-0.0130468 -0.00582262 0.0126925 -0.0144745 -0.00207827 0.0127227 -0.00266849 -0.00937463 0.0122227 
-0.00541032 -0.00624041 0.0121561 -0.00334192 -0.00280757 0.0121452 -0.000735799 -0.00586564 0.0124044 
-0.00722786 -0.00177047 0.0123439 -0.00912426 -0.00518416 0.0132141 0.00325863 -0.005637 0.0122351 
0.00706714 -0.00685986 0.012173 0.00135066 -0.00931083 0.0121377 0.00141468 -0.00211016 0.0126457 
0.00966799 -0.00166322 0.0140849 0.00607833 -0.00344609 0.0140595 0.0181415 -0.00838208 0.012047 
0.0102208 -0.00932112 0.0121478 0.0141274 -0.00838332 0.0120065 0.0107519 -0.00530364 0.0121398 
0.0185354 -0.00439607 0.0122466 0.0145457 -0.00400821 0.0121572 0.0129559 -0.000337329 0.0122318 
0.0169553 -0.000703275 0.0125133 0.0290158 -0.00933868 0.0122639 0.0280502 -0.00537739 0.0124979 
0.0248767 -0.00143985 0.0124536 0.0250525 -0.0089945 0.012696 0.0217483 -0.00670644 0.0128299 
0.0214722 -0.00257034 0.0142849 0.0318582 -0.00652809 0.012073 0.0347903 -0.00380295 0.0120315 
0.0372513 -0.00790149 0.0120945 0.037786 -0.00113683 0.0120891 0.0309912 -0.00255995 0.0122288 
0.0449404 -0.0016618 0.0122118 0.0412141 -0.00350489 0.0121214 0.0412444 -0.00776518 0.0123233 
0.0446024 -0.0056358 0.0128296 -0.0445462 0.00613526 0.0123354 -0.044529 0.00212738 0.0123677 
-0.0409627 0.000291966 0.0122968 -0.0409936 0.00429713 0.0122988 -0.037895 0.00760301 0.012141 
-0.0334917 0.00175737 0.0124991 -0.0370365 0.00358815 0.0121955 -0.0336725 0.00575377 0.0122595 
-0.0344624 0.00967982 0.0121933 -0.020282 0.00124775 0.0122209 -0.029814 0.000218088 0.0121542 
-0.0209008 0.00520064 0.0122173 -0.0217785 0.00910193 0.0123625 -0.0251892 0.0055247 0.0124186 
-0.0289109 0.00812011 0.0124033 -0.0299274 0.00424436 0.0122667 -0.0269473 0.00228099 0.0140744 
-0.0255158 0.00936493 0.0141662 -0.0142289 0.00204758 0.0122128 -0.016885 0.00529032 0.0121328 
-0.0177739 0.00920688 0.012305 -0.0126246 0.005725 0.0123371 -0.0123141 0.00976634 0.0124552 
-0.00561333 0.0018905 0.0121179 -0.00120171 0.00491787 0.0122641 -0.00932055 0.00345204 0.0122059 
-0.00173201 0.000891434 0.0123566 -0.0051125 0.00613101 0.0122608 -0.00900738 0.00744542 0.0125923 
-2.91321e-07 0.0087605 0.0122039 0.00635069 0.00424494 0.0121838 0.00688199 0.00821583 0.012168 
0.0096089 0.00192127 0.0123094 0.00217884 0.0018161 0.0123305 0.00268673 0.00581785 0.0125919 
0.00590883 0.000296031 0.0126527 0.0181691 0.00311486 0.0121503 0.0113957 0.00550043 0.0122205 
0.0183505 0.00713904 0.0122963 0.0144598 0.00805164 0.0125741 0.0106327 0.00936765 0.0129663 
0.014395 0.00316059 0.0135462 0.0215367 0.00079936 0.0121291 0.0253799 0.00669407 0.012327 
0.0287527 0.000757711 0.0122447 0.0218331 0.00481687 0.0122099 0.0219721 0.00889283 0.0123072 
0.0289164 0.00476797 0.0124455 0.0252318 0.00268712 0.0122399 0.033982 0.000159281 0.0122131 
0.0381439 0.00298761 0.0121161 0.0358277 0.00660827 0.0122553 0.0318331 0.00791815 0.0123376 
0.0329028 0.00395938 0.0130242 0.0444226 0.00684046 0.0120785 0.0404312 0.0069661 0.0124547 
0.0415523 0.000481733 0.0120809 0.0448723 0.00285843 0.0121259 -0.043845 0.0100803 0.0122804 
-0.0427239 0.013939 0.0121554 -0.0414786 0.0174577 0.013624 -0.0377095 0.0170687 0.0121147 
-0.032199 0.0129866 0.0122813 -0.0399391 0.0110676 0.0121551 -0.0361893 0.0133036 0.0121998 
-0.0339655 0.0164442 0.0133798 -0.0300983 0.0164013 0.012265 -0.0319336 0.0199524 0.0127074 
-0.026129 0.0158285 0.0122854 -0.0278996 0.012129 0.0122533 -0.0219251 0.0160675 0.0123225 
-0.0238429 0.0125473 0.012392 -0.0237807 0.0196312 0.0123817 -0.0278884 0.0197424 0.0122972 
-0.0200729 0.0192428 0.0139053 -0.0158358 0.0127178 0.0123624 -0.0179262 0.0162657 0.0122814 
-0.0139191 0.0162336 0.0121544 -0.0198331 0.0126403 0.0125182 -0.0111756 0.0192217 0.0123261 
-0.0109574 0.0135422 0.0123871 -0.00386647 0.0100627 0.0123121 -0.00275312 0.0177943 0.0122308 
-0.000829612 0.0126854 0.012266 -0.00769085 0.0112338 0.0124289 -0.00825391 0.0164988 0.0126045 
-0.00615828 0.0198957 0.0123149 -0.00479257 0.0138482 0.0133561 0.00095129 0.0162751 0.0121884 
0.00434423 0.014107 0.0121616 0.00373011 0.0191571 0.0122096 0.00781471 0.0121145 0.0122141 
0.00700703 0.0169859 0.0129547 0.00358067 0.0102888 0.0131256 0.016621 0.0146225 0.0121031 
[...]
POINT_DATA 5999
FIELD FieldData 7
id 1 5999 int
544 514 482 144 333 828 27 1092 856 
1037 589 307 901 1045 120 97 862 924 
520 598 107 52 135 145 228 379 263 
53 1095 158 426 408 476 706 501 336 
1008 203 246 992 230 364 41 404 247 
608 46 760 245 690 154 1316 966 557 
274 440 115 434 1019 378 344 816 623 
874 294 669 11 946 724 63 502 546 
424 704 1015 199 1166 174 504 469 952 
684 776 365 114 8 276 149 758 397 
310 614 876 1042 54 396 516 509 401 
210 112 861 136 348 57 1107 437 349 
787 659 360 281 131 550 650 163 311 
664 374 84 345 487 296 429 99 113 
42 175 815 205 616 66 1126 293 1338 
168 1144 1494 317 875 630 117 848 39 
1077 256 350 528 461 231 962 1035 788 
523 423 142 86 372 1214 1262 853 1503 
802 686 417 134 1096 20 126 783 72 
558 731 447 1071 485 1269 354 906 221 
821 58 584 612 1101 903 1105 931 342 
445 543 489 441 427 1481 627 1486 1027 
710 784 967 322 1142 900 1692 410 73 
393 421 1161 48 1032 458 108 241 418 
914 367 604 292 1014 105 673 813 12 
857 224 766 755 781 1351 742 5 16 
463 23 971 998 1254 1128 77 352 594 
229 206 346 1277 78 563 1460 170 886 
763 1106 273 193 498 734 305 375 560 
517 384 935 1478 81 432 286 473 712 
128 320 88 380 1197 155 313 1073 1613 
341 182 522 847 586 745 1066 288 954 
949 387 1024 535 214 657 915 592 394 
836 165 244 556 298 436 287 519 868 
691 334 631 640 191 260 721 996 64 
98 579 671 79 80 225 1040 3 266 
576 337 356 910 75 159 944 524 361 
103 347 316 1124 197 21 104 1016 1097 
212 1072 736 1220 146 660 388 715 91 
839 425 880 1745 926 521 76 160 290 
121 152 628 332 28 406 569 177 1103 
235 478 748 1611 312 929 428 116 226 
1368 227 928 1084 1899 705 220 582 255 
851 96 304 513 118 1134 409 629 1703 
133 204 181 1484 259 642 299 264 529 
636 15 6 140 1117 45 289 173 213 
769 916 507 327 129 475 1025 497 141 
899 111 207 904 701 395 530 422 268 
217 1489 477 215 124 474 532 162 909 
735 414 454 161 625 218 866 780 40 
1461 328 882 1790 2618 1 877 455 250 
18 122 885 1323 67 995 1765 178 26 
495 1119 430 1350 531 864 19 1213 411 
1433 1044 505 200 680 100 1171 254 1270 
390 1098 1477 282 997 1392 969 1416 551 
450 271 407 1328 1506 153 1575 1164 1828 
1995 647 1620 1861 795 566 1326 2364 1079 
2621 257 242 194 209 464 10 1286 981 
1650 1289 452 1834 1299 1589 65 1846 1774 
1602 1882 1705 138 515 185 400 596 83 
892 233 1232 1446 2165 665 772 1690 1999 
1498 883 1878 1718 777 773 567 338 109 
1033 391 1067 1632 907 696 1580 707 1471 
852 1677 1688 1411 47 1358 605 968 1792 
1387 1284 1608 1434 147 449 1850 1543 1421 
1169 1251 1365 340 1485 1678 512 285 1280 
675 580 764 443 750 1188 1013 323 889 
2027 662 1187 1341 1186 33 125 713 1005 
94 1162 488 183 198 548 1563 574 493 
279 1017 1275 1058 302 49 402 1476 119 
1043 953 1463 1639 2042 1836 1448 744 2067 
1785 2300 1026 2781 2347 2145 1028 1418 1640 
711 55 818 1331 1242 1023 1647 1605 1059 
905 1843 1734 1768 2150 1538 1943 371 1676 
633 1285 1179 534 2285 1789 1855 1159 2292 
1944 1283 2065 2092 1210 1883 1654 918 641 
102 392 937 2221 1754 943 1697 1862 1074 
1609 938 2109 1274 1550 1170 1691 2345 844 
1036 858 1176 1412 2136 442 1330 1217 1191 
1491 1406 785 69 1468 872 2296 1182 1258 
2161 1780 248 267 382 1114 90 22 779 
689 617 643 652 471 800 1047 1652 902 
1962 1224 2053 1057 413 249 921 2328 1327 
1178 506 1829 223 525 803 703 741 639 
824 1064 578 1389 1113 1398 319 961 1265 
1592 2228 1680 68 1537 533 1325 243 854 
1407 1683 963 977 1345 2129 106 1561 1844 
1354 1955 2066 2557 668 674 1623 1208 1722 
1055 697 7 1672 9 2047 832 1749 1594 
655 2209 2113 1687 2304 1562 190 951 201 
808 964 403 747 990 986 179 1525 888 
1201 1555 1597 1587 2093 1595 1814 38 718 
1152 994 1482 1404 1174 1012 2128 1684 1644 
1572 1240 1753 2490 1701 1076 1061 211 1203 
353 1185 980 833 622 1177 1497 1710 726 
270 1377 1913 1960 1628 1852 1413 1183 1979 
1272 2091 1083 635 291 1288 859 819 1931 
1383 240 987 1369 2312 1199 1223 1552 611 
1256 806 2277 1141 123 679 1508 1775 43 
927 1319 1132 834 518 1243 2278 1767 1347 
1417 1811 1308 1685 2426 314 590 1180 739 
754 1276 252 805 1355 692 139 1372 1222 
1324 749 894 1948 653 2205 1397 92 1584 
1123 399 615 562 1212 1961 1118 1679 222 
898 1196 985 1329 1385 1860 1250 1505 1215 
1835 1359 1772 1233 1830 826 654 202 25 
613 767 941 1500 978 318 2014 2194 1318 
863 2348 1268 1333 884 619 496 1443 369 
1231 1235 1310 881 1429 1548 2307 1472 694 
2299 581 1317 1109 1127 1315 727 545 1133 
278 1130 1295 508 376 1618 1622 1099 1822 
1081 1536 1374 661 351 1380 1513 500 831 
1140 1586 1509 869 2104 575 1003 491 1839 
2021 1091 1356 1263 1479 1340 1588 2297 1088 
1569 830 1876 1728 695 1366 1030 1964 1125 
479 1529 483 2038 1809 1425 1049 865 1634 
1838 855 537 1674 1202 1281 1845 1181 1630 
1444 893 1967 812 1279 1492 714 1348 2159 
2240 2210 896 389 1120 1100 658 1145 1060 
1886 1982 1493 1702 1399 1925 959 2346 1332 
1921 1629 2395 933 842 751 137 1945 1041 
1914 1517 1391 1577 1935 1573 1137 1151 693 
796 1011 870 1557 1006 879 2043 1624 1104 
2451 2036 1516 1009 1334 24 756 511 1228 
873 1038 1221 1353 835 110 1122 1719 1002 
2200 2037 1940 775 610 890 1744 982 867 
1111 1225 983 1842 1357 585 789 2453 2024 
2537 330 607 702 499 920 1567 1131 1928 
1522 794 2362 1362 1158 2001 2139 1804 1435 
1252 1496 2379 462 667 1512 682 677 2018 
1871 1907 843 947 29 237 1975 743 1615 
1455 1361 1821 2425 845 840 526 1300 280 
300 1395 355 1226 942 878 1480 728 838 
717 1260 1720 1787 1518 1342 1541 2335 1168 
370 678 1238 309 1428 792 587 1320 1148 
570 1305 381 606 761 1895 1750 1593 127 
297 719 189 362 1054 188 565 1089 431 
148 1707 555 1381 1046 814 1129 770 549 
956 934 171 527 975 730 368 1010 1487 
1796 1139 1831 723 993 1445 253 31 1306 
1063 1031 2074 2264 2400 377 564 1426 984 
1778 503 1112 1977 1812 1291 187 1080 1149 
1297 1450 1301 1673 2651 2269 1524 295 919 
101 1294 1439 1576 922 2248 632 232 817 
366 2319 1370 2176 2237 1110 716 265 1018 
239 1523 1090 167 1078 1052 2279 1459 2242 
1553 1312 1499 2260 1675 1910 827 303 32 
419 988 588 778 1344 1255 1884 700 1936 
1870 1826 1714 1556 2398 2034 1997 1419 1449 
331 1193 572 1086 70 1490 1430 1335 737 
1972 1879 459 733 1337 1462 1339 2133 36 
1237 301 1020 746 1153 676 420 2114 453 
911 2452 1546 1721 1154 1664 82 326 216 
541 180 1150 974 1311 979 930 484 164 
87 315 809 1535 1402 822 568 932 553 
1743 1085 283 646 955 186 130 709 648 
958 609 1682 1976 1021 940 708 2115 2148 
1469 480 626 448 765 238 1321 561 554 
1069 1271 405 74 150 887 1236 358 1230 
2375 1115 810 1583 50 1400 1384 481 1207 
1056 1963 656 573 849 51 2 1135 13 
1532 740 60 1566 620 1984 1247 1029 1379 
2152 1849 412 923 891 1022 600 688 841 
1604 1343 1349 435 559 1560 2010 2225 2446 
2318 2134 2750 2660 2223 93 357 472 1346 
771 439 925 1617 790 1726 1257 2406 71 
1373 1048 1551 2119 1442 62 258 1004 603 
1394 1819 1001 1897 774 325 1367 1102 2051 
470 1971 2910 948 1248 1246 791 957 618 
683 793 1309 1156 284 1540 681 644 1625 
1510 1934 1669 2039 1314 1841 2203 386 599 
35 277 272 251 725 1436 373 685 698 
846 1859 416 2158 456 2090 960 2272 192 
1227 1670 638 976 820 738 583 547 1695 
965 1582 752 1424 2035 1467 1163 2219 1565 
637 799 95 329 1205 571 850 85 34 
1273 804 1267 363 1423 1261 17 2198 972 
1121 991 1655 151 1388 1959 1053 1136 306 
61 383 1165 1296 1875 169 2460 1873 1764 
1172 468 1867 1116 2629 2243 1725 339 275 
89 798 14 1298 1287 196 624 2055 2049 
1534 2764 308 1755 2030 2023 1923 1760 1932 
2007 1571 1641 1160 1868 1475 1410 1303 4 
2127 1795 2284 2403 2211 597 973 184 166 
1068 811 591 649 1000 2146 486 1167 538 
261 1631 1514 1195 917 1610 1401 2474 1758 
321 438 324 30 666 1504 1108 645 1651 
490 759 1591 577 1724 176 1645 1627 651 
1453 1050 195 143 433 415 59 157 1249 
466 801 1336 1713 359 1579 989 2110 1708 
786 1752 1307 1173 132 999 234 593 1147 
1495 1530 908 1266 1290 729 552 510 56 
269 762 156 670 1364 1239 1062 451 1209 
621 542 1816 1390 1980 2081 1922 2384 2327 
1657 1211 2569 829 343 446 1542 1189 768 
1570 1143 1856 2690 1717 2680 2122 2843 2554 
2851 913 602 1245 3284 2196 2641 2257 2100 
3086 3465 2528 2999 2911 2938 1386 601 2289 
1638 1259 1598 2046 3160 2845 3808 3564 3155 
2713 3025 2254 2633 2720 2686 1777 1278 2349 
2508 2918 1957 1194 797 2073 1564 1869 699 
2195 782 2303 2247 2847 1581 2102 2250 2512 
2977 492 2588 3540 2464 2275 1547 3348 2245 
1603 2987 3013 2421 1783 1661 2417 2208 2963 
3098 2341 2862 3529 219 1649 2157 2527 2121 
2612 2106 1590 2526 1681 2084 1626 2098 2840 
2968 3413 2433 3636 2958 2031 1175 457 1488 
1420 2003 2825 1146 2351 2383 1800 2959 2833 
2975 2761 2506 3033 3256 1614 1533 2472 2455 
2187 1906 2624 2684 2418 3174 2448 2378 3271 
3060 3095 3207 1519 1981 3008 2377 2075 2355 
2932 2517 2606 3464 2545 3215 3734 2871 3187 
3650 2855 1756 2332 2295 2735 2416 687 1952 
2044 1937 465 2560 2611 2689 2538 2675 1802 
2806 1865 2443 1949 2143 1733 1771 2226 2391 
2646 1382 2314 1991 2493 2041 2601 2135 1458 
3193 2483 2645 2330 2556 2239 3469 1633 2185 
1470 1779 2869 2008 1746 2613 3094 2746 3425 
3391 3411 3851 3111 1437 1696 2427 2305 1253 
2291 2812 2767 2396 3297 3027 3303 2516 3122 
2795 3492 2498 2191 1908 2470 970 2009 1619 
3082 2661 2532 2510 1983 1414 1727 1376 2276 
2183 2368 2486 2120 3286 2673 3539 1483 1919 
1456 1686 1405 2511 2015 1978 2468 2765 2953 
3079 2048 1866 2402 3249 2824 2739 1659 540 
1953 2408 1699 1693 2562 1989 2522 1716 2964 
3175 2423 2338 2515 2280 2415 3015 2717 1403 
1954 37 2013 2329 2173 2298 2943 3024 3124 
1737 2105 2025 2450 1711 1817 2776 1093 2271 
1378 2859 2639 2610 1184 2004 2743 1968 1858 
1607 2667 2061 2886 1065 1887 1773 2206 2429 
2491 2385 2359 1700 3252 2576 2389 3451 2787 
1848 2430 2779 2057 2142 2282 2177 722 3156 
2816 2668 2708 2363 3375 2387 3247 2858 2880 
2796 2714 1794 2006 1662 2151 3173 2794 2399 
1917 2103 2674 2457 3072 1781 3338 2581 2728 
1881 807 1408 1636 2190 1988 2916 2944 2182 
2870 3040 1942 3180 1966 1070 939 1671 1668 
2600 1264 2804 2333 1889 2736 1763 2594 2549 
2666 1824 2050 2671 2409 2111 1840 2846 3158 
2520 2687 2432 3211 3690 2534 2519 3208 2301 
2652 1087 2317 2179 2440 2071 2745 2420 1965 
2005 1987 1958 1642 1219 1198 2181 2709 2370 
2322 2361 1531 2565 1293 1863 1905 1658 2116 
2083 2579 3063 2202 3185 1893 2366 1730 1539 
2665 1924 2935 3339 1896 2939 1667 3368 3445 
1759 1776 2774 2163 2141 2688 2773 1969 3258 
2373 2082 3029 2482 1890 3250 1916 3620 3548 
2883 2548 1902 1793 2712 1723 2861 1431 2875 
1807 1938 3455 2772 2251 3039 2444 3892 3150 
1806 1643 1363 1396 1993 1736 1452 1200 1815 
1994 1877 2989 2207 2678 2407 2922 1155 2478 
1507 2172 2577 1704 2392 1568 2521 2786 1051 
1558 2950 3453 2704 2741 2849 1888 1216 1454 
1927 2531 1637 2112 2130 2326 2595 2737 2573 
2820 3012 2863 3214 2323 2536 2309 2481 2676 
1206 2449 1694 2607 2215 2603 2357 2978 1786 
1545 3003 3189 2059 2405 2125 1985 3129 1094 
1447 2256 1833 1920 2118 2699 2193 2192 2885 
3569 753 1663 1832 2086 1732 1660 1689 1941 
1900 2220 2798 3257 1901 2749 2343 536 172 
1813 2466 1803 1653 2422 2770 2940 2881 2814 
1616 2290 1805 3499 1735 1946 3149 3278 3506 
3633 2951 3757 2052 860 2852 1440 1769 2488 
3387 1352 1502 2232 2441 1885 1762 1990 2068 
2473 2827 2677 3246 2572 3121 2899 2169 2941 
2344 2653 1992 1998 2258 1808 2154 871 2762 
2026 2079 2077 2439 2752 2424 2070 2647 2222 
2504 2325 2306 2140 2716 1600 2546 945 1729 
2356 1909 1825 1739 1585 2564 2476 2632 3574 
3112 2828 2589 2458 1599 2738 1292 2094 2830 
2630 2132 2217 2657 2969 2164 2844 3179 3071 
3308 2465 2393 1521 1578 1466 2124 2095 1432 
2500 1851 1820 2887 1039 2404 2865 1930 2724 
2204 2854 2313 1501 1304 1360 1648 1549 2636 
2503 1646 1798 1956 2442 2725 2218 3196 2249 
3485 2382 2620 2524 1911 1244 2459 1515 1933 
2584 1738 2638 1915 1621 2682 2316 3054 2802 
3273 3439 757 2072 1528 1761 1810 1797 2994 
2253 2431 2445 1874 2462 2017 2934 2985 2011 
2615 3006 3390 3085 2604 2374 2785 1007 2839 
2414 1526 2529 1656 2701 2799 3053 1706 2592 
2342 1409 2587 3050 2413 2789 3700 2890 2471 
3489 672 2367 2123 2386 3047 2178 2902 2923 
2352 2214 2274 1731 2436 1947 3234 2480 2273 
3337 3373 2697 3213 3087 1574 2012 1218 2238 
1740 2759 2199 1465 1892 2543 1204 1766 2108 
1898 2658 1747 950 2167 2287 2447 3105 1451 
1799 2213 2201 2016 2608 2162 2961 2908 2535 
3403 1302 1241 1415 1970 1229 2324 2336 2702 
2888 2649 2230 2029 2492 1894 2137 3463 3398 
2753 1918 2555 1854 2609 236 1082 1190 2156 
1075 1880 2340 2456 2175 2924 2321 2751 1872 
2288 3277 2625 3304 2045 2730 3756 2233 539 
1559 1511 1666 1457 2076 2186 1527 1709 2281 
2261 2982 2654 3251 2933 2153 2655 1847 3432 
1441 2768 1138 2020 2019 2700 2962 2227 1827 
2598 2212 1234 1192 1427 1635 2898 1742 2495 
2744 3138 3070 2605 2734 2681 1665 1748 2622 
2265 2626 2331 1818 2174 2602 2376 2578 3307 
3980 2097 2315 2715 3170 2672 2160 2837 2283 
2259 3031 1853 1939 4228 2900 3017 2810 2547 
3232 2691 3280 3712 2841 2525 2469 3733 3190 
2635 2155 2101 2022 1801 1596 2310 2397 2502 
3045 1864 2729 2561 3287 3274 2184 3225 2244 
2496 2062 3893 634 2583 2559 3010 2063 2089 
1912 2494 2078 2727 3153 2644 3301 3219 3358 
3330 2822 444 1375 2040 1698 1712 1473 2711 
2590 2580 2936 2087 3202 2882 2703 2390 2949 
2311 2410 1393 2000 2054 1322 1757 897 1601 
2784 2360 2957 3371 2627 3270 2748 3145 3116 
3818 2591 3367 2475 494 2138 460 1544 2188 
2903 2401 2988 1784 2080 3292 2663 3212 2831 
3397 2388 2380 2766 2876 2032 2064 2956 1715 
1474 2394 262 2670 2948 3372 2706 2170 2631 
2171 2107 2945 3114 3747 2582 3034 1612 2434 
1788 2234 2236 1791 2513 2033 2942 3400 2872 
2270 2593 2563 3460 2294 3293 3081 3939 3937 
3357 2197 2180 2099 2411 2575 2586 2350 3201 
3171 3266 3073 2813 1903 2992 1926 1034 3004 
2758 3442 3684 3752 823 1313 1891 2497 2302 
1770 2229 2369 2692 3561 3341 2255 3435 2650 
2085 3444 1520 2793 2811 1422 1282 825 2147 
2523 2235 2412 2778 2585 2909 3406 2144 2246 
3401 3268 2637 3396 1554 2381 2060 2662 2372 
2126 2002 2501 3172 3738 2266 2542 1951 1973 
1823 2856 1837 2937 3176 3120 2530 2574 3591 
3783 3320 3410 3162 2970 3487 3089 3538 3525 
2514 335 2056 2131 2868 3630 2058 2775 2518 
3255 2866 3718 3580 3002 3509 3106 2069 2685 
3493 2771 3288 2742 2836 3804 4039 3282 3142 
3955 3289 3713 2879 3722 3446 3279 2718 3792 
4166 3834 1996 3703 4216 2507 3056 4464 3958 
3331 3902 3919 2801 3235 2623 3845 3639 4200 
2864 2634 4060 4618 4497 3972 3607 4124 3404 
3862 2891 2262 3319 3471 2096 3677 3822 2783 
3032 3790 4129 3077 3440 3058 3148 3654 4422 
3778 3276 4100 4358 3362 2435 3707 2308 3844 
3334 3194 3723 3405 3302 4149 3632 3523 3195 
3985 3727 3547 3670 3977 3099 2487 3315 3682 
4002 3361 3472 2371 3433 3913 3831 3763 4139 
4326 2955 4388 4310 3764 3378 2930 3761 3152 
3165 4248 3766 3967 3379 3618 4066 3735 4416 
4642 4072 4270 4918 3599 4051 2499 2747 2467 
2616 3768 3350 4439 3623 4211 3894 3800 3675 
2967 3711 3083 4038 4375 2809 3311 2553 4415 
4086 2669 2568 2533 2339 2877 1950 2596 3537 
3048 3500 3437 3578 3708 3811 3868 3717 3883 
4456 4395 4451 3125 2597 3313 3847 2740 3067 
2189 4279 2973 3478 4188 4170 3037 2929 4647 
4255 2834 4389 3833 3662 3450 2946 4637 4813 
3715 4420 4371 4169 4463 3221 3920 2966 3325 
2904 3449 2721 3052 4000 3512 4480 3516 3993 
4632 3264 4496 4284 2505 3360 3346 2821 2628 
2438 3186 4056 3676 2832 3983 4521 4007 4946 
4705 4775 4361 4366 4136 3553 3078 2088 2808 
3041 3522 2907 2842 3103 3188 3527 3794 3907 
2980 4993 4797 4093 3771 3699 2848 2659 3028 
3721 2365 3769 3751 3226 3898 3353 4317 3714 
3806 4198 3412 3990 3347 5425 4161 4202 2216 
3572 3828 3199 2896 3365 4113 3096 2648 3370 
3534 4559 4068 2976 2777 3298 3674 4012 2656 
3238 3789 2867 3774 3556 3528 2829 2805 2268 
3799 4089 3743 3477 3615 3476 3826 3753 3482 
4891 3642 3409 3754 4065 4646 4001 3614 2983 
2231 3345 3309 3000 3169 3260 3813 3594 3462 
3415 3317 3518 3231 4403 4130 4560 3005 2477 
2168 2696 3651 3388 2354 3166 3931 4504 3101 
3634 3468 3242 3459 3963 3956 4175 3399 2694 
2693 2838 2788 2984 2857 2927 3020 4259 3829 
3624 4019 3773 3681 3344 4700 4205 3376 3821 
2540 4742 3772 3679 3143 3457 3183 3848 3402 
3974 4134 3640 3672 3987 3323 3204 4466 4328 
3944 3418 2461 3090 3616 2895 3306 3979 3695 
3244 3259 2698 3730 4525 3897 4291 4387 3951 
3253 4127 3988 4440 3924 2732 3542 3508 2241 
1741 3590 2954 3825 3504 2726 4232 4253 3705 
4120 3849 3861 3011 4374 4600 4870 3167 2757 
3557 2769 2860 3706 3392 4545 3092 3377 3474 
4242 3526 2286 3227 2558 4281 3655 3788 4575 
4444 3881 2544 4075 3611 3921 4699 3571 4590 
2664 4833 4806 3001 2995 3100 3692 3427 4306 
3649 4133 4597 4046 4754 3886 3140 3466 3746 
4154 3157 3222 3422 3973 4103 3819 4084 3596 
3035 4979 4340 2897 3890 2915 3767 3136 2894 
3563 2993 3237 3236 3926 3191 4099 3652 3856 
4031 3275 4189 4184 2263 2484 2683 2819 3748 
3927 3952 4125 2823 3108 4688 4872 3577 3326 
3327 2567 2541 3941 3545 2998 2617 2914 3229 
2707 3638 3685 3644 4262 3598 3139 3698 3055 
4142 3066 2986 3163 2293 3107 3272 3428 3030 
3837 3613 3424 4753 4506 3586 3109 3336 2614 
3097 3075 2947 2571 3925 3810 4237 3127 3484 
3550 4570 4295 3241 3104 4937 4731 2835 2539 
3181 3333 3498 4454 3393 3408 4112 3356 3622 
4359 3786 3744 4105 3592 3473 4095 4315 3363 
3316 3858 2780 3935 2850 3762 4335 3588 3200 
3891 4245 3859 2419 3628 3981 3877 3568 4233 
4069 3324 4394 4207 4465 4617 5247 5179 4443 
4958 3936 3694 3023 3864 3061 4402 4429 4349 
3452 3888 2912 3530 3007 4309 2928 3230 3243 
3558 3283 3044 4434 2722 3665 3855 4128 3210 
4156 3970 4438 3824 2733 3016 3470 3084 2358 
2756 3022 3663 4217 2760 4114 3946 3332 4246 
3220 2570 2642 2552 2971 3161 2599 3796 2807 
3197 2965 3205 4024 3609 3867 3502 4386 3443 
3576 4008 2991 3009 1857 3351 2990 2337 2320 
3617 2815 2920 3501 3619 4020 3680 3128 3689 
4468 3863 4090 4239 2931 3602 3135 3668 3948 
2817 2926 2893 3601 3544 3130 3198 2974 4176 
3184 3144 3830 2919 2797 3486 2972 3164 3305 
4365 3673 4165 4083 3117 3018 4531 4899 3608 
3687 3380 4235 4327 3776 3312 3666 3582 3795 
3146 3088 3431 4053 4573 3872 2979 3505 2763 
3429 3842 3177 2906 3560 3584 3366 3014 3874 
3552 2643 4081 3686 3479 4203 4137 4062 3850 
3513 3750 4369 5001 3915 3448 3480 3093 3300 
3702 3239 3775 3359 2960 3110 3575 4614 4479 
4311 3996 4347 3447 4183 4018 2803 4193 3827 
3945 3991 4077 3950 3816 3395 4472 3749 3805 
4811 3631 4338 3610 5195 4352 4116 4097 2826 
3719 4736 3159 3779 4102 3600 4158 3589 4673 
4551 4017 3123 3871 3419 3777 2792 3835 2428 
3643 3653 3383 3720 3593 3245 3541 3637 4231 
3739 4990 4080 4639 3134 4364 2723 2884 1974 
2997 3295 3491 2463 4187 4163 3233 3043 3343 
3520 3494 2925 3314 3329 3299 2889 3975 3262 
4425 2334 3019 3661 4201 4486 4256 3488 4412 
3168 4565 3852 2679 2437 3741 1904 3760 3074 
3394 2353 3832 3533 4288 4320 3420 3514 3656 
3605 3218 4204 4033 2705 3151 3182 3068 2224 
3904 2754 3441 3914 3178 3785 2853 3900 3660 
4058 4215 3554 3223 3042 3133 4146 3999 3261 
4561 4199 4487 3546 2731 3737 3318 2800 3732 
4252 4250 4174 4219 4591 3716 3865 3965 4258 
3846 4272 3731 3426 3803 3224 4108 3296 3968 
3627 3930 3793 3629 3051 3876 4152 2981 4047 
4598 4341 5224 3693 4999 3740 5294 4727 3745 
2952 3065 2619 3559 2917 3626 3036 3407 2550 
3878 4157 3962 4860 4823 3369 3267 3436 3836 
2551 4041 3354 3969 3597 3917 3697 3291 4131 
3782 3064 2921 4073 4042 3585 2874 2485 3091 
3929 3216 4078 2719 3688 3725 4182 4234 3248 
3736 3269 3901 3531 4107 4055 3916 4192 3021 
3587 4589 4377 4513 2892 3119 3704 3352 3290 
3787 3519 3141 3389 3382 3515 3461 2901 3780 
3131 4238 3603 2913 3671 4625 3507 3495 3154 
3454 5101 3421 4391 3132 3798 3691 3802 4273 
3658 4717 3384 3062 3059 3562 2791 3069 3521 
4505 3321 3535 4336 4044 4274 3566 4943 3625 
3869 4604 4094 3895 3263 4035 3565 3517 4194 
3342 3355 4578 3430 4300 3322 4009 4023 4135 
5232 4926 3646 3823 2489 3683 4096 3049 3192 
2905 4118 4316 4212 3635 4801 4428 4224 4040 
4638 3647 3467 3843 3934 4459 4087 3503 3080 
2878 3203 3664 3942 4292 3765 4185 4254 2479 
3115 3240 3884 3026 2028 4091 3076 3709 4043 