# vtk DataFile Version 4.2
Generated by LIGGGHTS
ASCII
DATASET POLYDATA
POINTS 5999 float
-0.0177099 -0.0413333 0.00387605 -0.0140257 -0.0426547 0.00479283 -0.0103768 -0.0437905 0.00360958 
-0.0195349 -0.0405165 0.00737916 -0.0159321 -0.0420177 0.00828682 -0.0121272 -0.0433119 0.00838613 
-0.0184185 -0.0409938 0.0112482 -0.014546 -0.0424706 0.012193 -0.0107142 -0.0436975 0.0121807 
-0.00644704 -0.0445385 0.00362536 -0.00267349 -0.0431864 0.00384138 -0.00649954 -0.0407005 0.00478029 
-0.00289208 -0.0401861 0.00647795 -0.00841464 -0.0441744 0.00717043 -0.00446962 -0.0447468 0.00751557 
-0.00963751 -0.0403443 0.007388 -0.00599405 -0.0412429 0.00878642 -0.000707856 -0.0449787 0.00893594 
-0.00223997 -0.0415133 0.010218 -0.00694478 -0.0444559 0.010973 -0.00843335 -0.0403747 0.0118661 
-0.00315181 -0.0448724 0.0121993 0.00819506 -0.0441529 0.0032803 0.00429342 -0.0428162 0.0035994 
0.000910595 -0.0449741 0.00372548 0.0013485 -0.0400803 0.00370527 0.00863213 -0.0407716 0.00642933 
0.00466718 -0.0407429 0.0070047 0.00301689 -0.0448915 0.0071556 0.000760218 -0.0415806 0.00738441 
0.00699413 -0.0444289 0.00715101 0.00710216 -0.0414121 0.0101261 0.00488725 -0.044693 0.0107205 
0.00164049 -0.041139 0.011262 0.0012655 -0.0449614 0.0124495 0.0143791 -0.041679 0.00325317 
0.01156 -0.043474 0.00549342 0.0171918 -0.0415685 0.00635015 0.0139888 -0.0427024 0.00859459 
0.0102282 -0.0438174 0.00943185 0.0172949 -0.041545 0.0105827 0.012833 -0.0430962 0.0124073 
-0.0308852 -0.0325718 0.00381189 -0.0321477 -0.0314582 0.00753325 -0.0314067 -0.0322075 0.0119587 
-0.0215228 -0.0394794 0.00405846 -0.0249305 -0.0332963 0.0034918 -0.0213345 -0.0353234 0.00391563 
-0.0214483 -0.0313398 0.00442141 -0.0247327 -0.0371849 0.00494859 -0.028137 -0.035084 0.00528817 
-0.0271235 -0.0314411 0.00659408 -0.0232427 -0.0342093 0.00738497 -0.0236556 -0.0300421 0.00808028 
-0.0229235 -0.0386852 0.00862455 -0.0263003 -0.0364998 0.00857539 -0.0294197 -0.0340089 0.0089813 
-0.0258168 -0.0327012 0.0101683 -0.0219578 -0.0320053 0.0111342 -0.0234573 -0.0357355 0.011297 
-0.0218568 -0.0393058 0.0124314 -0.011307 -0.0398779 0.00378103 -0.0178598 -0.0373271 0.00404376 
-0.0144135 -0.035273 0.00400045 -0.0178725 -0.0332799 0.00431388 -0.0144049 -0.0312777 0.00435835 
-0.0104305 -0.0316141 0.00404264 -0.0147224 -0.03889 0.0060007 -0.0114547 -0.03661 0.00635923 
-0.0122505 -0.0327698 0.00742643 -0.0197488 -0.0365228 0.00750942 -0.0162898 -0.0302902 0.0077723 
-0.0196572 -0.03248 0.00781308 -0.0159235 -0.0342864 0.00795112 -0.0165492 -0.0379436 0.00945449 
-0.0126777 -0.03969 0.00999637 -0.0124888 -0.0356697 0.0101755 -0.0138712 -0.0314646 0.0108512 
-0.0178562 -0.0315408 0.0112679 -0.0194835 -0.0352218 0.0112873 -0.0156735 -0.034709 0.0124033 
-0.00826829 -0.0372218 0.00386179 -0.00646114 -0.0309911 0.00394456 -0.0024292 -0.0309342 0.00376886 
-0.00443693 -0.0344631 0.00424498 -0.00129781 -0.0370175 0.0046242 -0.00799051 -0.0339802 0.00618991 
-0.00553198 -0.0372149 0.00693843 -0.00431575 -0.0303924 0.00729644 -0.00184246 -0.0335497 0.00721257 
-0.0083071 -0.0300496 0.00740026 -0.00200499 -0.0371441 0.00896395 -0.00874912 -0.0369424 0.00930323 
-0.00532403 -0.0338871 0.00917683 -0.00915672 -0.0330169 0.00995508 -0.00239837 -0.03151 0.0106324 
-0.00623314 -0.0303259 0.0108135 -0.0053104 -0.0380039 0.0110496 0.00625932 -0.039328 0.00352305 
0.00337976 -0.0365385 0.00359862 0.00468761 -0.032634 0.00373268 0.00763699 -0.0354455 0.00357819 
0.00853335 -0.0313416 0.00385048 0.000609684 -0.0335775 0.00384444 0.00983547 -0.0366972 0.0067042 
0.00579267 -0.0368982 0.00682403 0.00292365 -0.0338973 0.00711938 0.0016452 -0.0376762 0.00741711 
0.00680896 -0.033002 0.00746 0.00393777 -0.0300277 0.00720972 0.0015757 -0.0316182 0.0101226 
0.00787646 -0.0363542 0.0102081 0.004391 -0.0384078 0.010266 0.00616498 -0.0304893 0.0105104 
0.00950052 -0.0327063 0.0106189 0.00445546 -0.0343545 0.0108012 0.000545809 -0.0352411 0.011497 
0.010514 -0.0388947 0.00329597 0.0142593 -0.0370824 0.00341148 0.0183316 -0.0389713 0.00351609 
0.0172977 -0.0309456 0.00353825 0.0129968 -0.0303951 0.0037582 0.0113909 -0.0341346 0.00404505 
0.0180972 -0.0348699 0.00388353 0.0149493 -0.033294 0.00579701 0.0130101 -0.0393366 0.00647351 
0.0191283 -0.0320258 0.00693294 0.016543 -0.0373116 0.00674821 0.0109412 -0.0314662 0.00704719 
0.0126227 -0.0347574 0.00886651 0.0166378 -0.0341999 0.00932823 0.0140939 -0.0310745 0.00950221 
0.0107606 -0.0398377 0.00975222 0.0144213 -0.0382303 0.0101307 0.0183948 -0.0376986 0.010397 
0.0179629 -0.0306148 0.0105219 0.0113531 -0.036677 0.0121823 0.0193237 -0.0343488 0.0123791 
0.0141304 -0.0337874 0.0124432 0.0252455 -0.0323053 0.00381493 0.0222071 -0.035018 0.00356873 
0.0213244 -0.0311081 0.00371322 0.028945 -0.0342297 0.00409364 0.0258347 -0.0368063 0.00394012 
0.0223147 -0.0390612 0.00388796 0.0285892 -0.0301083 0.00401868 0.0203161 -0.0360142 0.00708468 
0.0237858 -0.0339398 0.00717077 0.0273562 -0.0357367 0.00750273 0.0271221 -0.0316269 0.00747986 
0.0240185 -0.0380207 0.00737208 0.0205574 -0.0400069 0.00791203 0.0216655 -0.0320495 0.0100325 
0.0294487 -0.0339318 0.0104219 0.0224711 -0.0359751 0.0104571 0.0254922 -0.0332971 0.010743 
0.0285168 -0.0301431 0.0113997 0.0213598 -0.0395725 0.0123531 0.031782 -0.0318312 0.00576384 
0.0323349 -0.0312539 0.00970564 -0.0401405 -0.0202458 0.0111565 -0.036193 -0.0267106 0.0038429 
-0.0399492 -0.0207062 0.00361066 -0.0328751 -0.0289877 0.00379426 -0.0302476 -0.0253336 0.00385258 
-0.0329563 -0.0213412 0.0043273 -0.0366657 -0.022824 0.00466914 -0.0335089 -0.0248012 0.00629021 
-0.0307812 -0.0276997 0.00704766 -0.0347914 -0.0284673 0.00726772 -0.0392323 -0.0219541 0.00762316 
-0.0371318 -0.025337 0.00812121 -0.0311966 -0.0221873 0.00826006 -0.0352574 -0.0217209 0.00830576 
-0.0335852 -0.0247554 0.0103196 -0.0326479 -0.0286298 0.0106537 -0.0382168 -0.0237457 0.0116578 
-0.0352419 -0.0211165 0.0122744 -0.0313681 -0.0221759 0.0124433 -0.028987 -0.021535 0.00380218 
-0.0250179 -0.0210427 0.00389664 -0.0213611 -0.0273506 0.00394091 -0.0288542 -0.0290998 0.0036451 
-0.02176 -0.0233679 0.00398554 -0.0253405 -0.0252887 0.00414104 -0.0248733 -0.029275 0.00400937 
-0.0277306 -0.0236848 0.00693821 -0.0229864 -0.0259662 0.00734217 -0.0267066 -0.0275433 0.00741094 
-0.02411 -0.0221326 0.00770982 -0.0288712 -0.0298955 0.00985723 -0.0295841 -0.0253797 0.0100981 
-0.0255033 -0.0248845 0.0102652 -0.0278816 -0.0216729 0.0105031 -0.0217501 -0.0235718 0.010784 
-0.02201 -0.0276919 0.0108957 -0.024173 -0.0204339 0.0113469 -0.01848 -0.0210549 0.00384681 
-0.0144069 -0.027131 0.00384682 -0.0180811 -0.0250601 0.00394667 -0.011277 -0.0245507 0.00400042 
-0.0147001 -0.0224563 0.00386475 -0.0178312 -0.0292171 0.00421532 -0.0111299 -0.0204762 0.00406244 
-0.0120338 -0.0288295 0.0065964 -0.0156245 -0.0250198 0.00713931 -0.0194424 -0.0231148 0.00724086 
-0.0124837 -0.0225247 0.00723181 -0.0198673 -0.0284803 0.00760642 -0.0104787 -0.025785 0.00876934 
-0.014112 -0.0276076 0.00980087 -0.0182844 -0.0257267 0.0100445 -0.0181449 -0.0217983 0.0108376 
-0.0104471 -0.0292962 0.0106946 -0.0146968 -0.0238232 0.0109636 -0.0111202 -0.0216814 0.0108996 
-0.00902258 -0.0278658 0.00412318 -0.00467592 -0.0234681 0.00385955 -0.00713237 -0.0203142 0.00414212 
-0.00059279 -0.0231797 0.00394966 -0.00115292 -0.0271455 0.00406591 -0.00512677 -0.0273211 0.00485571 
-0.00780492 -0.0241528 0.00628088 -0.000931046 -0.0209401 0.00724801 -0.00284914 -0.0244504 0.00731208 
-0.00895389 -0.0205871 0.00769378 -0.00498246 -0.021061 0.00764185 -0.000275682 -0.0298637 0.0070002 
-0.00602689 -0.0267815 0.00871848 -0.00223819 -0.0276261 0.0096871 -0.00752415 -0.0233433 0.0102405 
-0.00185021 -0.0239557 0.0114334 -0.00102937 -0.0200247 0.0111613 -0.00494439 -0.0206533 0.0117044 
-0.00780066 -0.0267571 0.0123079 0.00647554 -0.0245951 0.00430383 0.00952411 -0.0273119 0.0038456 
0.00566284 -0.0285498 0.00389059 0.00185792 -0.0297732 0.00354422 0.00344769 -0.0219404 0.00403747 
0.00263988 -0.0258581 0.0040361 0.00655615 -0.0210758 0.00640408 0.00785455 -0.0287177 0.00732892 
0.00115305 -0.0243507 0.00744357 0.00488931 -0.0260159 0.0077058 0.00178128 -0.0276528 0.00962383 
0.00622279 -0.0229735 0.00994175 0.0023732 -0.0220284 0.0105137 0.00749982 -0.0266844 0.0110449 
0.00895863 -0.0203169 0.0113778 0.00387958 -0.0253934 0.0121882 0.0173524 -0.0269228 0.00330485 
0.0137873 -0.0249953 0.00357119 0.016985 -0.0223709 0.00372377 0.0132291 -0.0209186 0.00384392 
0.0102741 -0.0234296 0.00488944 0.0124972 -0.0275987 0.00661744 0.0176395 -0.0248585 0.00682678 
0.0163132 -0.0286641 0.00717458 0.018593 -0.0210034 0.00731472 0.0135242 -0.023116 0.00723182 
0.0104507 -0.0204809 0.00764492 0.0100777 -0.0245688 0.00875136 0.0135867 -0.0259469 0.0100957 
0.0107831 -0.0287999 0.0100685 0.0163404 -0.0228291 0.0100953 0.0175208 -0.0266389 0.0104254 
0.0124748 -0.0222141 0.0110054 0.0245488 -0.0238133 0.00350042 0.0236926 -0.0278609 0.00356182 
0.0205439 -0.024541 0.00379963 0.0282598 -0.0210427 0.00350388 0.0204214 -0.0200799 0.00342552 
0.0270236 -0.0264859 0.00530231 0.0201054 -0.0280166 0.00602637 0.0223587 -0.0220445 0.00635584 
0.0263956 -0.0224072 0.00681189 0.0234452 -0.0299262 0.00713042 0.0232994 -0.0258688 0.00717786 
0.0299139 -0.0287569 0.00757285 0.0290386 -0.0249379 0.00845333 0.0262868 -0.0278072 0.00901481 
0.0205642 -0.0239401 0.00939875 0.0212274 -0.0280523 0.00989491 0.0281071 -0.0203378 0.010203 
0.0251774 -0.024023 0.0102627 0.0243416 -0.0296603 0.0119838 0.0204965 -0.0200362 0.0107412 
0.0303495 -0.0244138 0.00406374 0.0343437 -0.023116 0.00401007 0.0383311 -0.023397 0.00420982 
0.0361029 -0.0268388 0.00423775 0.0321334 -0.028141 0.00426062 0.0345315 -0.0288032 0.00743009 
0.032854 -0.0251713 0.00710928 0.0383133 -0.020993 0.00746391 0.0307568 -0.0214538 0.00741936 
0.0373062 -0.0250533 0.00771574 0.034666 -0.0230266 0.0100478 0.031825 -0.0269109 0.0105631 
0.038585 -0.0229813 0.0109332 0.0364326 -0.0263524 0.0114457 0.0308727 -0.0229938 0.0114502 
[...]
POINT_DATA 5999
FIELD FieldData 7
id 1 5999 int
544 514 482 477 215 124 474 532 780 
144 333 828 27 454 161 414 625 218 
866 40 1461 328 1092 1037 856 589 877 
250 122 18 455 885 1323 67 995 307 
901 495 430 1119 1350 531 1045 19 1213 
862 120 97 520 924 598 1044 505 200 
1171 680 100 1270 390 1098 282 107 52 
135 145 379 228 551 450 407 271 1506 
153 1328 1575 1164 1828 1995 1620 647 1861 
53 263 1095 426 158 257 242 194 209 
464 10 1286 981 1650 452 1289 1834 408 
476 501 336 706 1008 773 138 596 185 
83 400 892 233 1446 1232 665 772 2165 
203 246 230 992 364 41 404 777 567 
338 109 1033 391 1067 1632 907 696 707 
1580 1471 852 1677 46 247 608 760 245 
690 397 47 1358 605 1387 968 1792 1284 
1608 1434 147 449 1850 154 340 1678 557 
1316 966 115 274 440 512 285 1280 675 
580 443 764 750 1188 1013 323 889 1019 
344 378 434 816 623 874 33 713 1005 
94 254 1162 488 183 198 548 1563 294 
669 946 11 724 63 502 302 49 402 
1476 119 55 1043 953 1639 1463 2042 1836 
704 546 1015 174 424 199 1166 1418 1028 
711 1640 515 818 1331 1242 1023 1647 1605 
1059 469 365 952 776 504 684 371 633 
1676 1285 1179 534 2285 1789 1855 1159 114 
276 8 149 758 918 641 102 392 937 
2221 1754 943 1697 1862 1074 1609 310 614 
1042 876 396 54 844 1036 858 1176 1412 
248 2136 442 1217 1191 1491 785 69 1406 
112 210 516 509 401 90 382 267 1114 
22 689 617 643 652 471 861 136 413 
249 1057 921 1327 2328 437 349 787 348 
1107 659 57 223 525 703 803 741 639 
824 1064 1389 1113 578 1398 131 360 281 
550 163 650 68 1537 125 533 1325 243 
668 854 1407 1683 963 977 1345 2129 664 
311 84 374 345 487 674 1623 1208 1722 
1055 697 7 1448 1672 9 2047 832 296 
429 99 113 42 815 190 951 201 964 
808 403 747 990 986 179 1525 888 205 
616 66 1126 293 1338 38 718 1152 994 
1482 1404 1174 1012 2128 1684 1644 1572 1240 
168 1144 1494 317 875 1185 353 980 833 
622 1177 1497 1710 726 270 1377 1913 1960 
630 848 39 1077 117 256 1083 635 291 
859 1288 819 1508 1330 1931 1383 240 987 
1369 2312 1223 1199 350 528 962 461 1035 
231 523 123 779 679 1775 43 927 1132 
1319 834 518 1243 2278 86 142 423 314 
590 739 754 1276 372 1214 1262 853 1355 
692 139 1372 1324 1222 749 894 1503 802 
686 417 134 92 1123 1584 399 1212 562 
615 1961 1118 1679 898 222 1196 25 1096 
20 783 126 558 72 1359 1772 1233 1830 
826 202 613 767 881 941 1500 1071 731 
485 447 354 906 1333 619 884 1443 369 
1231 1310 1235 1429 1548 2307 175 821 221 
58 584 612 1101 1133 545 496 278 1130 
1295 1618 376 1622 508 1099 1822 1105 931 
903 342 445 543 500 831 1586 1140 1509 
2104 869 575 1003 491 1839 489 441 427 
627 1481 1486 710 1027 1088 1569 830 1876 
1728 695 1030 1366 1964 1125 479 1529 483 
967 784 1142 322 900 1692 855 537 1674 
1202 1281 1845 1181 1444 893 1630 1967 1279 
788 73 410 393 421 1161 896 389 1120 
933 1100 658 1145 1060 1886 1982 1702 1493 
1399 1032 458 48 108 1180 842 751 137 
1945 1041 1914 1517 914 241 367 418 1151 
693 796 1011 870 1557 1948 1006 604 1014 
292 105 1516 1009 781 1334 24 511 1228 
756 873 1221 1038 1353 835 12 857 766 
224 755 813 742 1351 775 610 890 654 
1744 982 1111 867 1225 110 983 1842 16 
5 463 23 1269 330 607 702 499 920 
1131 1567 1522 1928 794 1362 2362 1158 998 
1254 1128 352 77 594 462 727 1512 677 
667 682 1871 947 2018 843 1907 237 229 
206 78 1460 1277 346 563 845 840 526 
1395 280 1300 300 355 1226 942 878 1480 
838 728 717 170 886 763 1106 193 1168 
370 678 1238 309 587 792 1428 1320 1148 
570 1305 305 498 375 734 560 517 384 
127 297 719 189 362 1054 188 565 431 
1089 148 935 1478 81 432 286 934 956 
171 730 975 527 1010 1487 1796 1831 1139 
993 723 473 128 320 712 377 564 1426 
984 1778 503 1112 380 88 1197 1080 1149 
1297 1450 1301 1673 673 1073 155 313 1613 
341 295 919 101 1294 1439 1576 922 2248 
632 232 817 182 586 847 745 1066 265 
716 239 1523 1018 1090 167 1052 2279 1078 
971 949 1024 535 387 915 214 657 827 
303 988 419 32 588 778 1344 1884 1255 
1936 700 394 836 165 592 244 298 1086 
331 572 1193 70 1490 1430 1335 29 737 
1879 1972 436 287 519 868 334 691 1237 
36 301 1020 746 1153 676 420 2114 453 
911 273 631 640 191 260 721 996 64 
326 541 216 974 1150 1085 180 1311 979 
930 484 164 809 87 315 98 579 671 
80 79 225 283 646 955 186 130 709 
958 609 648 1976 1682 910 356 3 1040 
266 337 576 480 626 448 238 765 368 
1321 1271 1069 554 561 405 75 159 944 
524 1583 50 1400 1384 103 361 1124 197 
347 316 522 656 849 573 51 2 1135 
13 1532 740 60 1566 620 288 954 104 
21 1016 1097 212 412 923 891 600 1022 
688 841 1604 1459 1560 435 559 1072 736 
1220 146 660 388 472 93 357 771 1346 
439 925 1343 1349 1617 1449 1726 790 1257 
715 556 91 839 425 880 926 62 1442 
258 1004 603 1819 1001 2406 1394 1897 774 
325 521 76 160 290 121 152 1248 1246 
791 957 683 793 618 1309 1156 284 1540 
681 644 1510 1625 628 332 28 406 569 
386 599 35 272 277 251 725 1436 373 
685 846 698 177 1103 478 748 235 1611 
929 312 1227 329 1670 738 976 820 638 
547 1695 752 1582 965 116 428 226 1368 
227 799 95 1205 991 571 850 85 34 
1273 804 1267 928 1655 151 1899 705 220 
1084 582 1053 1136 306 61 383 1165 1296 
1875 2460 169 1873 1764 1172 255 96 851 
304 513 1725 339 275 798 89 14 1298 
1287 196 624 2055 1534 1134 118 409 629 
1703 133 204 1745 2007 1571 1641 2049 1160 
1868 1475 1410 1303 181 1484 259 642 299 
264 973 649 166 1068 811 591 1000 2146 
486 184 1167 538 1631 261 140 1117 529 
15 6 636 45 321 438 324 30 666 
1504 490 1108 645 1651 759 1542 1591 577 
173 289 213 769 916 507 433 195 415 
59 143 157 1249 583 801 466 327 786 
1752 129 475 1025 1173 999 234 593 1147 
141 899 497 207 904 132 1290 552 510 
729 1495 56 269 762 156 111 701 395 
530 422 451 1209 621 542 1816 1390 1980 
2081 217 268 1489 829 343 446 1189 768 
162 909 1790 735 1856 2690 1717 2680 882 
2618 1 913 602 1245 3284 2196 2046 2641 
2257 2100 1765 178 26 1386 601 2289 1638 
1259 1598 3160 2845 864 2254 2633 2720 1433 
1278 2195 2349 1477 997 1392 969 797 1194 
1957 2073 1564 1869 699 782 2303 2247 1581 
2847 2102 795 566 1326 2364 1079 2621 2464 
1547 2275 2245 1603 2987 1299 1783 3013 2421 
2417 1661 65 1589 1846 1774 1602 1882 1705 
219 2527 1649 2157 1690 2612 2121 1590 2106 
1681 2084 2526 1626 2098 883 1999 1498 1878 
1718 2031 457 1175 1488 1420 2003 2825 1146 
2351 2383 1800 2959 1688 1411 1614 1533 2472 
2455 2187 1906 2624 2684 1543 1421 1365 1251 
1169 1519 1981 3008 2377 2075 2355 2932 2606 
2517 3464 2545 3215 1485 1756 2295 2735 2027 
411 662 1341 1187 1186 2416 687 1952 2044 
1058 1937 465 2560 2611 2689 2538 574 1416 
493 279 1017 1275 1949 2300 2143 1733 1771 
2391 2646 1382 2314 1991 2493 2601 2041 744 
1785 2067 2781 2347 1026 2145 1633 2185 1470 
1779 3348 2869 2008 2613 3094 1746 2746 3425 
905 1843 1734 1768 1943 1538 2150 1437 2292 
1696 2427 2305 1253 2291 1619 2812 2767 2396 
3297 3027 1944 1283 2065 2092 1883 2191 1654 
1908 970 2470 2009 3082 2661 2532 2510 1983 
1376 1727 1414 938 2109 1274 1550 1170 1691 
2345 1483 1919 1456 1686 1405 1953 2511 2015 
1978 2468 2765 2953 3079 1468 2296 872 1182 
1258 2161 1780 1659 540 2408 1699 1693 2562 
2522 1989 2964 1716 3175 2423 800 1047 1652 
902 1962 1224 2053 1403 1954 37 2013 2173 
2329 2298 2943 3024 1178 1829 506 2776 1093 
2271 1378 2859 2429 319 961 1265 1592 2228 
1680 1184 2004 2743 1968 1858 1607 2667 2061 
2886 1065 1887 1773 2491 1561 1844 106 1354 
1955 2066 2557 1848 2430 2779 2226 2057 2142 
2282 722 2177 3156 2816 2668 2708 1594 655 
1749 2209 2113 1687 2304 1562 2714 1794 1662 
3173 2151 2794 1917 2399 2103 2674 1201 1597 
1555 2093 1595 1814 2728 1881 807 1408 1636 
2190 1988 2916 2182 2944 1210 1753 2490 1701 
1076 1061 211 1203 1979 1966 1070 939 1671 
1668 2600 1264 2804 2333 1852 1628 1413 1183 
1272 2091 1763 1141 2594 2549 2666 2050 1824 
2671 2111 2409 1840 2846 3158 2687 2520 1256 
611 1552 806 2277 2301 2652 1087 2317 2179 
2440 2745 2071 2420 1767 1347 1811 1417 1308 
1685 2426 1958 1642 1219 1198 2181 2709 2370 
2322 2361 1531 252 805 2565 1293 1905 1658 
2116 653 2205 1397 1893 2366 1730 2665 1539 
1924 2935 1329 1385 985 1860 1250 1505 1215 
1835 1759 1776 2774 2163 2141 2688 1969 2773 
3258 2206 2082 2373 3029 2482 978 318 2194 
2014 1318 863 1268 2348 2548 1902 2796 1793 
2712 1723 1431 2861 1807 2875 1938 3455 1472 
694 1317 581 2299 1109 1127 1643 1315 1363 
1396 2006 1993 1736 1200 1452 1815 1994 1587 
1081 1536 1374 661 1380 1513 1155 2478 1507 
2172 2577 1704 2392 1568 1558 2786 2521 1051 
1091 1356 1263 2021 1479 1340 1588 2297 1888 
1216 1927 1454 2531 1637 2130 2326 2595 2737 
2820 3012 2038 1809 1425 1049 865 1634 1838 
1206 2449 2607 1694 2215 2603 2357 1786 2978 
1545 2676 3003 812 1492 1348 2159 2210 714 
2240 1094 1447 2256 1833 1920 2118 2699 2193 
2192 2346 959 1925 1332 1921 1629 2395 753 
1663 1832 2086 1732 1660 1689 1941 1900 1577 
1935 1573 1391 1137 536 172 1863 1813 2466 
1653 1803 2422 2770 879 1624 2451 2036 1616 
2290 1805 3499 1735 1946 3149 2043 1122 1719 
1002 2200 2037 2052 860 2852 1440 1769 2488 
1357 585 2453 2024 2537 1502 2232 2441 1885 
1762 1990 2068 2473 2827 2677 2001 2139 1804 
1435 1252 1496 2379 1992 2154 2258 1808 1998 
2762 871 2026 2079 2077 2439 2424 2752 351 
743 1975 1615 1361 1821 2425 2140 1600 2716 
2546 945 2356 1729 1909 1739 1585 2564 1825 
1720 1455 1260 1787 1342 1541 2335 2589 2458 
1599 2112 1292 2094 2830 2630 2132 2573 2657 
381 606 1518 761 1895 1750 1593 1578 1521 
1466 2124 1432 2095 2500 1851 1820 2887 2404 
1039 1707 555 1381 1046 814 1129 770 1501 
1304 1360 1648 1646 1549 2503 2636 1798 1956 
1445 253 31 1063 1306 1031 2264 2074 2400 
1244 1911 1515 2459 1933 2584 1738 2638 1621 
1915 2682 1977 1812 1291 187 757 2072 1528 
1761 1810 1797 1104 2651 2269 1524 2431 2445 
1874 2462 2017 2985 2934 2319 366 1370 2237 
2176 1940 1110 1352 2242 789 1312 1553 1499 
2260 1675 1910 1007 2414 2839 1526 2529 2701 
3053 1706 2799 1409 2342 2587 3050 1826 1870 
1714 2034 2398 1556 1997 1419 672 2367 2123 
2386 2178 3047 2902 2923 2352 2214 2274 1731 
3234 1337 459 733 1462 1339 2133 1574 2012 
1218 2238 1740 2759 2199 1465 1892 1204 2543 
2452 1154 1546 1721 1664 82 1766 1747 2108 
1898 2658 950 2287 2167 2447 3105 1451 1799 
2213 1402 1535 822 568 553 1743 932 1302 
1415 1241 1970 1229 2324 2336 2702 2888 2029 
2230 236 2649 940 1021 708 2115 2148 1469 
549 1082 2156 1190 1880 1075 2340 2924 2175 
2456 2321 2751 1872 2288 150 887 74 1236 
358 1230 1115 2375 810 539 1511 1559 1666 
1457 2186 1527 1709 2281 481 1207 1056 1963 
1441 1138 2020 2768 2019 1984 1247 1029 1379 
2152 1849 1827 2598 2212 1192 1234 1427 1635 
2898 1742 2495 2010 2225 2446 2318 2134 2223 
2750 2660 1665 1656 1748 2622 2626 2592 2265 
2174 2331 1818 2602 3307 2376 2578 71 1373 
1048 1551 2119 2160 2837 2283 2259 3031 1939 
1853 2900 2547 2810 3232 2691 3280 3712 1367 
1102 2051 470 1971 2910 948 2155 2101 2022 
1801 1596 3017 2502 2310 3045 2397 1864 2729 
2561 3287 1934 1669 2039 1841 1314 2203 2583 
634 2559 3010 2063 2089 2494 2078 2727 3153 
1859 456 416 2158 960 2090 2272 1375 444 
2040 1698 1712 1912 2711 2590 1473 2580 2822 
2936 192 2035 1424 1467 2219 1163 1565 637 
1393 2410 2000 2054 1322 897 1601 2957 2784 
2360 3371 2627 363 1423 1261 17 2198 972 
494 1121 2138 460 1757 1544 2076 2188 2903 
3270 2988 2401 1959 2380 2766 1388 468 1867 
1116 2629 2243 2032 2064 2956 1715 1474 2394 
262 2670 2948 3372 2706 2170 2764 308 1755 
2030 1923 1932 1760 1612 2434 2234 1788 2236 
1791 2513 2033 2942 2872 3400 2270 2593 2023 
4 2127 1795 2284 2403 2211 597 2197 2180 
2099 2411 2575 2586 2350 3201 1514 1195 917 
1401 2474 1758 2813 1903 2992 1926 1034 3004 
1610 1645 1724 651 176 1627 1453 1050 823 
2497 1891 1313 2302 1770 2229 2369 2692 3561 
3341 1336 1713 359 1579 989 2110 1708 1422 
1282 825 2147 2235 2523 2412 2778 2909 2585 
1307 1554 2381 2060 908 1266 1530 2372 2126 
2501 3172 670 1364 1239 1062 2542 1951 1973 
1823 2856 2002 1837 2937 3176 1922 2384 2327 
1657 1211 2569 3162 2970 3487 1570 1143 2514 
335 2056 2131 2122 2843 2554 2775 2518 2866 
3255 3718 3086 3465 2999 2528 2911 2938 3002 
2069 3106 2435 2685 3493 2771 3288 2742 3808 
3564 3155 2713 3025 3142 3955 3289 3713 2879 
3722 3446 3279 2718 2686 1996 3703 2507 4216 
1777 2508 2918 3331 2250 2977 2512 492 2341 
2588 3540 2801 3235 2623 3845 3639 2864 4060 
4618 4200 2634 2208 2963 3098 3529 2862 2851 
2262 2096 3319 3677 3471 3822 2783 2891 3032 
3790 3077 4129 2840 2968 2433 3636 3413 2958 
4100 3362 3707 2308 3844 3334 3194 3723 3148 
4149 3405 3302 3632 3523 2833 2975 2761 2506 
3033 3256 3099 2487 3315 3682 4002 3361 3472 
2371 3433 3831 3913 3763 3060 2418 2378 2448 
3174 3271 3095 3207 3378 3761 2930 3152 3165 
4248 3766 3967 3618 3379 4066 3734 2871 3187 
3650 2855 2332 4051 2499 2747 2467 2616 3768 
3350 3623 4439 4211 3894 3800 2809 3311 2553 
1802 2675 1865 2806 2443 2669 2568 2877 2339 
2533 1950 2596 3537 3048 3500 3437 3578 2135 
1458 3193 2645 2483 2556 2330 3469 2239 3125 
2597 3313 3847 2740 3067 2189 4279 3411 3391 
3851 3111 3037 2929 4647 4255 2834 4389 3662 
3833 3450 3303 2516 2795 3122 3492 2498 3221 
3920 2966 3325 2904 3449 2721 3052 4000 2276 
2183 2368 2486 2120 3539 2673 2505 3360 3346 
2821 2628 2438 3186 4056 3676 3983 2832 4521 
2048 1866 2402 3249 2824 2739 3553 2808 3078 
2088 3041 3522 3599 2842 2907 3103 3188 3907 
3794 3527 2515 2338 2415 2280 3015 3699 2848 
2659 3028 3721 2365 3769 3572 3751 3226 3353 
3898 4317 3714 3806 3412 4198 3124 2105 1737 
2025 2450 1711 1817 2216 3828 3199 2896 3365 
2648 3096 3370 2656 2639 2610 3238 3789 2867 
3774 2385 2359 3252 1700 2576 2389 3451 2787 
2829 2805 2268 4089 3799 3743 3477 3615 3476 
3826 3753 3482 2363 3375 2387 3247 2858 2880 
2231 2983 3614 3345 3309 3000 3169 3260 3813 
3594 3462 3415 3317 2457 3072 1781 3338 2581 
3005 2477 2168 2696 3388 2354 3651 3931 3166 
2870 3040 1942 3180 2694 2693 2838 2788 2984 
2857 2927 3020 4259 3829 3624 1889 3286 2736 
2540 3772 3679 3143 3418 3183 3848 3457 3402 
3974 4134 2432 3211 3690 2519 3208 2461 3090 
3616 3306 3979 3695 3244 3259 3730 2698 3897 
4525 4291 1965 2005 1987 2717 3924 2732 3542 
2241 3508 1741 3590 2954 3825 3504 4232 2726 
4253 3705 3167 2757 4113 3557 2769 2860 3706 
3392 2083 2579 3063 2202 3185 2286 3227 2558 
4281 3339 1896 2939 1667 3368 3445 3881 2544 
4075 3611 3921 4699 3571 4590 1890 3250 3620 
1916 2883 3548 3001 2995 3100 3692 3427 4306 
3649 2772 2251 3039 2444 3892 1806 3150 3140 
3466 3746 4154 3157 3222 3422 1877 2207 2989 
2678 2407 2922 2897 3890 2915 3767 2894 3563 
2993 3237 3399 3136 3236 3926 2950 3453 2263 
2704 2741 2484 2541 2683 2819 3927 3748 3952 
4125 2863 3214 2323 2536 2309 2481 3326 3327 
2567 3941 3545 2998 2617 2914 3229 3638 2707 
3685 2534 3189 2405 2059 2125 1985 3129 2895 
2986 3066 3163 2293 3428 3272 3107 3030 2885 
3569 3336 2614 3097 3075 2947 2571 3925 3810 
4237 2220 2798 3257 1901 2749 2343 2835 2539 
3333 3181 3498 4454 3393 3408 4112 3356 3622 
2940 2814 2881 3363 3316 3858 2780 3935 2850 
3762 3431 3278 3506 3633 2951 3757 3981 3877 
3568 4233 4069 3324 4394 4207 4465 3387 3694 
3023 3864 3246 2572 2899 3121 2169 2941 2344 
2653 2912 3530 3007 2928 3230 3243 2070 2647 
2222 2504 2325 2306 2722 2849 2476 3574 2632 
2828 3016 2733 3470 3084 2358 2756 3022 4217 
3663 2969 2217 2164 2844 3112 3179 3071 2738 
2393 2465 3308 2570 2642 2552 2991 2971 3161 
2599 3796 2807 3197 2965 1930 2724 2865 2854 
2204 3009 2313 1857 2990 2337 2320 3109 2997 
3617 2920 2815 3501 4020 2442 2725 3196 2249 
2218 3485 2382 2620 2524 3351 2931 3602 3135 
3948 3668 2817 2893 2926 3601 2316 3054 2802 
3273 3439 2919 3486 2797 2972 3164 3305 4365 
3673 4083 4165 3117 3018 2994 2253 3312 3666 
3582 3088 3795 4053 2011 3505 2763 3429 3842 
3177 2906 2615 3006 3390 3085 2604 2374 2785 
3014 3874 3552 2643 4081 3686 4137 3479 4203 
2413 2789 3700 2890 2471 3489 3448 3480 3093 
3300 4309 3702 3239 3775 3359 2960 3575 3110 
2436 1947 2480 2273 3373 3337 2697 3213 3087 
2803 4077 3827 3945 4193 3991 3950 3816 3395 
4472 3749 3805 4116 4097 2826 3719 4736 3159 
2201 2608 2016 2162 2961 2908 2535 3403 4017 
3123 3871 3419 3835 3777 2792 2428 3720 3383 
3541 3653 2492 1894 3463 2137 3398 1918 2753 
2555 1854 2609 2723 1974 2463 3295 3491 4187 
4163 3233 3343 3277 2625 3304 2045 2730 3756 
2233 3494 2925 3329 3299 3314 3262 2889 3975 
4425 4201 2334 3661 3251 2982 2654 2261 2655 
2933 2153 1847 3432 2679 2437 1904 3741 3074 
3760 3394 2353 3832 3533 4288 2700 2962 2227 
2705 3151 3182 3146 2224 3068 2744 3138 3070 
2605 2734 2681 3178 3785 3900 2853 3660 4058 
4215 3554 3223 3042 3980 2097 2315 3170 2715 
4228 3546 2672 2731 3737 3318 2800 3732 4252 
4250 4174 3716 4219 4591 2841 2525 2469 3733 
3190 2635 3803 3224 3296 4108 3627 3968 3930 
3629 3876 3051 4152 4047 2981 3274 3225 2244 
2184 2496 2062 3893 2952 3065 3745 2619 3559 
2917 3793 3626 3036 3407 2550 3878 2644 3301 
3219 3358 3330 3369 3436 3836 2551 4041 3969 
3354 3597 3917 3697 3643 3291 2390 2087 2882 
3202 2703 2949 2311 2650 3267 2884 2874 2485 
3091 3929 4078 3216 2719 3688 3145 2748 3116 
3818 2591 2475 3367 3248 3736 3269 3901 3240 
4107 3531 4055 3916 1784 2080 3292 2663 2831 
3212 3397 2388 3119 2892 3704 3352 3290 3787 
3519 3141 3389 2876 3603 2913 3671 2631 2171 
2107 2945 3114 3747 2582 3034 3507 3495 3154 
3454 3421 4391 3132 3798 3691 3802 2563 3460 
2294 3293 3081 3939 3937 3357 3059 3562 2791 
3069 3521 4505 3321 3535 4336 4044 3171 3266 
3073 3895 3263 4035 3565 3517 4194 3342 3355 
4578 3322 3430 4300 2758 3442 3752 3684 3646 
3683 2489 3049 4096 3192 4009 4118 2905 4316 
4212 2255 3435 3444 2793 2085 1520 2811 3823 
3467 3843 4087 3934 4459 3080 3503 2878 3203 
3664 4305 2144 3406 3401 2246 3268 2637 3115 
2058 2479 3396 3884 3026 2028 4091 3076 3709 
4043 4346 2662 3386 3038 3217 3738 2266 3285 
3912 2695 4500 3701 3120 2530 2574 3591 3783 
3410 3320 3759 3606 4426 4223 3583 3254 4314 
3089 3538 3525 3641 3581 3573 3310 3964 4119 
2868 3630 3046 4455 3807 4526 5330 3580 3657 
3532 4584 5136 3509 2836 3804 4039 3282 3118 
3335 4166 3792 3834 3056 3958 4464 4734 4267 
4973 3875 3961 3902 3919 4147 4367 4497 3972 
3607 4124 3404 3862 3758 5177 4098 4168 4709 
5972 4433 4510 4422 3440 3058 3778 3654 3276 
4392 5006 4636 5163 6024 5520 4151 5237 5934 
5758 4358 3195 3985 3727 3547 3670 3977 4257 
4360 4276 4894 3933 3567 5578 5978 4139 4326 
4388 2955 4310 3764 3349 4475 4286 3147 4398 
4318 5017 5394 4733 3735 4416 4642 4072 4738 
4270 4918 4390 4818 5772 4285 5312 4954 5159 
4640 5002 4509 5191 3675 2967 3711 3083 4375 
4038 5535 4609 4027 4997 5137 3797 5811 4415 
4661 5349 4086 3708 3811 3868 3883 3717 4456 
4395 4451 4536 4891 5032 4424 5056 4771 4054 
5911 4421 2973 3478 4188 4460 4251 5621 4241 
5523 4418 5246 5309 5635 4170 2946 4637 4813 
3715 4371 4420 4169 5082 4664 4463 4550 4580 
5157 5354 3918 3512 4480 3516 3993 4632 3264 
4496 4284 4567 4225 4520 3947 3729 5409 3906 
4581 5364 4007 4946 4705 4775 4361 4366 4136 
4742 4543 4619 5340 4458 5360 4809 4563 4354 
4537 6002 4706 5390 5414 2980 4093 4993 3771 
4797 4648 4321 4707 4838 5734 5116 4777 5155 
5667 3990 5425 3347 4161 4202 4290 4519 4003 
4783 4453 4539 4680 4123 4667 5320 4916 5582 
3995 3534 4559 2976 3298 2777 3674 4012 4696 
5112 4068 3923 4410 5262 5126 5849 3556 3528 
4240 4444 3943 4413 5228 3409 3642 3754 4065 
4646 4001 4957 4071 4409 3518 4403 3231 4130 
4560 3126 3908 5739 5007 5516 5490 4504 3101 
3634 3468 3242 3459 3963 4175 3956 3328 3809 
4745 4191 4343 4019 3773 3681 3344 4700 3376 
3821 4205 4924 4523 4117 3992 4980 5154 4405 
5770 4502 5905 3987 3672 3640 3204 3323 4466 
4328 3944 4914 3481 4064 4572 3294 3423 4819 
4611 5197 5846 4449 4150 3253 4387 3951 3988 
4127 3281 3817 4110 4376 3998 5284 4213 4440 
5973 4881 4120 3849 3861 3011 4374 4600 4729 
3853 3434 4876 5367 4517 3971 5759 4654 5181 
4432 3092 4545 3377 3474 4359 3526 4242 4793 
3814 3784 4171 5038 4324 4088 5698 3655 3788 
4575 4490 4268 5597 5039 4448 2664 4833 4806 
3860 4485 4406 4635 5595 5553 4133 4597 4046 
3886 4477 4754 5026 4970 4971 3882 5688 5469 
4180 4773 4059 5100 3973 4103 3819 4084 3596 