# vtk DataFile Version 4.2
Generated by LIGGGHTS
ASCII
DATASET POLYDATA
POINTS 5999 float
-0.0178514 -0.0413115 0.00400348 -0.014083 -0.0426526 0.00399959 -0.0100953 -0.0429552 0.00400131 
-0.00642645 -0.0445463 0.00399959 -0.00243982 -0.0442374 0.00399969 -0.00687845 -0.0405774 0.00417923 
-0.00297922 -0.0404201 0.00507053 0.00893171 -0.0440914 0.00399842 0.00149253 -0.0449611 0.00399942 
0.00504945 -0.0431354 0.0040168 0.00222363 -0.0403048 0.00399943 0.0152139 -0.0417744 0.00399942 
0.0121798 -0.0433135 0.00619551 -0.0306928 -0.032911 0.0039996 -0.024872 -0.037477 0.00400049 
-0.0213084 -0.0392985 0.00399991 -0.0213809 -0.0312089 0.00423491 -0.0213985 -0.0353 0.00399915 
-0.0248222 -0.0332326 0.00399943 -0.02788 -0.0353128 0.00552065 -0.0178322 -0.0372803 0.00399927 
-0.0103359 -0.0324332 0.00400796 -0.0144358 -0.0351638 0.00399929 -0.014167 -0.0308111 0.00399883 
-0.0179537 -0.0332644 0.00408746 -0.0117345 -0.0393067 0.00399979 -0.00851528 -0.0369336 0.0039983 
-0.00618633 -0.031096 0.00400181 -0.00221091 -0.0306226 0.00399935 -0.000568482 -0.0373892 0.00399984 
-0.00346536 -0.0345815 0.00428652 0.00640553 -0.0393737 0.00399871 0.00746897 -0.0353909 0.00399958 
0.00854009 -0.0315375 0.00399968 0.00333575 -0.0364626 0.00399946 0.00449918 -0.0326193 0.00400047 
0.000552062 -0.0335484 0.00399954 0.0186247 -0.0389521 0.00399888 0.0105646 -0.0395136 0.00399975 
0.0144635 -0.036963 0.00399841 0.0171303 -0.0311349 0.00399982 0.0128632 -0.03061 0.00400197 
0.0113863 -0.0343513 0.00401702 0.0181861 -0.0349845 0.00423769 0.0147348 -0.0335633 0.00608682 
0.0259689 -0.0367184 0.00399957 0.022191 -0.0348307 0.00399911 0.0211708 -0.0309633 0.00399968 
0.0226234 -0.0389098 0.00399923 0.0289001 -0.0339909 0.00400103 0.0252107 -0.0322088 0.00402901 
0.0285301 -0.0299791 0.00399899 0.0319544 -0.0316631 0.00520018 -0.0397783 -0.0210468 0.00399834 
-0.032893 -0.0295708 0.00400013 -0.032506 -0.0219128 0.00399915 -0.0359771 -0.027025 0.00405793 
-0.0363289 -0.0230485 0.00429864 -0.0300562 -0.0254198 0.00400184 -0.0288969 -0.0292658 0.00399892 
-0.021443 -0.0272174 0.0039983 -0.028511 -0.0217237 0.00399913 -0.0248975 -0.0292336 0.00401959 
-0.0220812 -0.0232669 0.00399964 -0.0247717 -0.020305 0.00399949 -0.0255343 -0.0252849 0.00403957 
-0.0178771 -0.0292378 0.00400019 -0.0186504 -0.0212062 0.00400001 -0.014184 -0.0263224 0.00401369 
-0.0180164 -0.0251552 0.0039994 -0.0147097 -0.0220664 0.00401041 -0.010973 -0.0204406 0.00402412 
-0.0105668 -0.0244362 0.00399819 -0.00386686 -0.023672 0.00399839 -0.000999584 -0.026803 0.00399922 
4.16835e-05 -0.0228252 0.00400169 -0.00866911 -0.0279562 0.003999 -0.00694577 -0.020962 0.00399991 
-0.00482231 -0.0274598 0.00497602 -0.00718344 -0.0243467 0.0061282 0.00395807 -0.0220137 0.00399932 
0.00564174 -0.02878 0.00399833 0.00677684 -0.0248896 0.0039989 0.00289566 -0.0258731 0.00399921 
0.00175145 -0.0297055 0.00399919 0.0096323 -0.0276899 0.00400002 0.00732447 -0.0215339 0.0061037 
0.0143835 -0.02484 0.00399956 0.0176357 -0.0271688 0.00399832 0.0172076 -0.0220085 0.00399995 
0.013374 -0.020869 0.00400514 0.0105715 -0.0236958 0.0044143 0.0204593 -0.0243371 0.00399987 
0.0244047 -0.0236651 0.00399795 0.0230141 -0.0274138 0.0039986 0.0279008 -0.0209785 0.00400741 
0.0268893 -0.0265461 0.00523286 0.0301204 -0.0243046 0.00420208 0.0382703 -0.0235133 0.00400009 
0.0359433 -0.0270729 0.00404237 0.0319715 -0.0278461 0.00400369 0.0342514 -0.0228349 0.00399927 
-0.043555 -0.0111553 0.00399854 -0.0422308 -0.0154591 0.00399992 -0.0386364 -0.0172141 0.00399955 
-0.0319558 -0.0145712 0.00399935 -0.0306726 -0.018359 0.00399913 -0.035943 -0.0142576 0.00399944 
-0.0395372 -0.0125024 0.00399988 -0.0336857 -0.0109557 0.00400023 -0.0348162 -0.0184552 0.00400112 
-0.0243579 -0.0108122 0.00399878 -0.0276953 -0.0130206 0.00399983 -0.0235271 -0.0148578 0.00399999 
-0.0269352 -0.0169449 0.00418251 -0.021342 -0.0182476 0.00399978 -0.0122566 -0.0165503 0.00399916 
-0.012071 -0.0125551 0.00399907 -0.0195318 -0.0146818 0.00405341 -0.0159349 -0.0182222 0.00400616 
-0.0183412 -0.0108643 0.00399962 -0.0156102 -0.0142713 0.00472336 -0.00265833 -0.0198593 0.0039997 
-0.00442935 -0.0133623 0.00399848 -0.00697148 -0.0102756 0.0039997 -0.00146115 -0.0160434 0.00399988 
-0.00836649 -0.0140616 0.00399947 -0.00577898 -0.0171273 0.00399913 -0.00100922 -0.0124002 0.00583128 
0.00521338 -0.0182161 0.0039998 0.00941786 -0.0151547 0.00399963 0.00252978 -0.0127349 0.00399946 
0.00606023 -0.0108558 0.00399951 0.00974061 -0.0191414 0.00399941 0.00129076 -0.0190248 0.00400006 
0.00576061 -0.0145502 0.00550272 0.0172543 -0.0132388 0.00399945 0.0127692 -0.0128792 0.00399875 
0.0130315 -0.0168696 0.00399973 0.016991 -0.0173311 0.00432407 0.0278948 -0.0129952 0.00399862 
0.0221926 -0.0118724 0.0039991 0.0203295 -0.019509 0.00399887 0.0205425 -0.0155155 0.00400186 
0.0282229 -0.0169803 0.00400116 0.024525 -0.0151492 0.00400117 0.0243257 -0.0191482 0.00400245 
0.0368534 -0.0197626 0.00400282 0.0315178 -0.0147144 0.00399838 0.0352367 -0.013244 0.00399908 
0.0316562 -0.0191938 0.00399939 0.0393362 -0.0117656 0.00404316 0.0382036 -0.0159268 0.00405149 
0.0326412 -0.0104978 0.00531038 0.0345365 -0.0168744 0.00552326 0.042136 -0.0151687 0.00399885 
0.0407871 -0.0189791 0.0039985 0.0436208 -0.0109797 0.00400109 -0.0409298 -0.00746627 0.00400307 
-0.0406374 -0.00339077 0.00399889 -0.0446278 -0.00588029 0.00401207 -0.0444958 -0.00179444 0.00439036 
-0.0370123 -0.00520961 0.00399917 -0.0372812 -0.00919985 0.00399965 -0.032336 -0.00191322 0.00400015 
-0.0314863 -0.00600664 0.00399972 -0.0372908 -8.54796e-05 0.00399836 -0.0298958 -0.00967765 0.00399889 
-0.0274009 -0.00655152 0.00399973 -0.0283474 -0.00266525 0.00400332 -0.0229395 -0.00435042 0.00399934 
-0.0208954 -0.00778761 0.00406631 -0.0106892 -0.00880194 0.00399877 -0.0192795 -0.0026252 0.00400015 
-0.0146567 -0.00930766 0.00399935 -0.0115517 -0.000803412 0.00402836 -0.0152999 -0.00222292 0.0040391 
-0.013145 -0.00559377 0.00400119 -0.0171372 -0.00603708 0.00425451 -0.00289901 -0.00938608 0.00400072 
-0.00562398 -0.0064559 0.0039983 -0.00382874 -0.00288165 0.00400033 -0.00764914 -0.00168752 0.00399974 
-0.000938058 -0.00560806 0.00446576 -0.0092834 -0.00519633 0.00500637 0.00308818 -0.00540651 0.00399922 
0.00704912 -0.00694361 0.00399963 0.00117797 -0.00897053 0.00399945 0.00163304 -0.00168178 0.00399931 
0.00541934 -0.000322937 0.00403119 0.00990263 -0.00974612 0.00399955 0.00940958 -0.00178597 0.00592269 
0.0106001 -0.00508721 0.00399905 0.013497 -0.00799353 0.00399809 0.0185649 -0.00385217 0.00399908 
0.0145771 -0.00414342 0.003999 0.0174856 -0.00770297 0.00399926 0.0127441 -0.000589453 0.00400998 
0.0165669 -0.000597723 0.00518457 0.0248001 -0.00884153 0.00399851 0.0287274 -7.88276e-05 0.0039989 
0.0280866 -0.00530675 0.003999 0.0215467 -0.00651653 0.00400021 0.0250787 -0.00236045 0.00400009 
0.0286949 -0.00916912 0.00483561 0.0318119 -0.00681169 0.0039983 0.0349405 -0.00432282 0.00399836 
0.0368369 -0.00842199 0.0039993 0.0378601 -0.00159037 0.00399903 0.0340652 -0.000326366 0.00400011 
0.0313417 -0.00301493 0.00516256 0.0449059 -0.00225327 0.00404416 0.0412242 -0.00403945 0.00400064 
0.0408701 -0.00807137 0.00400824 0.0445017 -0.00638911 0.00417489 0.0415592 -4.37825e-05 0.00399911 
-0.0412467 0.000561958 0.00401753 -0.044854 0.0023934 0.00399955 -0.0445191 0.00638023 0.00399958 
-0.0410029 0.00452936 0.00445653 -0.0379902 0.00780475 0.00399819 -0.03362 0.00190321 0.00399904 
-0.0370785 0.00391002 0.0039992 -0.0333656 0.00589285 0.00411857 -0.0344853 0.00973066 0.00400753 
-0.0311937 0.00889459 0.00614644 -0.0250747 0.000177987 0.00416158 -0.0297031 0.00109752 0.00399885 
-0.0227893 0.00892068 0.0040014 -0.0278224 0.00874277 0.00399965 -0.0210886 0.00513618 0.00399948 
-0.0252991 0.00563965 0.00399881 -0.0205189 0.001178 0.00399768 -0.0294496 0.00508897 0.00399991 
-0.0147128 0.00188107 0.0039989 -0.0170948 0.00534346 0.00399897 -0.0187765 0.0090602 0.00399924 
-0.0130704 0.00552752 0.00399939 -0.012691 0.00951018 0.00399926 -0.00999747 0.00288977 0.00399966 
-0.00609181 0.00199643 0.00399854 -0.00536719 0.00606937 0.00399866 -0.00102431 0.00472501 0.00399976 
-0.00182453 0.000593182 0.00400813 -0.00929181 0.00683794 0.00405651 -8.66858e-05 0.00890601 0.0039996 
0.00608438 0.00383118 0.00399831 0.00226652 0.00226651 0.00400734 0.00287583 0.00621879 0.00399921 
0.00948053 0.00172033 0.00399863 0.00686347 0.00776563 0.00399971 0.0187618 0.00252715 0.0039982 
0.0182303 0.00649056 0.0040001 0.0144738 0.00786307 0.00399951 0.0147781 0.00285365 0.00412561 
0.0115103 0.00515006 0.00432766 0.0106644 0.00905741 0.00423904 0.0220915 0.000309733 0.004004 
0.0223435 0.00430705 0.00400014 0.0218117 0.00827079 0.00399941 0.0255559 0.00686423 0.00399992 
0.0260809 0.00290785 0.00426173 0.0290537 0.00831845 0.00528331 0.0365186 0.00606041 0.00399862 
0.0302923 0.00360243 0.00399998 0.0381288 0.00239969 0.0039993 0.032573 0.00691102 0.00400628 
0.0358481 0.0100017 0.00399983 0.0339934 0.00336725 0.00553317 0.0444892 0.00657479 0.00399904 
0.0449189 0.00259916 0.00399861 0.0405168 0.0061183 0.00399992 -0.0437962 0.0103143 0.00400011 
-0.0426726 0.0141535 0.00400141 -0.0414012 0.0176306 0.00551255 -0.0322254 0.01303 0.00399878 
-0.0398052 0.011367 0.00399907 -0.03772 0.017239 0.00399968 -0.0362202 0.0133649 0.00399988 
-0.0338589 0.0165883 0.00481419 -0.0299519 0.0163232 0.004 -0.025948 0.0161978 0.0039994 
-0.0219124 0.0163316 0.00399889 -0.0238819 0.0127694 0.00400395 -0.0279598 0.0127406 0.0039999 
-0.0278398 0.0197215 0.00400002 -0.0159121 0.0118812 0.00399963 -0.017916 0.0164796 0.00399941 
-0.0151185 0.0193382 0.00399901 -0.0111067 0.0181029 0.00400064 -0.019816 0.012926 0.00404882 
-0.0140658 0.0154221 0.00422539 -0.0104944 0.0136284 0.00407603 -0.0197544 0.0196332 0.00563498 
-0.00394249 0.0100003 0.00399919 -0.00105921 0.0127853 0.00399886 -0.00789864 0.0105869 0.00399963 
-0.00753048 0.0163126 0.00399915 -0.00254318 0.0179921 0.00399983 -0.0047535 0.013715 0.00523952 
[...]
POINT_DATA 5999
FIELD FieldData 7
id 1 5999 int
544 514 482 144 333 828 27 1092 856 
1037 589 307 901 1045 924 862 520 97 
120 598 52 228 135 379 145 107 53 
263 1095 158 426 408 336 706 476 501 
1008 230 203 246 992 364 41 404 777 
245 247 608 690 760 46 397 154 1316 
966 274 557 440 115 434 378 1019 874 
816 344 623 63 294 669 946 724 502 
11 546 424 174 704 1015 199 1166 504 
952 469 684 776 365 371 276 114 8 
149 758 1042 310 614 876 54 112 516 
509 401 210 861 136 348 57 1107 437 
349 659 787 360 650 281 131 550 664 
374 84 311 345 487 296 429 175 42 
99 113 815 616 168 205 66 293 1126 
1338 1144 1494 317 875 117 848 396 39 
1077 256 630 350 461 231 528 1035 962 
788 523 86 423 142 372 1214 1262 853 
1503 417 802 686 134 163 783 1096 20 
126 731 447 485 1269 906 354 1071 221 
821 58 612 584 1101 903 1105 931 342 
1460 441 445 1481 427 627 1486 489 1027 
710 1142 305 967 900 322 784 410 73 
393 421 935 1161 48 1032 458 108 128 
914 418 241 367 604 292 1014 105 673 
1516 558 12 224 755 857 766 813 781 
5 16 463 23 971 1128 998 352 1254 
77 594 229 206 78 563 1277 346 170 
763 1106 193 886 273 498 375 560 734 
384 127 81 517 1478 432 3 286 473 
320 712 88 380 1197 313 1073 155 1613 
341 182 847 745 1066 586 954 387 1024 
1072 657 214 535 915 949 592 836 165 
244 394 298 436 287 868 519 691 334 
721 640 631 191 996 64 260 98 671 
79 579 225 80 1040 75 337 356 910 
266 576 159 944 524 103 361 522 347 
1124 316 197 288 21 212 104 1016 1097 
736 1220 146 660 91 839 556 715 425 
880 1745 926 160 76 521 290 121 152 
332 628 28 569 406 177 478 1103 748 
1611 235 929 312 1368 428 226 116 227 
799 928 1084 1899 220 705 582 255 851 
513 96 304 388 1725 1134 118 409 629 
133 1703 204 1484 181 259 299 642 264 
140 1117 636 15 529 45 6 173 289 
769 916 213 507 327 129 1025 475 141 
899 497 207 904 111 395 530 701 422 
217 268 1489 215 477 124 474 532 780 
162 909 735 1790 414 161 454 625 218 
866 40 1461 328 882 2618 1 913 877 
18 455 250 122 885 1323 67 995 1765 
178 26 1386 1119 495 430 1350 531 864 
2254 907 19 1213 1433 1044 505 1171 200 
680 100 1270 1098 390 1477 282 997 1392 
969 551 450 271 407 153 1328 1575 1164 
1828 1620 647 1995 1861 795 566 1326 2364 
1079 2621 257 242 515 464 194 209 10 
1286 981 1650 452 1834 1289 1299 1589 1846 
65 1774 1690 1602 1882 1705 219 773 138 
596 400 185 83 233 1446 892 665 2165 
772 1232 2065 883 1498 1878 1999 1718 567 
109 338 1033 391 1632 1067 696 1580 707 
1471 1677 852 1411 1688 47 605 968 1358 
1792 1387 1284 1434 1608 147 449 1850 1543 
1365 1421 1169 1251 340 1485 512 1187 285 
675 1280 764 443 580 750 1188 323 1013 
2027 889 411 662 1341 1186 33 713 94 
1005 254 488 198 1162 183 548 1563 574 
493 1416 1785 2300 1017 279 1275 1058 302 
119 1506 1476 402 49 55 1043 953 1639 
1463 1836 2042 744 2067 1026 2781 2347 2145 
1028 1418 711 1640 818 1331 1242 1023 1647 
1605 1059 2292 905 1843 1734 1768 1538 2150 
1943 1437 1676 633 1285 1179 534 1789 2285 
1855 1754 1159 1283 1210 1944 2092 1883 2191 
1908 1654 918 641 937 102 392 2221 1697 
943 1862 1074 1609 2109 938 1274 1550 1170 
1691 2345 1036 844 1176 858 1412 2136 442 
1217 1191 1491 1330 785 69 1468 872 2296 
1182 1258 2161 248 267 1114 382 22 779 
90 689 617 643 652 471 800 1652 902 
1047 1962 1224 2053 1403 413 249 1678 921 
2328 1327 1178 1829 506 2776 803 223 703 
525 741 639 824 578 1064 1113 1389 1398 
961 319 1592 1265 1680 2228 68 1537 533 
125 243 1325 668 854 977 963 1683 2129 
1345 1844 1561 655 1354 106 1955 2066 2557 
1848 674 1208 1623 1722 697 1055 1448 7 
1672 9 832 2047 1749 1687 1594 2209 2113 
1562 2304 190 951 201 964 808 403 747 
990 986 179 1525 1201 888 1597 1555 2490 
1587 2093 1814 1595 38 718 1152 1482 994 
1404 1174 2128 1012 1684 1644 1572 1240 1753 
1701 1076 1061 211 1203 980 1083 353 1185 
833 622 1177 1497 1710 726 270 1377 1960 
1913 1628 1852 1413 1183 1979 1272 2091 1763 
1288 291 819 859 635 1508 1931 240 1383 
1406 1369 987 2312 1199 1223 611 1256 1552 
806 2277 123 1775 43 679 927 658 1319 
1132 834 1243 518 2278 1767 1347 1417 1811 
1308 1685 314 590 1180 739 754 1276 252 
805 1057 1355 692 139 1372 1222 749 1324 
1948 653 985 2205 894 1397 1584 1123 399 
615 562 1212 1961 898 1118 222 1679 1385 
1329 1860 1250 1505 1835 1215 835 72 1359 
1772 92 25 1333 1233 1830 826 1407 202 
767 613 941 1196 881 318 1500 978 2014 
2194 2348 863 1318 1268 654 884 1443 496 
369 619 1231 1235 1310 1429 2307 1548 1472 
694 2299 1317 581 1109 1127 1130 727 545 
1133 278 1295 508 1618 376 1622 1099 1822 
1081 1536 1374 661 351 1380 1513 543 500 
1586 1140 1509 831 869 2104 1003 575 1839 
491 1356 1091 1263 2021 1479 1340 2297 1588 
1088 1569 695 830 1728 1876 1030 1366 1428 
1125 1964 479 1529 483 2038 1425 1809 1049 
865 1634 1838 855 1692 537 1202 1674 1281 
1444 1845 1181 893 1630 1967 812 1279 1492 
714 1348 2159 2240 770 1100 896 1493 389 
1120 1060 1145 1886 1982 1702 1399 1925 2346 
959 1332 1921 2210 2395 1831 933 842 751 
137 1945 1914 1041 1517 1577 1391 1573 1935 
1137 1151 693 796 1011 870 1557 1006 879 
2043 1104 1624 2451 2036 1009 756 1334 24 
511 1228 873 1038 1221 1353 1122 1719 2200 
1002 1940 2037 2052 1351 775 610 890 1111 
1744 982 983 110 1225 1842 789 1357 585 
2453 2024 2537 330 607 702 499 920 988 
1567 1131 1928 1522 1362 2362 794 1158 2001 
2139 1804 1435 1496 1252 2379 462 667 682 
1512 677 1871 2018 843 1907 237 947 29 
743 1975 1615 1361 1821 1455 845 280 526 
840 1300 1395 300 355 1226 878 942 1480 
728 838 717 1260 1720 1787 1342 1541 2335 
1168 370 1238 309 792 587 1320 1148 570 
1305 381 606 761 1518 1895 1750 1593 1578 
678 297 719 189 362 1054 188 1089 431 
148 565 1707 555 1381 814 1046 1129 549 
956 934 1796 171 975 527 730 368 1010 
1487 1139 723 993 1445 253 31 1306 1031 
1063 2264 2074 2400 377 564 1426 984 1778 
503 1112 1977 1812 1291 187 1080 1149 1297 
1450 1301 1673 2651 2269 1524 295 919 1294 
101 716 1439 1576 922 632 2248 232 817 
1370 366 2319 2237 2176 1110 742 265 239 
1018 1523 1090 867 167 1078 1052 2279 2242 
1312 1553 1499 2260 1352 1675 1910 1007 303 
32 827 419 588 700 1344 778 1255 1884 
1936 1870 1556 1826 1337 1714 2398 2034 1997 
1419 1998 1449 331 1193 572 70 1086 1490 
1335 1430 1394 737 1972 1879 733 459 1367 
1462 1339 2012 2133 1237 2114 301 36 1020 
746 1153 676 453 420 911 2452 1540 1546 
1721 1154 1664 82 1766 1314 326 974 216 
541 1150 180 1085 1311 979 87 930 484 
809 315 164 1535 822 932 568 1402 1743 
553 646 283 130 186 955 648 958 609 
1321 1976 192 1682 1021 940 708 2115 1469 
2148 1082 2156 1190 448 480 626 765 238 
991 554 1069 561 405 74 150 887 1236 
358 1230 1115 2375 810 1271 1583 50 1400 
1384 481 1207 1056 1963 1441 656 51 573 
2 849 60 13 1135 740 1532 1566 620 
1984 1247 1029 1379 1849 2152 412 923 600 
1022 891 688 1343 841 1604 1459 435 1560 
559 2010 2225 2446 2318 2134 2750 2660 2223 
1665 357 93 472 771 1346 439 925 1349 
1617 790 1726 1257 71 1048 1373 1551 2119 
2406 1442 258 62 1004 603 1819 1001 1897 
774 325 1102 470 2051 2910 1971 948 1248 
791 957 1246 683 793 618 1309 1156 284 
644 1625 681 1510 1669 1934 2203 2039 1841 
386 599 272 35 277 251 725 1436 373 
685 846 698 1859 416 2158 456 2090 960 
2272 1227 638 1670 976 709 738 820 547 
1695 583 1582 965 752 1424 2035 1467 1163 
2219 637 1565 1393 329 95 571 1205 850 
85 34 1273 804 1267 363 1423 1261 17 
2198 972 1121 494 1655 151 1388 1959 1053 
1136 306 61 383 1165 1296 1875 169 2460 
1873 468 1867 1116 2629 2243 2032 339 275 
14 1298 798 1287 196 2055 624 2049 1534 
1172 2764 308 1755 2030 1760 1923 1932 89 
1571 1641 2007 1160 1868 1410 1475 1303 4 
2127 2023 2284 1795 2403 597 2211 973 166 
1068 811 591 649 184 2146 1000 486 1167 
538 261 1631 1514 1195 917 1401 2474 1758 
30 666 321 324 438 1504 1108 1542 645 
490 759 1651 1591 577 1724 176 1610 1645 
1627 651 1453 1050 433 195 143 415 59 
157 1249 466 801 1336 359 1713 989 1579 
1708 2110 1422 786 1752 1307 1764 132 234 
999 1173 1147 593 1495 1530 908 1266 1290 
552 729 510 56 269 762 156 670 1364 
1239 451 621 1209 542 1816 1390 1980 2081 
2384 1922 1657 2327 1211 2569 829 343 446 
1189 768 1570 1143 1856 2690 1717 2680 2122 
2843 2554 602 1245 3284 2196 2641 2046 2257 
3086 2100 3465 2999 2528 2911 2938 3002 601 
1638 2289 1259 1598 3160 2845 3808 3564 3155 
2713 3025 3142 2633 1906 2720 2686 1777 2195 
2349 2508 2918 1278 1957 2073 797 1194 1564 
1869 699 2303 782 2247 1581 2847 2102 2250 
2512 492 2977 3540 2588 2464 2341 1547 2275 
3348 2245 1603 2987 3013 1783 2421 1661 2417 
2963 2208 3098 2862 3529 2851 2157 1649 2527 
2612 2121 2526 2106 1681 2084 1590 1626 2098 
2840 3413 2433 2968 3636 2958 4100 2435 2031 
1175 457 1420 1488 2003 2825 1146 2351 2383 
1800 2959 2833 2975 2761 1414 2506 3033 3099 
3256 1614 1533 2472 2455 2187 2684 2624 3174 
2418 3271 2378 2448 3060 3207 3095 1519 1981 
3008 2377 2075 2355 2932 2517 2606 3464 2545 
3215 3734 2871 3187 3650 2855 4051 1756 2295 
2735 2332 2809 2416 687 1952 2044 1937 465 
2560 2611 2689 2538 2675 1802 2806 2443 1865 
2669 2568 1949 1733 2143 1771 2391 2646 1382 
2314 2493 2601 1991 2041 2135 1458 3193 2483 
2645 2330 2239 2556 3469 1633 1746 1470 2185 
1779 2869 2008 2746 2613 3094 3425 3411 3391 
3851 3111 1696 2427 2305 2812 2291 1619 2767 
3027 2396 3297 3303 2516 3122 2795 3492 2276 
970 2470 2009 3082 2532 2510 2661 1983 1376 
1727 2183 2486 2368 2498 3286 3539 2505 2673 
1456 1483 1919 1953 1686 1405 2511 2015 1978 
2468 2765 2522 2953 2111 3079 2048 1866 2402 
3249 3553 2824 2739 1659 1780 540 1699 2408 
1693 2562 1989 2964 3175 1716 2338 2423 2515 
2280 2415 3015 2848 2717 3721 1954 2013 37 
2329 2173 2181 2298 3024 2943 3124 1737 2105 
2450 2025 1817 1711 1093 2271 1378 2429 2859 
2639 2610 2743 1184 2004 1968 1607 1858 2667 
2061 2886 1065 1887 1773 2491 2385 1700 2359 
2576 3252 2389 3451 2779 2430 722 2226 2057 
2142 2282 2177 3156 2151 2816 2363 2708 2668 
3375 2387 3247 2880 2858 2714 2006 1794 1662 
3173 2794 2399 2103 2674 2457 3072 1781 3338 
1917 2728 1881 807 1155 1408 2190 1253 1636 
1988 2916 2182 2944 2870 3040 1942 3180 1070 
1966 939 1671 1668 2050 2600 1264 2804 2333 
2120 1889 2736 3772 2540 2594 1824 2666 2549 
2671 2409 1840 3158 2520 2846 2687 2432 3211 
3690 2534 2519 3208 2461 1141 2301 2652 1087 
2317 2179 2440 2071 2745 2420 1965 2005 1987 
1958 2426 1663 1642 1219 1198 2370 2709 2322 
2361 1531 3063 1293 1905 2565 1863 1658 2116 
2083 2579 2202 3185 1893 2366 1730 2665 1539 
1924 2935 3339 1896 1667 3368 3445 2939 1759 
1776 2774 2163 1969 2141 2688 2773 3258 2206 
2373 2082 2482 3029 1890 3250 2787 3620 3548 
2883 2548 1902 2796 1793 2712 1723 2861 2875 
1807 3455 2251 2772 3039 2444 1916 3892 3150 
1806 1643 1315 1363 1396 1993 1452 1736 1200 
1815 1994 1877 2678 2989 2407 2922 2478 1507 
2172 2577 1704 2392 1568 2521 1051 2786 1558 
2849 2950 2207 3453 2741 1888 1216 1454 1927 
2531 1637 2130 2112 2326 2595 2737 2573 2820 
3012 2676 2863 3214 2323 2536 2309 1206 1694 
2449 2607 2215 2357 2603 1786 2978 1545 3003 
3189 2059 2405 2204 1985 2125 1094 1447 2256 
1833 1920 2118 2699 2193 2192 2885 3569 1629 
753 1832 2086 2584 1660 1689 1732 1941 1900 
2220 2798 3257 1901 2749 2343 172 536 1803 
1813 2466 1653 2422 2770 2940 2814 2881 1616 
2290 1805 3499 1735 1946 3149 3278 3506 3633 
2951 3757 860 2488 2852 1440 1769 3387 2232 
1502 2441 1885 1762 1990 2068 1431 2473 2827 
1938 2677 3246 2572 3121 2899 2169 2941 2344 
2653 2912 2258 1992 2154 871 1808 2762 2026 
2077 2079 2439 2424 2752 2647 2070 2222 2504 
2325 2306 2716 2425 2546 2140 1600 945 2356 
1729 1909 1825 1585 1739 2564 2632 2476 3574 
3112 2828 2589 2458 1599 1292 2830 2094 2630 
2132 2217 2657 2969 2164 2844 3071 3179 3308 
2465 2393 2738 2570 1521 1466 1970 1432 2124 
2095 2500 1851 1646 1820 2649 1039 2887 2404 
2865 1930 2724 2854 2313 1501 1304 3009 1360 
1648 1549 2636 2503 1798 1956 2442 2218 2725 
3196 2249 3485 2382 2620 2524 1244 1911 1515 
1933 2459 1738 2638 1621 1915 2682 2316 3054 
2802 3273 3439 757 2072 1528 1761 1810 1797 
2994 2253 2431 2445 1874 2462 2017 2934 2011 
3505 2985 2615 3006 2604 3085 3390 2374 2785 
2839 2414 1526 2529 1656 3053 2799 2701 1706 
2592 2342 1409 2587 3050 2789 2413 3700 2890 
2471 3489 3448 3093 2367 2386 2123 2178 3047 
2902 2923 2352 2274 2214 1731 2436 1947 3213 
2273 2480 3373 3337 2697 3087 2803 1574 672 
1218 2238 1740 2759 2199 1465 1892 1204 2543 
2184 2244 2108 2658 1898 1747 950 2167 2287 
2447 3105 1451 1799 2213 2201 2016 2608 2961 
2162 2908 2535 3403 1302 1241 1229 1415 2753 
2324 1473 2702 2336 2888 2230 2029 1894 2492 
2137 3398 3463 1918 2555 1854 2609 2175 2625 
1880 1075 2340 2924 2456 2321 2751 1872 236 
2288 3277 3304 2045 2730 3756 3494 2233 539 
1559 1511 1666 1457 2076 2186 1527 1709 2768 
2281 2261 2982 2654 3251 2153 2933 2655 1847 
3432 2679 2437 1138 2020 2019 2700 2227 2962 
1827 2598 1234 1192 2212 1427 1635 2898 1742 
2495 2744 3138 3070 2734 2605 2681 3178 1748 
2622 2265 2626 2174 2331 1818 2602 2376 2578 
3980 2315 3234 2097 2715 3170 2672 4228 3546 
3307 2837 2259 2283 2160 3031 1853 1939 2900 
2810 2547 3232 2691 3280 3712 2841 2525 2469 
3733 3190 2635 2101 2155 2022 1801 1596 2310 
2397 1864 3045 2502 3017 2729 3287 3225 3274 
2496 2062 3893 3559 634 2559 3010 2583 2089 
2063 2494 2078 2561 2727 2644 3153 3301 3219 
3358 3330 3436 3369 3267 444 1375 2040 1698 
1712 1912 2711 2590 2580 2936 2822 2087 3202 
2703 2882 2390 2949 2311 2650 2410 2000 2054 
1322 897 1601 2784 2360 2957 3371 2627 3270 
3145 2748 3116 1757 2591 3818 2475 3367 3248 
460 2138 1544 2188 2903 2381 2988 2401 1784 
2080 3292 2663 3212 2831 3397 2388 2892 2380 
2766 2876 2064 2956 1715 1474 2394 262 2670 
2948 2170 3372 2706 2631 2171 2107 2945 3747 
2582 3114 3034 1612 2434 2236 2234 1791 1788 
2513 2033 3400 2872 2942 2270 2593 3460 2563 
2294 3293 3081 3939 3937 3357 3059 2099 2197 
2180 2411 2575 2586 2350 3201 3120 3171 3266 
3073 2813 1903 1926 2992 1034 3004 2758 3442 
3752 3684 3646 823 1313 1891 2497 2302 1770 
2229 2369 2692 3561 3341 2255 3435 3444 2085 
1520 2811 2793 1282 825 2147 2523 2235 2412 
2778 2909 2585 3406 2144 2246 3401 2637 3268 
2058 3396 2479 1554 2060 2662 2372 2126 2002 
2501 3172 3738 2266 1062 1951 2542 1973 1823 
2856 1837 2937 3176 2574 2530 3591 3783 3410 
3320 3162 2970 3487 3089 3538 3525 2514 335 
2056 2131 2868 3630 2775 2518 2771 3255 2866 
3509 3580 2069 3106 2685 3493 2742 3282 2836 
3804 4039 2879 3288 3955 3289 3713 3722 3446 
2718 3279 3792 4166 3834 4464 1996 3703 4216 
2507 3056 3958 3961 3331 3902 3919 2801 3235 
2623 3845 3639 4200 2864 4060 4497 4618 3972 
3607 4124 3404 3862 3758 4367 4279 3319 2262 
2096 3677 3822 3471 2783 2891 4129 3790 3077 
2634 3032 3440 3778 3276 3058 3718 3654 3148 
3707 3362 2308 3844 3334 3723 3194 3405 3302 
3632 4149 3195 3985 3727 3547 3670 3977 3315 
3682 4002 3361 3472 2371 3433 3913 3763 3831 
4139 4326 4388 2955 4310 3764 3349 3378 2930 
3761 3599 3165 4248 3152 3766 3967 3379 4066 
3735 3618 4416 4642 4738 4270 4072 4918 4390 
5772 2842 2499 2747 2467 2616 3768 3350 4439 
3623 4211 3894 3800 3675 2967 3711 3083 4375 
4038 4415 3311 2553 4086 2877 2533 2339 1950 
2596 3537 3500 3048 3437 3578 3708 3811 3868 
3883 3717 4456 4536 4451 4395 3125 2597 3313 
3847 2740 3067 2189 3478 2973 4170 4460 4188 
2929 3037 4255 2834 4647 4389 3833 4637 3450 
2946 4813 3715 4169 4371 4420 4664 5082 4463 
2966 3920 3325 2904 3662 4000 3052 3449 3512 
3523 4480 3993 3264 4632 4567 4284 3516 2487 
3360 3221 3346 2438 2821 2628 3186 4056 3676 
2721 2832 3983 4007 4521 4946 4775 4705 4136 
4361 3078 2808 4286 2088 3522 3041 2907 3188 
3103 3794 3907 3527 2980 4742 4093 4797 4648 
3771 3699 2659 3028 3572 2365 3769 3226 3751 
3898 4317 3353 3714 3806 3347 3412 4198 3990 
2648 5425 4161 4003 4202 4290 4600 3853 4519 
3828 2216 3199 2896 2656 3365 3534 3370 3096 
3298 4559 2976 2777 4068 4012 3238 3789 2867 
3774 3556 4444 3528 2829 2805 3743 3799 2268 
4089 3477 3615 3476 3826 3753 3482 4065 3642 
3754 3409 4891 4001 4646 3614 2983 3345 2231 
3462 3309 3000 3169 3260 3594 3813 3415 3317 
3518 3231 4403 4130 4560 3126 2581 3005 2477 
2168 2696 3651 3388 2354 3931 3166 4504 3101 
3634 3468 3242 3459 3956 3963 4175 3136 2694 
2693 2838 2788 2984 2927 2857 3020 3829 4259 
3624 4019 3344 3681 3773 3376 4205 4700 3143 
3306 3679 3183 3457 3848 3402 3974 4134 3640 
3672 3987 3323 4466 4328 3944 3090 3418 2895 
3616 3979 3244 3695 2698 3730 3259 4525 4291 
3253 4387 3951 3988 4127 4440 3897 3924 2241 
2732 3542 3508 2954 1741 3590 3825 3504 2726 
4232 4253 4120 3705 3861 3011 4374 3849 3167 
2757 3181 3557 4113 2860 2769 3706 3392 4545 
3092 3377 3474 4242 4359 4281 2286 3227 2558 
3655 3788 4575 3611 3881 4075 2544 3921 4699 
3571 4590 2664 4833 4806 4448 3001 2995 3100 
3427 4306 3649 4133 4597 4046 4754 3886 3692 
3140 3466 3157 3746 4154 3222 4103 3422 3973 
4084 3819 4979 4340 3596 3035 4263 3890 2897 
2915 3767 2894 3563 2993 3236 3237 3399 3926 
3191 4031 4099 3856 3652 3275 4184 4189 2704 
2263 2484 2683 3748 2819 3952 3927 4125 2823 
4688 3108 4872 2567 3327 3326 2541 3545 3941 
2998 2617 2914 3229 3638 2707 3685 3644 4262 
3204 3598 3139 3698 3055 2481 3129 2986 3066 
3163 2293 3428 3109 3107 3272 3030 3680 3837 
3424 3127 4506 4753 3586 4061 3241 2614 3336 
3097 3948 3075 2947 3925 2571 3810 4237 4570 
4295 3550 3104 3786 4731 4870 2835 3484 2539 
3333 3498 3393 4454 3408 4112 3356 3622 3744 
4105 3592 3473 4315 3628 4095 3363 3316 3858 
2780 3935 2850 3762 4335 3588 3891 3200 3859 
2419 3981 3877 3568 4233 4069 3324 4394 4207 
4465 4617 5179 5247 4443 4958 5076 3694 3023 
3864 3936 3061 4402 4429 4349 3888 3452 3530 
3007 4309 2928 3230 3243 3558 3044 3283 4528 
2722 3665 3855 4128 3210 4156 3970 4438 3414 
3458 3824 3470 2733 3016 3084 2358 2756 3663 
4217 2760 3946 4114 3332 3220 4246 2552 2642 
2991 2971 3161 2599 3796 3022 2965 3197 2807 
3205 4024 3609 3867 3502 3443 4386 4008 3576 
3134 2337 3351 1857 2990 2320 2815 3617 2920 
2997 3501 4020 3619 3613 3128 3520 4468 3689 
4239 3863 2931 3602 3135 3668 2817 2926 2893 
2334 3601 3544 3130 3198 4176 2974 3184 3144 
3830 4772 4419 2797 2919 3486 3305 3164 2972 
4365 3673 4083 3117 4165 4531 3018 4899 3608 
3687 3380 4235 4327 3776 3312 3431 3666 3582 
3088 3795 4053 3872 4573 2979 3755 2763 3842 
3177 2906 3560 3366 3584 3429 3014 3874 3552 
2643 4081 3686 3479 4203 3850 4062 3513 3750 
4369 4331 3480 3300 3702 3239 3775 4137 3359 
2960 3110 3575 4018 4614 4347 3447 3996 4183 
3595 4077 3827 3945 4193 3991 3950 3816 3395 
4311 4472 3749 3805 4811 4206 3631 3610 4338 
4352 5195 4685 4116 4097 3719 3779 3159 4736 
3600 4102 2826 4158 4673 3589 3960 4017 3123 
3593 3871 3419 2792 3777 3835 2428 3643 3653 
3720 3245 3383 3541 3637 4231 4364 3739 4639 
4080 2723 2884 4090 1974 3295 3491 2463 4187 
4163 3233 3043 3343 2925 3329 3314 3299 3975 
2889 4425 3262 3661 3019 4201 4486 4256 4412 
3488 3168 4565 1904 3741 3074 3760 3394 2353 
3832 3533 4288 4320 3420 3514 3656 3605 3218 
4204 4033 3536 2705 3146 3151 3182 3068 2224 
2754 3904 3441 3785 3900 2853 3660 4058 4215 
3223 3554 3042 3133 4146 3999 3261 3915 4199 
4307 4479 2731 3318 2800 3737 3732 4252 4250 
4174 4219 4591 4258 3965 3865 3846 3731 4272 
3426 4791 3645 5123 3803 3224 3296 4108 3968 
3627 3930 3793 3716 3629 4152 3876 3051 2981 
4047 4598 3693 4341 5224 4999 4727 5294 3745 
2917 2952 2619 3065 3626 3036 3407 2550 3878 
3962 4157 4551 4860 3836 2551 4041 3354 3969 
3597 3917 3697 3291 3782 4131 3064 2921 4073 
4042 3585 2874 2485 3091 3929 3216 4078 2719 
3688 4234 4182 3725 3852 3736 3269 3901 3531 
4107 4055 3916 4192 3587 3021 3340 4589 4377 
4513 3678 3119 3704 3290 3352 3787 3519 3389 
3141 3515 2901 3382 3461 3780 3131 4238 3570 
3603 3671 4625 5101 3507 3495 2913 3154 3454 
3691 3421 3132 4391 3802 3658 3384 4273 3062 
4717 2791 3562 3069 3521 4505 3798 3321 3535 
4336 4044 3566 4274 4602 4943 3625 3869 4604 
4094 3895 3263 4035 3565 4194 3517 3342 4578 
3430 4300 3322 4135 4023 5232 4926 4009 3683 
2489 3049 4096 3355 3192 4118 2905 4316 4212 
3635 4801 4224 4428 4040 4638 3647 3467 3823 