# vtk DataFile Version 4.2
Generated by LIGGGHTS
ASCII
DATASET POLYDATA
POINTS 5999 float
-0.0174754 -0.0414554 0.0098333 -0.0137238 -0.0427726 0.0103166 -0.0157793 -0.0420711 0.0137075 
-0.0194831 -0.0405466 0.0137991 -0.00972265 -0.0425535 0.0102065 -0.00624857 -0.0445684 0.00998056 
-0.00233537 -0.0437529 0.0102073 -0.00623975 -0.0405725 0.0102491 -0.00263366 -0.0401881 0.0119982 
-0.00979329 -0.0402438 0.0134777 -0.00435945 -0.044781 0.0135134 -0.00832337 -0.0442141 0.0136068 
0.00904212 -0.0440659 0.0100945 0.0020643 -0.0406178 0.0102742 0.00148366 -0.0449584 0.010084 
0.00511909 -0.0432818 0.0101771 0.00458422 -0.041139 0.0135566 0.00871209 -0.0409169 0.0136937 
0.00683573 -0.0444494 0.013618 0.0105662 -0.040362 0.0101108 0.0153227 -0.0422254 0.0106739 
0.0118728 -0.0433867 0.0128397 0.0178312 -0.0413004 0.0136879 -0.0301884 -0.0333514 0.0104272 
-0.0325958 -0.030044 0.010322 -0.0317428 -0.0318641 0.0138222 -0.024653 -0.0334447 0.0102016 
-0.0245192 -0.0377004 0.0101373 -0.0211168 -0.0311246 0.00997013 -0.0210774 -0.0352839 0.0101042 
-0.0210596 -0.0397204 0.0102116 -0.0273981 -0.0357013 0.0120798 -0.0268342 -0.0318796 0.0131847 
-0.0232042 -0.034631 0.0137386 -0.0230225 -0.0386514 0.0137496 -0.014114 -0.0313278 0.0101563 
-0.0143008 -0.0353411 0.0100215 -0.017735 -0.0374804 0.0102029 -0.017676 -0.0331648 0.0100434 
-0.0117787 -0.0391154 0.0101667 -0.0101176 -0.0316381 0.0104836 -0.0112749 -0.035949 0.0125693 
-0.0147385 -0.0382506 0.0127383 -0.0196193 -0.0365505 0.0136176 -0.0197426 -0.0325452 0.0134627 
-0.0126521 -0.0323706 0.0138332 -0.00825801 -0.0371126 0.0101896 -0.00616236 -0.031118 0.0101729 
-0.00339167 -0.0342477 0.0106864 -0.000547909 -0.0372552 0.0102319 -0.00220302 -0.0304506 0.0101961 
-0.00761899 -0.0339653 0.0125816 -0.00507901 -0.0370544 0.0130003 -0.00815793 -0.0301558 0.0136833 
-0.000250136 -0.0302805 0.013683 0.00745682 -0.0352992 0.0101688 0.00333973 -0.0362825 0.0100572 
0.000551829 -0.0334089 0.0103167 0.00663619 -0.0395891 0.0104351 0.00860844 -0.0314574 0.0102079 
0.00451992 -0.03245 0.0104071 0.00994537 -0.0372591 0.0126402 0.00572392 -0.0370023 0.0133499 
0.00179578 -0.0377585 0.0134661 0.00375457 -0.0300107 0.013631 0.0182967 -0.0392119 0.010297 
0.0143615 -0.03707 0.0101763 0.0129224 -0.0306997 0.0102236 0.0168767 -0.0313242 0.0102692 
0.0113793 -0.0343911 0.0102459 0.0179151 -0.0351805 0.0105295 0.0147379 -0.0337749 0.0126455 
0.013176 -0.0396074 0.0130659 0.0165572 -0.0375115 0.0134924 0.0187128 -0.0324156 0.0137001 
0.0102531 -0.0324305 0.0137763 0.0208737 -0.0312481 0.0105429 0.0256492 -0.0366886 0.0103547 
0.0219245 -0.0351156 0.0103916 0.0250004 -0.0325598 0.0105396 0.029076 -0.034257 0.0103202 
0.0283087 -0.0302929 0.0102767 0.0222891 -0.0390979 0.0105893 0.0274897 -0.0356374 0.0137683 
0.0234924 -0.0300208 0.0133124 0.0319111 -0.0317045 0.0115396 -0.0397253 -0.0211111 0.00995023 
-0.0365696 -0.0235678 0.0102106 -0.0356546 -0.0274677 0.0101825 -0.0322327 -0.0221733 0.0102109 
-0.0330583 -0.0253881 0.0124456 -0.0302479 -0.0280339 0.0135137 -0.0389224 -0.0224502 0.0136624 
-0.0349376 -0.0220306 0.0135412 -0.0344231 -0.0288926 0.0138242 -0.0297165 -0.0257318 0.0102535 
-0.0286215 -0.0296007 0.0101699 -0.0213425 -0.0269689 0.0100534 -0.0220544 -0.0230266 0.0102312 
-0.0253775 -0.0252593 0.0102403 -0.0281135 -0.0220523 0.0100834 -0.0246374 -0.0292613 0.0104708 
-0.0246826 -0.0200098 0.0103386 -0.0276153 -0.0242213 0.0134183 -0.0241434 -0.0221436 0.0136836 
-0.0228347 -0.0259243 0.0138228 -0.0175561 -0.0291286 0.0100825 -0.0177242 -0.0251163 0.0101905 
-0.0184762 -0.0211725 0.0101574 -0.0144815 -0.02178 0.0102061 -0.0107522 -0.0202468 0.0103974 
-0.0137374 -0.0257066 0.010415 -0.01003 -0.0241717 0.0100599 -0.0119661 -0.0286783 0.0124472 
-0.019824 -0.0285364 0.0134076 -0.0196197 -0.0235775 0.0133625 -0.012104 -0.0227659 0.0132876 
-0.0158241 -0.0299313 0.013614 -0.0156991 -0.0244653 0.0137804 -0.00860464 -0.0278983 0.0103891 
-0.00385163 -0.0239825 0.0102504 -0.0067996 -0.0210057 0.010538 -0.000986265 -0.0267194 0.0109777 
-0.0048132 -0.0276559 0.0116905 -0.00289941 -0.0200783 0.0103856 1.01353e-06 -0.022888 0.0103487 
-0.00699874 -0.024399 0.012689 -0.000285388 -0.0202534 0.0134467 0.00668849 -0.0247008 0.0100605 
0.00385565 -0.0218709 0.00996194 0.00950978 -0.0275572 0.010266 0.00560481 -0.0286096 0.0101336 
0.00282481 -0.0257341 0.010225 0.00171894 -0.0295824 0.0102071 0.00705148 -0.0214279 0.0123361 
0.00770322 -0.0293483 0.0134881 0.00240636 -0.0233866 0.0135172 0.00535042 -0.0260972 0.0136037 
0.0170547 -0.0273278 0.0101727 0.0138463 -0.0249165 0.0102062 0.0130432 -0.0208546 0.0101546 
0.0168121 -0.0222074 0.0103352 0.0102687 -0.0236608 0.011516 0.0125798 -0.0276856 0.0128383 
0.0198631 -0.0283142 0.0131625 0.0169666 -0.0250149 0.0134403 0.0135755 -0.0228887 0.0136446 
0.0244565 -0.0238942 0.0100924 0.0200135 -0.0246293 0.0103734 0.0227185 -0.027617 0.0101531 
0.0274628 -0.0212282 0.0103536 0.0266605 -0.0268953 0.0115951 0.0220065 -0.0219702 0.0126153 
0.025896 -0.0228199 0.0136917 0.0230136 -0.0258132 0.0137504 0.0298576 -0.0290916 0.0137806 
0.0377041 -0.0243643 0.00984563 0.0301562 -0.024159 0.0107483 0.03152 -0.027907 0.0103397 
0.0339826 -0.022983 0.0105367 0.0355047 -0.0276438 0.0105682 0.0367826 -0.020144 0.0101679 
0.0392111 -0.0219321 0.0128038 0.0328329 -0.0256194 0.0133469 -0.0427737 -0.0112709 0.0101944 
-0.0420892 -0.0155639 0.0104626 -0.0409383 -0.0186386 0.0129023 -0.0401762 -0.0104844 0.0132634 
-0.0429998 -0.0132847 0.0137025 -0.0384881 -0.0173032 0.0100192 -0.031388 -0.014805 0.0101937 
-0.0303028 -0.0186624 0.0101619 -0.0353879 -0.0147765 0.0101218 -0.0335177 -0.0112495 0.010381 
-0.0390642 -0.0128785 0.0101841 -0.0350219 -0.0192932 0.0103074 -0.0363711 -0.0121987 0.0130632 
-0.0306918 -0.0121111 0.0130801 -0.0325931 -0.0187896 0.0134762 -0.0390077 -0.0151815 0.0134705 
-0.0334909 -0.0148959 0.0137267 -0.0279068 -0.0128352 0.0102162 -0.0245661 -0.01062 0.0101096 
-0.0233349 -0.0148186 0.0103447 -0.0268664 -0.0166742 0.0106623 -0.0211313 -0.018224 0.0107969 
-0.0214764 -0.0118752 0.0123263 -0.0280138 -0.0195994 0.0133256 -0.0256522 -0.0137488 0.0134937 
-0.0236905 -0.0172892 0.0137742 -0.0293355 -0.0158299 0.0136987 -0.0272431 -0.0100554 0.0130515 
-0.0121159 -0.016478 0.0101322 -0.0118592 -0.0122366 0.0102894 -0.0182062 -0.0107843 0.0102718 
-0.0193182 -0.0146675 0.0103278 -0.0158377 -0.0180174 0.0103183 -0.015391 -0.0140538 0.010798 
-0.0131939 -0.018871 0.0133294 -0.0140152 -0.0115363 0.0135883 -0.0178201 -0.0127782 0.0137319 
-0.0170666 -0.0198531 0.013677 -0.00448475 -0.0133626 0.0100072 -0.00838889 -0.0142266 0.0102208 
-0.00717239 -0.0103813 0.0100517 -0.00564556 -0.017171 0.0104677 -0.00171322 -0.0162592 0.01017 
-0.00116628 -0.0128348 0.0121798 -0.00902277 -0.0173756 0.0126163 -0.00482401 -0.0109439 0.0133103 
-0.0092158 -0.012003 0.0135314 -0.00620745 -0.0147015 0.0135848 0.00225214 -0.0130725 0.0100695 
0.00152437 -0.0186216 0.0101008 0.00554068 -0.0182355 0.0101594 0.00910913 -0.0150801 0.0100308 
0.00946318 -0.0190697 0.0101511 0.00588274 -0.0109561 0.0101595 0.00552538 -0.0145891 0.011808 
0.00152533 -0.015783 0.0129286 0.00366199 -0.0195886 0.0134415 0.00723059 -0.0176837 0.0137506 
0.00993793 -0.0125691 0.0130593 0.0170755 -0.0133905 0.0100851 0.0128112 -0.0168384 0.00998824 
0.0126949 -0.0127442 0.0101456 0.0167706 -0.0173751 0.0106766 0.0192253 -0.0105536 0.0120157 
0.0152124 -0.0105527 0.0124143 0.0199944 -0.0196659 0.0100013 0.0146589 -0.0148305 0.0129628 
0.0110248 -0.0163894 0.0135862 0.0203995 -0.0156457 0.0100371 0.0278094 -0.0131473 0.00995452 
0.0224361 -0.0117011 0.00991488 0.0239966 -0.0192285 0.0104834 0.027862 -0.0172024 0.010076 
0.0243726 -0.0152338 0.0102968 0.0252458 -0.0123232 0.0129198 0.0214307 -0.0178125 0.0132459 
0.0214539 -0.0136217 0.013405 0.0281024 -0.0150718 0.0134545 0.0270702 -0.0189512 0.0136526 
0.0314928 -0.019801 0.0104624 0.0350743 -0.0134474 0.0100033 0.0312977 -0.0151052 0.0101016 
0.0397449 -0.0122215 0.0103551 0.038215 -0.0159832 0.0106289 0.0326707 -0.0104881 0.0112835 
0.0344495 -0.0171792 0.0116583 0.0365466 -0.0112144 0.012982 0.0331016 -0.0138786 0.0134742 
0.0421783 -0.0154633 0.00998507 0.0435624 -0.0108477 0.0102923 0.0406707 -0.0192024 0.010184 
0.042912 -0.0134126 0.0133484 0.0415436 -0.0171892 0.0135684 -0.0405904 -0.0074857 0.010541 
-0.0408695 -0.0034246 0.0104647 -0.0444834 -0.00659102 0.0102139 -0.0447446 -0.00271189 0.0112855 
-0.0439994 -0.00917394 0.0133876 -0.0424755 -0.00547763 0.0135081 -0.0316354 -0.00576301 0.0102887 
-0.0368296 -0.00537932 0.0102425 -0.0370512 -0.00937509 0.0102999 -0.0323686 -0.0018781 0.0108983 
-0.0374302 -0.000553861 0.0102079 -0.0341735 -0.00465923 0.0131852 -0.0380367 -0.00305893 0.0132689 
-0.0345739 -0.00863633 0.0133572 -0.0382173 -0.00702788 0.0137354 -0.0350685 -0.000383561 0.0134472 
-0.0299697 -0.00940646 0.0101943 -0.0232447 -0.00397164 0.0103934 -0.0276608 -0.00616492 0.0105969 
-0.0208016 -0.00771396 0.0104559 -0.0284053 -0.00223337 0.0104632 -0.0243254 -0.00735986 0.0124556 
-0.0223183 -0.00107305 0.013076 -0.0259899 -0.00372353 0.0132925 -0.0205273 -0.00464601 0.0132848 
-0.0299355 -0.00432385 0.0136128 -0.0296819 -0.000330844 0.013755 -0.0106773 -0.00841752 0.0100826 
-0.0155551 -0.00193978 0.0101446 -0.0132128 -0.00519582 0.0101541 -0.0116313 -0.000636634 0.010444 
-0.0196219 -0.00220117 0.0102303 -0.0146291 -0.00895763 0.0104141 -0.0171181 -0.00558263 0.0112326 
-0.017084 -0.00884363 0.0135933 -0.0125211 -0.00726884 0.013539 -0.00262775 -0.00976915 0.0100157 
-0.00627637 -0.00646695 0.0101226 -0.00778367 -0.00186843 0.0101022 -0.00395151 -0.00316417 0.0101626 
-0.00073612 -0.0055398 0.0105002 -0.00956988 -0.0050053 0.0118595 -0.00351179 -0.00717952 0.0129343 
-0.00137821 -0.00269062 0.0132341 -0.00479931 -0.000444725 0.0130002 -0.00776143 -0.00822977 0.0133931 
-0.00607868 -0.00418524 0.0136443 0.00978875 -0.0099325 0.0100459 0.00694925 -0.00709838 0.00997229 
[...]
POINT_DATA 5999
FIELD FieldData 7
id 1 5999 int
544 514 215 477 482 144 333 828 27 
414 161 454 1092 589 856 1037 250 877 
455 203 307 901 495 1045 966 19 120 
924 520 97 862 598 1044 505 1171 379 
135 52 145 107 228 450 551 271 153 
407 53 263 426 158 1095 257 242 464 
515 336 476 1008 408 706 501 773 138 
185 400 230 246 364 992 41 404 777 
567 109 338 1033 608 245 247 46 760 
397 690 605 1176 154 1316 440 557 274 
512 285 675 764 1280 115 434 378 816 
623 1019 874 344 33 94 713 63 946 
294 724 502 669 11 302 119 402 1476 
1506 49 704 546 1015 424 199 296 174 
1166 1418 469 504 365 952 684 776 371 
633 1676 1285 114 276 149 8 758 918 
844 641 937 310 1042 614 876 54 1036 
858 1412 248 516 112 401 210 509 350 
267 382 861 136 413 1057 249 348 57 
1107 437 659 349 787 223 803 703 525 
741 650 360 281 131 550 68 125 243 
533 1325 1537 664 374 345 84 311 487 
674 1623 697 1208 429 99 175 113 42 
815 190 201 951 964 205 1126 616 168 
293 66 1338 38 718 1152 980 1144 317 
1494 875 1083 353 396 1185 833 39 117 
848 630 1077 256 1288 291 819 859 635 
528 231 461 1035 962 788 523 123 1775 
86 142 423 314 590 372 1214 1262 853 
1355 692 686 1503 417 802 134 1584 1123 
399 562 615 163 20 783 126 1096 72 
1359 1772 1333 92 1233 731 906 354 1269 
447 485 1071 884 1443 221 821 612 58 
584 1101 545 1130 727 1133 278 441 1105 
931 1460 903 342 445 500 543 1586 1509 
1481 427 627 489 1486 1027 710 1088 695 
1569 1142 305 967 900 322 784 1692 855 
537 1202 410 73 393 935 421 1161 896 
389 1120 933 1032 48 108 458 842 418 
241 914 367 1151 604 1014 105 292 1516 
673 12 781 1009 756 558 224 766 813 
755 857 1351 775 610 16 5 463 971 
23 1128 330 607 499 702 920 1254 998 
352 77 229 594 462 677 1512 667 682 
78 563 206 1277 346 334 280 845 526 
840 1300 170 763 886 273 1106 193 370 
1168 974 498 375 560 384 734 517 127 
678 297 719 362 81 1478 286 432 934 
171 956 975 527 128 712 473 320 377 
1426 564 984 88 380 1197 155 1073 313 
341 1613 522 182 295 101 1439 716 847 
745 1066 586 214 265 1523 1018 239 657 
387 915 1024 1072 535 303 827 588 32 
988 165 592 836 244 394 298 556 331 
572 1193 70 1086 436 868 287 691 519 
301 36 180 1237 1020 260 631 640 191 
996 721 64 216 326 1150 1085 541 579 
79 671 98 225 80 283 646 955 186 
3 910 1040 356 337 266 576 75 480 
448 238 626 765 159 944 524 1583 361 
103 347 1124 316 197 656 51 573 688 
2 849 954 212 1016 21 288 104 1097 
412 600 891 923 736 1220 146 660 949 
93 472 357 771 1346 425 880 91 715 
839 926 1745 258 1442 62 1004 521 160 
121 290 76 152 1248 791 957 599 628 
332 406 28 569 529 177 386 272 251 
277 478 1611 929 1103 235 312 748 638 
1227 976 329 428 226 1368 227 116 799 
571 95 1205 928 1899 1655 705 1084 220 
582 1053 1136 306 61 304 851 513 96 
255 388 1725 339 275 798 629 1134 409 
118 133 1703 181 204 259 1484 299 642 
264 973 166 1068 811 15 140 6 1117 
636 45 213 30 829 321 324 438 666 
289 173 769 916 507 433 195 327 129 
1025 475 234 999 132 899 141 497 207 
904 111 701 395 530 422 621 217 1489 
268 343 446 124 474 532 162 909 735 
1790 780 625 218 866 40 1461 328 882 
1 2618 913 602 122 18 1119 885 1323 
67 995 1765 178 26 1386 601 864 430 
907 1350 531 2254 1213 1433 411 200 100 
680 1270 254 1098 390 282 1477 997 1392 
969 797 2073 1957 1194 1564 1328 1575 1164 
1828 1620 647 1995 1861 566 795 1326 2364 
1079 2621 1299 1547 2464 2275 209 194 1286 
10 981 1650 1289 1834 452 1589 1846 65 
1774 1882 1602 1690 1705 219 1649 2157 2527 
83 596 233 1446 665 892 1232 772 2165 
2065 883 1498 1999 1878 1718 2031 1175 457 
391 1632 1067 696 1580 707 1471 1677 1411 
1688 2109 1614 852 1519 47 1358 968 1387 
1792 1284 1434 1608 147 1850 1543 1421 1169 
1251 449 1981 2295 340 800 1485 1756 1678 
443 580 750 1188 323 1013 889 2027 1187 
662 1341 1186 687 2416 1952 1005 1162 183 
488 198 548 1563 574 493 1416 1017 279 
1275 1785 1058 854 1949 1733 2143 55 1043 
953 1639 1463 1836 2042 744 2067 2300 1026 
2781 2347 2145 1633 1470 2185 1028 711 1640 
818 1331 1242 1023 1605 1059 905 1843 1734 
1768 1538 2150 1943 1696 1647 1437 1179 1754 
534 2285 1789 2292 1855 1159 1283 1210 2092 
1883 1944 2191 1908 970 1654 2470 102 392 
2221 1697 943 1862 1074 1609 938 1274 1550 
1170 1691 2345 1456 1919 1483 1953 1686 2136 
442 1217 1191 1491 785 1468 69 872 1365 
2296 1258 1182 1330 2161 1659 540 1780 1699 
779 22 1114 90 689 643 617 652 471 
902 1047 1652 1962 1224 2053 1403 2013 1954 
921 1327 2328 1178 1829 506 2776 1093 2271 
639 824 1113 578 1389 1064 1398 961 1265 
319 1592 1680 2228 2743 1968 1184 1858 2004 
1407 977 963 1683 1345 2129 1844 1561 655 
1354 106 1955 2066 1848 2557 2779 2430 1722 
668 1055 7 1448 9 1672 832 2047 1749 
1687 1594 2209 2113 1562 2304 2714 2006 808 
747 990 403 986 179 1525 888 1597 1201 
1555 2490 1587 2093 1595 1814 2728 1881 807 
1408 1482 994 1404 1174 2128 1012 1684 1644 
1572 1240 1753 1701 1076 1061 1203 211 1070 
1966 622 1177 1497 1710 726 270 1377 1960 
1913 1852 1628 1413 1183 1979 1272 2091 1141 
1763 1405 2594 1508 1931 1406 240 1383 987 
1369 2312 1199 1223 1256 611 1552 1308 806 
2277 2301 2652 43 927 679 658 1319 1132 
834 518 1243 2278 1767 1493 1347 1417 1811 
1685 1958 1642 2426 1663 1219 1180 739 754 
1276 252 805 1293 1905 2565 1863 139 1372 
749 1222 1324 1948 653 985 2205 1397 1893 
2366 1730 1212 1961 898 1118 222 1679 1385 
1329 1860 1250 2348 1505 1215 1835 25 835 
1759 1776 1830 826 202 767 613 881 1196 
941 318 1500 978 2014 2194 863 1318 654 
1268 2548 496 369 619 1231 1618 1235 1310 
1429 2307 1548 694 1472 2299 1109 1317 581 
1127 1643 1363 1992 1295 508 376 1622 1099 
1822 1081 1536 1374 661 351 1380 1513 1315 
2478 1155 1507 1140 831 869 575 2104 1003 
1839 491 1356 1263 1091 2021 1479 1340 2297 
1588 1888 1454 1216 830 1728 1876 1428 1366 
1030 1964 1125 479 1529 483 2038 1425 1809 
1049 1634 865 1838 1206 1694 1674 1281 1444 
1845 1181 893 1630 1967 812 1279 1492 714 
1348 2159 770 2240 1094 1100 1145 1060 1886 
1982 1399 1702 1925 2346 959 1332 1921 1573 
2210 2395 1629 753 2086 137 751 1914 1945 
1041 1517 1577 1935 1137 536 172 1813 796 
693 870 1557 1011 894 1006 879 2043 1624 
2451 2036 1334 24 867 1228 511 1038 873 
1221 1353 1122 1719 2200 1002 1940 2037 2052 
860 2232 890 1111 1744 982 983 1225 110 
1842 789 585 1357 2453 2024 1352 2537 1502 
2441 1567 1131 1522 2362 794 1928 1362 1158 
2001 2139 1804 1435 1252 1496 2379 2258 1998 
2154 1808 871 2762 29 1871 2018 843 1907 
947 237 743 1455 1615 1975 1821 1361 2716 
2425 2546 1260 1600 2140 945 300 1395 355 
1226 878 942 1480 728 838 717 1720 1787 
1518 1342 1541 2335 2589 2458 1599 1238 792 
309 587 1148 1320 570 381 1305 606 761 
1895 1750 1593 1578 1521 1466 1229 1970 189 
1054 188 1089 431 148 565 1707 555 1381 
814 1046 1129 549 1501 1304 1360 730 368 
1796 1831 1487 1010 1139 723 993 1445 253 
31 1306 1031 1063 2264 2074 2400 1244 1911 
1778 503 1112 1977 1812 1391 187 1291 757 
2072 1528 1080 1149 1297 1450 1673 1301 1104 
2651 2269 1524 919 1576 1294 922 632 2248 
232 817 1370 2237 366 2319 2176 1110 1090 
742 167 1078 1052 2279 700 2242 1553 1312 
1499 1675 2260 1910 1007 2839 2414 2529 1526 
419 778 1344 1884 1255 1936 1826 1714 1556 
1870 2398 1337 2034 1997 1419 672 2123 2367 
1335 1490 1430 1394 2114 737 1972 1879 733 
1367 459 1462 1339 1574 2012 2133 1664 1540 
1218 746 1153 453 676 911 420 2452 1546 
1721 1154 82 1314 1766 568 2108 1898 950 
2658 1747 930 1311 484 979 315 164 87 
809 822 1535 1743 1402 553 932 1302 1241 
1415 2324 130 648 958 609 1021 1976 1682 
192 940 708 2115 2148 1469 1082 2156 1190 
1115 1880 1075 2340 1321 1069 554 405 74 
150 887 1236 358 1230 2375 810 1207 539 
1511 1559 1400 50 1271 1384 481 1056 1963 
1441 13 60 740 1566 1532 1135 620 1984 
1247 1029 1379 1849 2152 1827 2598 1022 1343 
1604 1459 841 1560 435 2010 2446 2225 2750 
2223 2318 2660 2134 559 1665 1748 439 925 
1349 790 1617 1449 1726 1257 71 1373 1048 
1551 1760 2406 2119 2283 2259 2160 2837 3031 
603 1819 1001 1897 644 325 774 1102 470 
2051 2910 1971 948 793 2101 2022 2155 1801 
683 1246 618 1309 1156 284 1625 681 1510 
1669 2203 1934 456 2039 1841 634 35 725 
1436 373 685 846 698 1859 416 2158 2090 
960 2272 444 1375 2040 1712 1698 1670 709 
738 637 820 547 1695 1582 752 1424 2035 
1467 2219 1565 1393 2410 1163 2000 2054 561 
850 34 85 804 1273 363 1267 1423 1261 
17 2198 972 1121 494 991 460 2138 151 
1959 1388 383 1165 1296 1875 169 2460 1873 
468 1867 1116 2629 2243 2032 1764 2064 1172 
2956 14 1287 196 2055 1534 624 2764 308 
1755 2030 1923 1932 2049 2023 89 1612 2236 
2434 1791 2234 1298 1641 1571 2007 1160 1868 
1475 1410 1303 4 1795 2284 2127 2403 597 
2211 184 1167 591 649 1000 538 2146 486 
261 1631 1195 1514 917 2474 1610 1401 1645 
1758 2813 1504 1108 1542 759 490 645 1651 
1591 577 1724 176 1627 651 1453 1050 823 
1313 143 415 59 583 965 157 1249 801 
466 1336 359 1713 989 2110 1708 1422 1282 
825 786 1752 1307 1554 1173 1147 593 1266 
908 1530 1495 2372 552 1290 510 729 269 
56 762 156 670 1239 1364 1062 1951 451 
1209 542 1816 1390 1980 2081 2384 1922 1657 
2327 1211 2569 1189 768 1570 1143 2514 335 
1579 1856 2690 1717 2680 2122 2843 2554 2775 
2518 3284 1245 2196 2046 2641 2257 2100 3086 
3465 2999 2528 2911 2938 3002 2289 1638 1259 
1598 3160 2845 3808 3564 2713 3155 3025 3142 
3289 2633 1906 2720 2686 1996 1777 1278 2349 
2508 2918 1869 699 2195 782 2303 2247 2847 
1581 2102 2250 2512 492 2977 3540 2588 2801 
3348 2245 1603 2987 3013 2421 1783 2417 1661 
2208 2963 3098 2341 2862 3529 2851 3319 2262 
2121 2612 2526 2106 1681 1590 2084 1626 2840 
2098 3413 2433 2968 3636 2958 2435 4100 2308 
3707 1420 1488 2003 2825 1146 2383 2351 1800 
2959 1414 2833 2975 2761 2506 3033 3682 3256 
3099 2487 3315 1533 2472 2455 2187 2684 2624 
3174 2418 3271 2378 2448 3207 3060 3095 3378 
2930 3008 2377 2075 2355 2932 2517 2606 3464 
2545 3215 3734 2871 3187 3650 2855 4051 2499 
2735 2332 2809 2044 1937 465 2611 2560 2689 
2538 2675 1802 2443 2806 1865 2669 2568 2533 
2877 2339 1771 2391 2646 1382 2314 2493 2601 
1991 2041 1458 2135 3193 2483 2645 2239 2330 
2556 3469 2597 3125 1779 2869 2008 1746 2746 
2613 3094 3425 3411 3391 3851 3111 2929 2009 
2427 2305 2812 2291 2767 1619 3027 2396 3297 
3303 2516 3122 2795 1253 3492 3221 3082 2532 
2510 2661 1983 2276 1376 1727 2486 2368 2183 
2498 3286 3539 2505 3360 1824 2511 2015 1978 
2468 2522 2765 2111 2953 3079 2048 1866 2402 
3249 3553 2739 2824 2808 2673 3078 2088 2408 
1693 2562 1989 2964 1716 3175 2338 2423 2515 
2415 2280 3015 2848 2717 3721 3699 2659 3572 
3028 2365 37 2329 2173 2181 3024 2298 2943 
3124 1737 2105 2450 1817 1711 2025 3828 2216 
1378 2429 2859 2639 2610 3238 3789 2667 1607 
2061 2886 1065 1887 1773 2491 1700 2385 2359 
2576 3252 2389 3451 2829 2805 3799 2268 2226 
2057 2177 2142 722 2282 3156 2816 2363 2708 
3375 2668 2387 3247 2880 2858 2151 3614 2444 
3345 2231 2983 3309 1662 1794 2794 3173 2399 
2103 2457 2674 3072 1781 3338 1917 2581 3005 
2477 2190 1636 1988 2916 2182 2944 2870 3040 
1942 3180 2694 939 1671 1668 2050 2600 1264 
2804 2333 1840 2120 1889 2736 2540 3772 2666 
2549 2671 2409 2520 3158 2846 2687 2432 3211 
3690 2534 2519 3208 2461 2895 3090 1087 2317 
2179 2071 2440 2745 2420 1965 2005 1987 3924 
2732 3542 2241 1198 2709 2370 2322 2361 1531 
3167 1658 2116 3063 2579 2083 2202 3185 2286 
2665 1805 1924 1539 2935 3339 2939 1896 3445 
3368 1667 2774 2163 1969 2141 2688 2773 3258 
2206 2373 2082 2482 3029 1890 3250 2787 3620 
3548 2883 2995 1902 2796 1793 2712 1723 2861 
2875 1807 3455 2251 2772 3039 1916 3150 3892 
1806 3140 1396 1993 1452 1736 1200 1815 1994 
1877 2989 2678 2407 2922 3890 2897 2915 2577 
2172 2392 1704 1568 2521 1051 1558 2786 2207 
2950 3453 2741 2849 2704 2263 2484 1927 2112 
2531 1637 2130 2326 2595 2573 2737 2820 3012 
2676 3214 2863 2323 2536 2309 2481 3326 3327 
2449 2607 2215 2357 2603 1786 2978 1545 3003 
2059 3189 2405 2204 1985 3129 3066 1447 2256 
1833 1920 2118 2193 2192 2125 2885 3569 2614 
3336 1832 2584 1660 1689 1732 1941 2699 1900 
2798 2220 3257 1901 2343 2749 2539 2835 3333 
2466 1803 1653 2422 2770 2940 2814 2881 3363 
3316 1616 2431 2290 3499 1735 1946 3149 2488 
3506 3278 2951 3633 3757 2852 1769 1440 3387 
1885 1762 1990 2068 2473 1431 2827 1938 2677 
3246 2572 3121 2899 2169 2344 2941 2653 2413 
2912 2026 2079 2077 2439 2424 2752 2222 2647 
2070 2504 2325 2306 2828 1909 1729 1825 2356 
1739 1585 2564 2632 3574 2476 3112 3470 2733 
3016 1292 2830 2094 2630 2132 2217 2657 2969 
2164 2844 3071 3179 3308 2738 2393 2465 1851 
2570 2552 2642 2991 1432 2124 2095 2500 2649 
1820 1039 1646 2887 2404 2865 1930 2724 2854 
2313 3351 2337 2753 2990 1857 3009 1648 1549 
2636 2503 1798 1956 2442 2218 2725 3196 2249 
2382 3485 2620 2524 2931 3602 1515 1933 2459 
1738 1621 2638 1915 2682 2316 3054 2802 3273 
3439 2919 2797 3486 1761 1810 1797 2994 2253 
3312 1874 2462 2445 2017 2934 2985 2011 2763 
3505 2615 3006 3390 2604 2374 3085 2785 3429 
3014 1656 2799 2701 3053 1706 2342 1409 2587 
2592 3050 2789 3700 2890 2471 3213 3489 3093 
3448 3480 2386 2178 3047 2902 2352 2923 2214 
2274 1731 2480 2436 1947 2273 3373 3337 2803 
2697 3087 2238 1740 1465 2759 1204 2199 1892 
2543 2244 2184 2619 2167 2287 2447 1451 3105 
1799 2213 2201 2961 2016 2608 2162 2908 2535 
1894 3403 3123 3871 3835 1473 2888 2702 2336 
2230 2029 2492 3398 2137 3463 1918 2555 1854 
2723 2609 3091 2884 1974 2175 2924 2456 2321 
2751 1872 236 2288 2625 3277 3304 2045 2730 
3756 3494 2233 2655 2925 3329 3314 1904 1666 
1457 2186 2076 1527 2281 1709 2768 2261 2982 
2654 3251 2153 2933 1847 3432 2437 2679 3741 
3074 3760 1138 2020 2019 2700 2227 2962 2705 
1192 1234 2212 1427 2898 1635 1742 2495 2744 
3138 3070 2734 2681 2605 3178 3785 3900 2622 
2265 2626 1818 2331 2602 2174 2376 2578 3234 
2315 3980 2097 2715 3170 3546 2672 4228 3307 
2731 3318 2800 3737 1853 2900 1939 3017 2810 
2547 3232 2691 3280 3712 2841 2469 2525 3733 
3190 2635 3803 3224 1596 3045 1864 2502 2397 
2729 2310 2561 3287 3274 2496 3225 2062 3893 
3559 2952 2917 3745 2559 3010 1912 2583 2063 
2089 2078 2644 2727 3301 3358 3153 3219 3436 
3330 3369 3267 2494 3836 2822 4017 2711 2590 
2580 2936 2087 3202 2703 2390 2882 2949 2311 
2485 2874 1322 897 1601 2784 2360 2957 2627 
3371 3270 3145 2748 3116 2591 3818 2475 3367 
3248 1757 3736 3269 1544 2188 2903 2988 2401 
2080 3292 1784 2663 3212 2831 2892 3397 2388 
3119 3704 2380 2766 2876 2170 1474 1715 2394 
262 2670 2948 3372 2706 2631 2171 2945 2107 
2582 3114 3747 3034 3507 3495 1788 2513 2033 
3400 2270 2942 2872 2593 3460 2563 2294 3293 
3081 3939 3937 3120 3059 2791 3357 3069 3562 
2197 2099 2180 2411 2575 2586 2350 3201 3171 
3266 3073 3895 3263 1903 1926 2992 1034 3004 
2758 3442 3684 3646 3823 1891 2497 2302 1770 
2650 2229 2369 2692 3561 3341 2255 3435 3752 
3444 2085 2811 1520 2793 3467 2147 2523 2235 
2412 2778 2246 2585 3406 2909 2144 3401 2637 
3268 3396 2479 3115 3884 2381 2060 2662 2126 
2002 2501 3172 3738 2266 3285 2542 1973 1823 
2856 1837 2937 3176 2574 2530 3591 3783 3320 
3410 3162 2970 3487 3089 3538 3525 3046 2131 
2056 2868 3630 4455 2058 3255 2866 2771 3580 
3509 2069 3106 2685 3493 2742 3288 2836 3804 
4039 3118 2879 3955 3713 3722 3446 3279 2718 
3792 4166 3282 3834 3703 2507 4216 3056 4464 
3958 4738 3961 4734 3331 3902 3919 3235 2623 
3845 3639 4200 2864 4060 4497 4618 3972 3607 
4124 3404 3862 4367 3758 4098 2891 3822 2096 
3471 3677 2783 4129 3790 3077 2634 3032 3440 
3778 3276 3058 3718 3654 3148 3362 3334 3844 
3194 3723 3405 3302 3632 3195 4149 3985 3727 
3547 3670 3977 4475 3147 4257 4360 4002 3472 
2371 3361 3433 3831 3913 3763 4326 4139 4388 
2955 3764 4310 3349 4398 3761 3165 3766 4248 
3152 3967 3618 3379 4066 3735 4416 4642 4270 
4918 4072 4390 5772 4818 2747 2467 2616 3768 
3350 4439 3623 3894 4211 3800 3675 2967 3711 
3083 4375 4038 4415 4317 5535 3311 2553 4661 
2596 1950 3537 3500 3048 3437 3708 3578 3811 
4086 3868 3883 4891 3717 4456 4536 4451 4395 
4460 3313 3067 4279 2740 3847 2189 2973 3478 
4170 4188 3037 4255 2834 4389 4647 3833 4637 
3450 2946 3715 4169 4813 4371 5082 4420 4664 
4463 2966 4480 3325 3920 2904 3662 4000 3449 
3523 3052 3512 3993 3264 4567 4632 4496 4284 
3346 2438 2821 3186 2628 4056 2721 3516 2832 
3676 3983 4007 4946 4775 4521 4361 4286 4705 
4366 4136 2842 3522 3599 3041 2907 3188 3103 
3527 3907 3794 2980 4797 4093 3771 4648 4150 
3769 3226 3898 3751 3353 3714 3412 3806 3347 
4198 3990 5425 4161 4003 4202 4290 2648 4519 
5126 3199 3365 2896 3534 3370 3096 3298 4559 
2976 2777 4068 4012 3674 5112 4793 2656 2867 
3774 3611 4444 3528 4448 4240 4089 3743 3477 
3826 3615 3476 3753 4065 3482 3556 3409 3642 
3754 4001 3169 3000 3260 3462 3594 3415 3813 
3317 3518 3231 4403 4130 4560 3908 2168 3651 
2696 3388 2354 3136 3931 3166 4504 3634 3101 
3468 3242 3459 3963 4175 3344 3126 3956 3328 
2693 2838 2788 2984 2857 2927 3020 4259 3829 
3624 4019 3681 3773 3376 4205 4700 3821 3306 
3679 3143 4742 3183 3848 3457 3402 3974 4134 
3640 3987 3672 3323 4328 4466 3944 3294 4458 
3616 3418 3979 3244 3695 2698 3730 3259 4525 
4291 3253 4387 3951 4127 3988 3897 3817 4440 
3281 4876 3853 4600 3508 2954 1741 3590 3825 
3504 4232 2726 4253 3849 3705 4120 3861 3011 
4374 4729 3434 2757 4113 3557 2860 2769 3392 
3706 4545 3092 3377 3474 4242 4359 3526 3814 
3227 2558 4281 3655 3788 4575 4490 3881 4075 
2544 3568 3921 3571 4699 4590 2664 4833 4806 
3860 3001 3100 3692 3427 3649 4306 4133 4046 
4597 3886 4754 4477 3936 4970 5026 4971 3466 
3157 3746 4154 3222 4103 3422 3973 3819 4084 
4979 4340 3596 4263 3035 4230 2894 3767 3563 
2993 3236 3237 3399 3926 3191 4099 4031 3856 
4189 3275 3652 4184 4393 4025 2683 3748 2819 
3952 3927 4125 2823 3108 4688 4872 4117 3577 
2567 3204 2541 3941 3545 2998 2617 2914 3229 
3638 2707 3685 3644 4262 3598 3139 3698 3055 
4142 4572 2986 2293 3163 3109 3107 3428 3272 
3030 3680 3424 3837 4753 4506 3586 3127 4109 
4061 4483 3490 4566 3097 3075 2947 3925 3810 
4237 4570 4295 3550 3241 3104 4731 3786 4937 
4870 2571 3181 3498 3393 4454 3408 3356 4112 
3484 3622 3744 4105 3592 3473 3628 4095 3858 
2780 3935 2850 3762 4335 3588 3200 3859 2419 
4245 3891 3877 3981 4233 3324 4069 4465 4207 
4394 5179 4617 5247 4958 4443 5076 3694 3023 
3864 4402 3061 4429 3888 4349 3452 4462 5139 
4778 3530 3007 4309 2928 3230 3243 3558 3283 
3044 4438 4434 4528 2722 3665 4128 3855 4156 
3210 3970 3414 3824 3458 4484 3084 2358 2756 
3663 4217 2760 3946 4114 3332 3220 4246 4494 
4261 2971 3161 2599 3796 2965 3022 3197 3576 
2807 3205 4024 3609 3502 3443 3867 4386 4008 
3134 3659 3989 3838 2320 3617 2815 2920 3501 
4020 3619 3128 3520 3613 4468 3689 3863 4239 
4594 3948 3135 3668 2817 2926 2893 2334 4083 
3601 3544 3130 3198 4176 2974 3184 3144 4772 
3830 4419 3305 3164 2972 4365 3673 3117 3088 
4165 3018 4531 4899 4315 3608 3687 3380 4235 
3776 4327 2755 4452 4344 4298 3666 3582 3795 
3431 4053 4573 3872 3146 2979 3755 4714 3842 
2906 3177 3560 3366 3584 5138 3874 2643 3552 
4081 3686 4137 4203 4062 3850 3479 3750 4369 
3513 3911 3905 4028 4077 3300 3775 3702 3239 
2960 3359 4479 3110 3575 3447 4018 4614 3996 
4347 3645 4183 3595 4555 4747 3827 3945 3950 
4193 3991 3816 3395 3749 3805 4472 4311 4811 
3631 3610 4338 4352 5195 4685 4206 4116 4097 
3719 3779 3159 3600 4736 4102 4673 4158 3589 
3593 3960 4249 3419 2792 3777 2428 3653 3643 
2826 3720 3245 3383 3541 3637 4364 3739 4231 
4080 4312 4990 3295 3491 2463 4187 2997 4163 
3233 3043 3343 4090 3216 3417 3299 3975 2889 
4425 3262 3661 3019 4486 4201 4256 3488 4412 
3852 3168 4565 4342 3928 4048 4932 3394 2353 
3832 3533 4288 3420 4320 3514 3656 3218 4204 
3605 3536 4033 3966 4442 3151 3182 2224 3904 
2754 3441 3880 2853 3660 4058 4215 3554 3223 
3042 3133 4146 3999 3261 3915 4199 4307 4487 
4174 3732 4250 4219 3731 3965 4258 3846 3865 
4591 3426 4272 3716 4252 3968 4791 4792 3728 
5123 3296 4108 3627 3930 3793 3629 4152 3876 
3051 2981 4047 4598 3693 4999 4341 5224 5294 
4300 3740 3065 3036 3626 3407 2550 3878 3962 
4157 4551 4860 4823 2551 3049 3354 4041 3969 
3597 3917 3697 3291 3782 3064 2921 4073 3585 
4131 4042 4178 3866 4859 3929 4078 2719 3688 