# vtk DataFile Version 4.2
Generated by LIGGGHTS
ASCII
DATASET POLYDATA
POINTS 6000 float
-0.0190108 0.0140026 0.00218399 -0.0167034 -0.0170413 0.00998052 -0.0158081 -0.0179946 0.00781275 
-0.0141765 -0.0192065 0.00781993 -0.0125193 -0.0202961 0.00808114 -0.0109805 -0.0213035 0.00701164 
-0.00912217 -0.0220409 0.00710857 -0.00896659 -0.0192703 0.00674332 -0.0121907 -0.0188163 0.0067159 
-0.0106172 -0.0195377 0.00787813 -0.00936138 -0.0219441 0.00909398 -0.00862154 -0.0200967 0.00889618 
-0.00935628 -0.0182298 0.0087149 -0.0104425 -0.0178367 0.0068349 -0.0130772 -0.0178232 0.00876308 
-0.0085268 -0.0172519 0.00680074 -0.0111409 -0.0173246 0.0087243 -0.0137489 -0.0175179 0.00682008 
-0.0152881 -0.018456 0.00987406 -0.0136319 -0.0195755 0.00974045 -0.0112067 -0.0211348 0.00933923 
-0.0124718 -0.0202583 0.0113628 -0.00997548 -0.0196688 0.0103149 -0.00894843 -0.0221036 0.011052 
-0.0108029 -0.0213725 0.0112932 -0.0117078 -0.0190892 0.00949513 -0.0128674 -0.018021 0.0107479 
-0.010876 -0.0178658 0.0108658 -0.0145212 -0.0169032 0.0108748 -0.00175131 -0.0213359 0.00642766 
8.84517e-05 -0.0222623 0.00639322 -0.00764296 -0.0206989 0.00722266 -0.00714675 -0.0228271 0.00802526 
-0.00698476 -0.0189589 0.00867569 -0.0068658 -0.02107 0.00904129 -0.00665631 -0.0179418 0.0069565 
-0.00582718 -0.0217788 0.00691446 -0.00587236 -0.0197761 0.0070979 -0.00471026 -0.0233939 0.00742204 
-0.0035315 -0.0217765 0.00727905 -0.00274659 -0.023685 0.00685032 -0.00387459 -0.0198219 0.00700483 
-0.000773063 -0.0239215 0.00774028 -0.000580722 -0.0195331 0.00693176 -0.00244927 -0.018413 0.00707043 
-0.000666082 -0.0175132 0.0069613 -0.00495232 -0.0208843 0.00848633 -0.00217668 -0.0201624 0.00800975 
-0.00217399 -0.0226565 0.00846947 -0.000152876 -0.0185429 0.00883713 -0.00502891 -0.018417 0.00838563 
-0.000316425 -0.0220583 0.00895472 -0.00410351 -0.0172855 0.00701434 -0.00153409 -0.0171032 0.00903787 
-0.00640633 -0.0170665 0.00900676 -0.00801516 -0.0176126 0.0100668 -0.00749281 -0.0207342 0.0109489 
-0.00730503 -0.0227208 0.0100814 -0.0066404 -0.0183349 0.0113275 -0.00573662 -0.023233 0.0112259 
-0.00545624 -0.023053 0.00924966 -0.00561683 -0.0213362 0.0106033 -0.00558251 -0.019422 0.0100244 
-0.00386758 -0.0219461 0.00979598 -0.00292247 -0.0236943 0.0100277 -0.00366685 -0.019956 0.00975572 
-0.00095495 -0.0239392 0.00976888 -0.00204103 -0.0211288 0.00976095 -0.000215375 -0.0202999 0.00992951 
-0.00183818 -0.0191388 0.00973931 -0.0027799 -0.0218822 0.0114744 -0.000899564 -0.0222889 0.0109246 
-0.00355358 -0.0185893 0.0112173 -0.00335316 -0.0178913 0.00934842 -0.00503542 -0.0175322 0.0103865 
-0.000462719 -0.0169519 0.0108669 0.00186849 -0.021337 0.00647902 0.00298205 -0.0230121 0.00661223 
0.00384984 -0.0203904 0.00643208 0.000708553 -0.0204783 0.00813677 0.00113188 -0.0238178 0.00710899 
0.00124414 -0.0178233 0.00747393 0.00176668 -0.0221606 0.00836892 0.00229164 -0.0195263 0.00734086 
0.0029822 -0.0170032 0.00691116 0.00722486 -0.0209317 0.00689 0.00537914 -0.0217012 0.00653602 
0.00424189 -0.0185408 0.00718129 0.00686003 -0.0228507 0.00733338 0.00639538 -0.01759 0.00694393 
0.00829977 -0.019225 0.00699829 0.00601015 -0.0194694 0.00751604 0.00479757 -0.0234199 0.00737688 
0.00769337 -0.0178551 0.00844421 0.0029863 -0.0237278 0.00862003 0.00234243 -0.0172496 0.00904668 
0.00417682 -0.0221269 0.00880606 0.00361311 -0.0187933 0.00906589 0.00459048 -0.0170449 0.00902375 
0.00671398 -0.0212475 0.00892785 0.00834767 -0.0224303 0.0091739 0.00597459 -0.0230961 0.00911787 
0.000294454 -0.0238743 0.0113843 0.000386839 -0.0187187 0.0112644 0.000960102 -0.0238345 0.00912943 
0.00103452 -0.0222913 0.0104118 0.00137062 -0.0204577 0.0111416 0.00163161 -0.0191003 0.0095645 
0.0023859 -0.0237596 0.0105428 0.00284252 -0.0206631 0.00915757 0.00246706 -0.0187984 0.0113567 
0.0034646 -0.0208031 0.011058 0.00492236 -0.020303 0.00914875 0.0058898 -0.0185489 0.00930695 
0.00768245 -0.0195683 0.00949898 0.0043481 -0.0235472 0.0102089 0.00443667 -0.0186605 0.0108972 
0.00523961 -0.0217725 0.0104753 0.00792161 -0.017028 0.0105534 0.0079378 -0.0207147 0.0111201 
0.00611593 -0.0199888 0.0107232 0.00712203 -0.022752 0.0108367 0.00632288 -0.0180539 0.0111997 
0.00485577 -0.0166967 0.0109925 0.00856211 -0.0223376 0.00632047 0.0103676 -0.0214997 0.00657695 
0.0151751 -0.0185422 0.0064679 0.00928257 -0.0206898 0.00881917 0.00942144 -0.0187006 0.00902243 
0.00931775 -0.0175317 0.00732141 0.0102417 -0.0195654 0.00741643 0.0111898 -0.0171137 0.00788611 
0.0118533 -0.0207104 0.00789748 0.013512 -0.0173597 0.00744429 0.0120001 -0.0186815 0.00694131 
0.0137127 -0.0196736 0.00723122 0.0158743 -0.0167881 0.00722502 0.0129102 -0.0176877 0.00945653 
0.0141825 -0.0192845 0.00914041 0.00846957 -0.0187502 0.0114267 0.00944039 -0.0219945 0.010797 
0.00991832 -0.0200607 0.0109928 0.0101357 -0.0170546 0.00990654 0.0106236 -0.0182389 0.0114501 
0.0112871 -0.0189672 0.00970813 0.0110234 -0.0211497 0.00971912 0.0157187 -0.0180902 0.00967596 
0.0127661 -0.0202234 0.0102103 0.0118558 -0.0167632 0.0108946 0.0170059 -0.0167764 0.00888334 
-0.0183379 -0.0120314 0.00644516 -0.0206201 -0.0119243 0.00630081 -0.0193171 -0.0102414 0.0064027 
-0.0176475 -0.00886421 0.00638847 -0.0165172 -0.0146335 0.00652628 -0.0184208 -0.0152378 0.00662829 
-0.0195562 -0.0136182 0.0063218 -0.0170346 -0.016681 0.00691717 -0.0167715 -0.0107682 0.00637697 
-0.0178695 -0.0135933 0.00762432 -0.0177449 -0.0159545 0.00866456 -0.0199998 -0.0126762 0.00806337 
-0.0170498 -0.0113653 0.00826714 -0.021195 -0.0110227 0.0083117 -0.0217222 -0.0100755 0.00627237 
-0.0182744 -0.00979527 0.00806102 -0.022157 -0.00895677 0.00791277 -0.0201935 -0.00928018 0.00840677 
-0.0190676 -0.014491 0.00899247 -0.0173181 -0.0143395 0.00998485 -0.0181468 -0.0126252 0.00936567 
-0.0199843 -0.0130452 0.0100332 -0.0210127 -0.011344 0.0103099 -0.0189857 -0.0146249 0.0110579 
-0.0180759 -0.0125966 0.0113667 -0.0193297 -0.0110063 0.00926885 -0.0191352 -0.0108892 0.0114036 
-0.0177386 -0.0101423 0.0101237 -0.0207199 -0.0096619 0.0113716 -0.0219341 -0.00963273 0.00978323 
-0.0192221 -0.00877562 0.0102111 -0.0145736 -0.0141767 0.00640112 -0.0140216 -0.0122416 0.00648514 
-0.0088919 -0.00975734 0.00606854 -0.0155477 -0.00913702 0.00636103 -0.0162146 -0.0126593 0.0067651 
-0.0162787 -0.0131472 0.00875396 -0.0159293 -0.0151109 0.00857556 -0.0151303 -0.0160621 0.00679922 
-0.0120018 -0.0165886 0.00651015 -0.0126593 -0.0137008 0.00673246 -0.0107681 -0.013021 0.00679424 
-0.00929906 -0.0143535 0.00707373 -0.0111988 -0.0149379 0.0073115 -0.0122696 -0.0118531 0.0074114 
-0.0102807 -0.0110817 0.00671445 -0.0138885 -0.0102413 0.00659123 -0.0147262 -0.0166854 0.0088932 
-0.0150386 -0.0112298 0.00795632 -0.0133683 -0.0157327 0.00770536 -0.0143502 -0.0131832 0.00822152 
-0.00970921 -0.0161283 0.00796263 -0.0092891 -0.012363 0.00798316 -0.0127023 -0.0141749 0.00877338 
-0.0109513 -0.0132045 0.00878388 -0.00943148 -0.0144747 0.00906679 -0.0107563 -0.0112101 0.00884138 
-0.013252 -0.0105033 0.00851292 -0.0119236 -0.00995454 0.0068865 -0.0160422 -0.00974036 0.00886031 
-0.0103415 -0.00929161 0.00843132 -0.0142349 -0.0088097 0.00799889 -0.0105497 -0.00862785 0.00623048 
-0.0122344 -0.00853837 0.00826912 -0.0165266 -0.0117418 0.0101611 -0.015879 -0.0154333 0.0108489 
-0.0155958 -0.0134561 0.0106144 -0.014337 -0.0147641 0.00976386 -0.011196 -0.0153968 0.00926031 
-0.0126324 -0.01225 0.00933765 -0.0129069 -0.0161686 0.00995093 -0.00970111 -0.0165467 0.00992463 
-0.00920559 -0.0118854 0.00993437 -0.0133748 -0.0128509 0.0111529 -0.0121073 -0.0143488 0.0107441 
-0.0101752 -0.0148471 0.0108941 -0.00859495 -0.0136394 0.0106825 -0.0107082 -0.0129105 0.0107826 
-0.0145669 -0.011952 0.00978469 -0.0119928 -0.0113981 0.0110328 -0.0101062 -0.0102491 0.0106536 
-0.0139072 -0.0108964 0.0113609 -0.0118583 -0.00980824 0.00978776 -0.0143525 -0.00956414 0.00992986 
-0.0161135 -0.00918956 0.0108452 -0.00906329 -0.00870288 0.0098953 -0.00137958 -0.0123822 0.00658562 
-0.00775712 -0.0130873 0.00690623 -0.00767345 -0.0155043 0.00726865 -0.00755959 -0.0138151 0.00879622 
-0.00778056 -0.00984573 0.00878338 -0.00757937 -0.0110156 0.00692285 -0.00744327 -0.011818 0.00875103 
-0.00614867 -0.0141981 0.00736077 -0.00578703 -0.0161701 0.00728856 -0.0060031 -0.0121796 0.00732653 
-0.00432771 -0.0133245 0.00728106 -0.0039886 -0.0152948 0.00722983 -0.00411744 -0.0113386 0.00739706 
-0.00223793 -0.0106503 0.00735286 -0.00212905 -0.0144033 0.00741757 -0.00231949 -0.0164044 0.007237 
7.18138e-05 -0.0137416 0.00728348 -0.000541025 -0.0156046 0.00768531 -0.000505914 -0.0098728 0.00799195 
-0.00573639 -0.0102125 0.00706601 -0.00380373 -0.00940077 0.00696136 -0.00265204 -0.0125915 0.008115 
-0.0060657 -0.0150987 0.00914487 -0.000676981 -0.0133768 0.00911137 -0.00427212 -0.0142078 0.00907459 
-0.000284048 -0.0114189 0.00924188 -0.00273812 -0.0155038 0.00897823 -0.00454008 -0.0163603 0.00884103 
-0.00381502 -0.00991976 0.00909791 -0.00550012 -0.00894617 0.0086166 -0.00716619 -0.00881409 0.00717614 
-0.00201964 -0.0086378 0.00754748 -0.00793807 -0.0157975 0.00923144 -0.00729081 -0.0152709 0.0111195 
-0.0074223 -0.0114579 0.0107349 -0.00744485 -0.00942746 0.0108479 -0.00663315 -0.0133531 0.0109651 
-0.00582165 -0.0129065 0.00919256 -0.00580042 -0.0108076 0.00929973 -0.00409968 -0.0118961 0.00931776 
-0.00248357 -0.0137514 0.00992935 -0.00225497 -0.011131 0.00942387 -0.000888215 -0.015276 0.00970332 
-0.0053344 -0.014876 0.0109933 -0.00422832 -0.0132193 0.0108143 -0.00163519 -0.0122388 0.0109747 
-0.00152635 -0.010031 0.0109279 -0.00239855 -0.0164441 0.0107619 -0.00368741 -0.0107515 0.0109124 
-0.00546035 -0.0116619 0.0110782 -0.00220605 -0.00875767 0.00954165 -0.00379157 -0.00875382 0.01077 
-0.000347438 -0.00850519 0.0114842 0.00795282 -0.016204 0.00668314 0.00600539 -0.012488 0.00642415 
0.00486168 -0.016342 0.00663651 0.000437119 -0.0166435 0.00908845 0.000605676 -0.0118852 0.00675897 
0.00100552 -0.014709 0.00892065 0.00122009 -0.0127242 0.00905123 0.00141223 -0.0158225 0.00730609 
[...]
POINT_DATA 6000
FIELD FieldData 7
id 1 6000 int
3730 1093 588 1426 508 1106 1260 142 569 
94 632 1317 225 151 372 143 102 1212 
1793 260 1169 1130 210 285 888 493 494 
563 1673 12 289 441 901 1004 456 850 
846 961 874 353 1360 67 393 366 497 
1395 663 1095 223 500 131 1300 455 1549 
259 383 598 618 713 534 837 562 741 
1141 1132 244 224 572 889 1266 570 83 
873 237 1452 1309 904 287 81 719 296 
550 1674 1070 1799 533 179 1087 556 300 
99 73 714 639 624 1429 68 1464 1045 
192 37 608 1053 1473 1455 195 785 61 
234 584 891 1739 443 1081 1540 158 1504 
412 419 222 620 17 48 712 986 717 
1136 115 227 581 298 123 305 26 326 
13 955 794 46 525 297 1054 279 483 
256 1188 117 876 1255 605 793 628 1203 
1586 1753 595 539 817 15 1278 1574 1569 
954 629 8 501 1435 1640 1662 599 1535 
706 1593 1400 87 1138 1480 514 1814 1860 
1342 549 231 616 20 992 232 1226 701 
552 685 1502 97 872 650 333 695 908 
191 840 1405 399 295 1089 871 154 858 
161 404 426 139 1142 141 1254 1107 1034 
1963 814 176 565 816 344 848 1175 778 
704 1443 2010 1820 1484 146 1994 1609 1434 
395 126 1031 693 690 459 627 392 1447 
416 301 819 551 479 1001 763 762 772 
248 274 1275 1331 211 753 521 166 1332 
462 545 498 23 756 451 1024 418 380 
43 229 782 655 726 457 683 892 522 
615 465 1323 895 318 63 931 1293 518 
286 879 1518 700 207 607 885 235 777 
808 34 1658 205 59 638 532 1441 646 
253 341 156 724 1064 352 4 725 56 
958 698 90 138 586 406 2156 373 975 
710 1148 664 1074 1557 375 703 766 779 
559 1548 720 238 797 323 867 495 1103 
199 1698 1219 230 1228 360 327 1221 172 
1092 989 2113 273 129 239 3170 1937 2960 
1584 1603 1363 2601 219 2013 715 2157 1096 
1428 1367 1716 1407 897 1038 1390 1908 2093 
2238 1904 1827 1100 1562 758 1475 1906 1499 
2293 1948 371 691 1313 578 268 910 2141 
1936 1052 1380 1968 1007 878 833 1772 2399 
130 1102 1621 1023 2402 1705 2105 1950 2533 
3536 647 2424 1154 1651 1370 1890 894 1615 
3467 2061 818 3083 2104 122 454 909 21 
1213 1585 2011 1247 1307 1714 2470 2658 2171 
2674 1492 4388 3117 716 2147 541 1422 1292 
1921 1199 1564 3853 4536 4160 1491 1877 2082 
2462 4497 5012 5581 5020 2931 1530 1069 795 
189 574 258 162 511 542 1715 810 832 
2194 4426 688 1588 1388 757 1028 322 526 
641 859 213 1986 402 1878 356 2535 1809 
4207 2246 978 2482 1804 1828 1738 811 1397 
182 887 1993 163 2647 2167 1850 3014 2514 
1150 3302 1545 3171 3922 2240 1399 721 481 
265 1151 678 825 220 988 153 469 658 
175 834 312 1770 410 272 93 173 1913 
7 382 994 16 180 489 118 1387 354 
1613 515 932 2569 2209 1111 1044 387 1080 
1366 339 1566 350 1325 1311 1036 165 1731 
85 1567 1344 956 1384 1166 2703 1376 150 
1118 973 540 362 132 771 447 959 1186 
692 101 411 357 315 1108 1051 185 1786 
863 1479 1851 1086 1695 852 1787 613 1671 
567 1348 1385 496 791 1137 1354 1262 355 
476 1379 1417 27 665 2429 1565 882 1450 
2088 280 1085 634 345 676 1205 1248 1980 
174 728 1105 1539 1377 433 461 1104 1718 
856 823 171 177 342 1654 707 471 919 
1925 855 113 527 1189 1519 1623 2083 560 
768 62 906 42 1494 1537 1436 916 746 
1394 512 54 2852 215 208 1285 30 699 
351 1098 711 1938 45 1764 998 71 415 
478 1063 105 1868 1460 784 571 491 88 
918 95 2793 125 1725 1368 953 966 78 
1263 1197 1207 1501 2020 2142 1645 1220 307 
1886 593 546 1 390 6070 2595 4055 3090 
5281 5018 4073 1823 3713 4056 3295 4843 5824 
3997 5926 5850 5775 4697 5833 3422 4628 5709 
5931 5472 5773 5508 5486 5334 6064 5324 5805 
5891 4679 6017 5900 4470 5663 124 431 4001 
1072 2169 4191 614 144 749 2215 5430 537 
1127 2625 3027 4408 1495 2802 2500 3152 4965 
4720 3462 1454 761 4757 3160 4222 3894 3078 
2551 4848 5432 2358 1299 1040 308 1217 385 
1187 866 504 845 499 1468 1356 65 611 
134 1349 3259 1126 1420 2532 1337 3108 335 
1627 2504 849 668 2152 2098 4019 3193 2847 
2249 1957 3335 1290 2094 2761 2179 116 1438 
1761 2117 2621 1466 2177 936 1678 2405 1206 
2828 2043 1687 1647 673 737 860 696 359 
1392 805 58 543 529 1250 140 799 127 
1330 92 1214 564 1427 853 1059 770 1058 
2045 346 119 1347 1989 821 669 377 929 
649 1281 1506 880 838 400 145 1889 1109 
1097 877 861 659 1842 164 667 1949 1773 
626 622 635 1123 774 1149 869 135 264 
82 912 513 783 773 1066 968 788 681 
841 159 38 943 807 1784 1050 440 1822 
1442 1477 1003 524 969 467 798 1720 674 
583 281 1287 316 409 660 1341 1544 1520 
420 2107 1192 1801 942 266 111 1580 245 
604 590 594 446 396 1478 1146 765 731 
1005 1365 270 1131 636 423 1159 269 414 
450 1181 178 1211 1481 516 226 181 935 
530 934 51 473 686 188 1458 434 267 
938 187 826 5 2131 167 490 1125 2549 
4036 3440 5155 1879 5353 3248 5287 5957 6002 
4671 3538 5766 5199 5980 5563 6014 5708 4473 
6028 5951 5670 4909 5677 5568 2154 1561 2417 
5068 3349 4248 4887 1099 2941 3131 2608 5793 
5139 3652 3388 5977 2720 5610 3191 5714 4748 
3649 3345 5011 4639 2920 5082 5047 4860 6001 
4539 4430 5171 4303 3838 5154 5740 5741 3642 
5246 5938 4277 4912 4819 5910 200 1352 652 
1381 751 2799 3546 3524 3401 2430 2618 2481 
1871 2307 1689 2262 2642 340 5474 2064 5223 
3064 2516 3681 4910 2492 3186 2677 4598 2146 
1541 2463 5394 1117 107 313 1630 1945 1594 
254 979 651 1076 544 196 520 1670 684 
1234 2583 743 47 666 303 1848 1728 1027 
689 1600 1717 2351 813 2335 1927 1785 1424 
2684 1867 582 517 754 2268 427 752 386 
311 482 1225 1635 25 19 263 397 485 
448 306 597 1116 1286 35 1378 1668 424 
786 317 304 1453 621 1269 381 580 376 
321 1836 733 487 945 96 76 1872 1162 
1386 809 421 1614 363 277 1322 1617 575 
1500 1009 389 1931 824 228 221 74 3 
233 1445 325 282 110 1301 1056 1008 492 
1846 835 914 987 996 642 464 5616 951 
3517 4446 4332 5492 4571 4356 3492 3478 3594 
2708 4101 6008 5002 4484 5411 4969 4541 2432 
1333 2570 168 1249 3996 243 2923 3762 4246 
3080 2829 278 6 2735 2391 3494 5204 4422 
3836 3962 3402 3382 4176 2308 3463 5248 3960 
4014 5400 4895 4787 4198 3606 4063 4545 4213 
5360 5348 4118 4032 4917 1350 2313 995 3918 
98 2458 1258 1133 52 960 169 336 1073 
57 2245 3611 91 1579 1032 2290 2288 3924 
3022 4561 470 2297 2524 1965 2682 776 3957 
865 1156 184 2296 2633 2436 112 1043 343 
255 198 398 679 939 505 425 240 3447 
1883 79 830 612 907 702 1185 780 804 
1030 1310 1224 723 727 941 197 271 1329 
460 1362 429 1006 1652 769 2341 682 1339 
1576 378 735 89 1751 1421 1371 1703 1026 
509 2455 1222 384 114 2028 337 309 1075 
2129 857 1513 1992 2092 2309 1679 764 1047 
84 242 407 708 781 587 1243 1060 1167 
1048 100 561 1180 558 204 49 302 39 
86 468 1110 160 947 104 738 1704 1120 
32 983 368 1021 284 1797 1155 854 391 
999 2160 803 2497 347 152 1643 2097 800 
466 186 896 1246 14 1515 1413 320 1128 
884 1314 1457 519 1261 905 1884 2280 1143 
1685 1015 927 1829 1253 1592 2040 1414 694 
55 1789 1017 1174 1416 946 64 1158 148 
980 2220 108 687 789 944 1273 214 428 
1176 1012 394 1655 1543 1439 631 957 217 
790 477 2418 1291 1013 630 949 656 1510 
1737 1517 1690 2 981 1202 585 206 1486 
1153 1552 828 437 367 1554 2081 349 1145 
1951 547 1025 1766 2163 1312 1018 60 1681 
1572 1633 2184 1914 2612 1840 1147 1866 417 
2016 1121 591 348 1869 435 1201 1555 722 
637 438 332 216 1357 33 1319 293 1242 
331 1389 1231 442 1636 2616 2123 2416 3104 
1729 2000 2264 374 2519 2732 2216 2543 2267 
1553 603 1940 1750 1449 1982 640 2243 2515 
1173 2554 250 1343 1229 822 1251 103 330 
444 1874 2656 1849 1619 1448 2188 2217 2009 
2295 1821 2310 2804 1235 1037 868 1283 40 
1084 775 606 2075 1779 576 1612 1334 925 
1288 1463 1527 1611 1620 1124 1411 2269 72 
1274 1744 2051 2067 760 2111 1041 1767 2605 
183 1264 920 617 1184 1425 1194 750 1508 
1091 50 1239 2380 2224 507 9 1930 1336 
1531 1280 2159 2734 2014 2807 739 930 2644 
2491 1863 1529 1295 2730 2850 1707 1577 993 
2502 463 1991 1067 2175 2195 1077 241 1035 
275 449 1083 1682 261 523 1233 155 1193 
1664 829 18 1113 718 755 1837 1321 928 
1198 369 276 1571 1960 1303 2037 510 1575 
218 408 133 991 1244 1917 1462 36 1345 
1000 294 1802 2384 1932 1899 557 970 1732 
538 1568 740 2118 2201 643 2017 898 1631 
2057 299 2260 1990 2176 1268 1648 2350 1232 
1711 1196 1754 247 2058 2200 2170 1912 1781 
792 1719 203 1995 1164 974 1638 190 734 
201 680 1144 1841 1016 1327 1223 977 458 
1398 502 1082 358 66 1042 1020 661 1526 
1900 1538 1903 1369 815 1775 1304 1999 1237 
1741 1488 1892 1134 2155 432 2006 1853 1289 
2419 1245 1210 579 329 2333 653 886 1625 
1238 1471 982 1852 1161 1676 1677 1602 1657 
2531 2229 1430 2323 2247 2559 422 1364 2406 
1324 1843 1692 3188 334 1476 1978 1139 1800 
864 1813 1208 1723 2443 2329 548 1942 2119 
1964 1922 2413 2651 2620 1241 842 2252 1810 
2192 4281 3592 1270 1792 2025 1901 1939 2890 
2773 1918 1788 3331 2963 2882 3262 4375 1532 
3187 2488 2139 1578 3291 4121 596 3275 1928 
2393 3911 2115 3250 3346 3223 2606 3168 2997 
2673 4103 3359 3149 4351 4390 4285 5048 2919 
2977 3073 3966 5001 4792 137 2272 3526 2834 
2969 3455 3109 5173 3062 2705 3586 3618 5293 
2742 3071 5690 5073 4358 4880 2186 3196 3324 
3950 2102 3272 3620 3146 3763 3233 3176 3901 
2979 3607 4700 5309 2395 5220 3792 3938 2445 
3416 5131 3183 2135 2929 3980 4670 4573 2876 
3316 4015 4418 3883 5711 5734 5554 5239 2754 
1328 820 1642 806 3292 2518 3892 2085 1122 
2258 1461 1898 1546 4593 4003 1817 1933 3031 
3362 3059 2327 3099 1855 1598 2302 3074 2193 
3553 4425 4156 2671 1791 4386 2840 4226 3630 
2275 3351 3326 3489 2403 2371 2755 2467 2077 
3004 677 1472 2210 252 1558 1437 2248 1372 
1178 1267 1599 319 310 1663 1765 1856 2768 
1864 3507 2360 1114 1163 2577 2956 484 1659 
1209 1934 997 1743 1815 1305 2277 1783 1183 
1465 1271 2401 2048 2889 2151 1061 1171 2066 
3205 1282 1955 2283 2392 2627 609 883 2060 
2181 2743 3175 2521 2675 2114 2511 2895 3715 
2196 3680 1666 922 403 1326 950 836 1700 
405 1618 2153 940 1589 194 1699 70 2052 
2298 843 2567 2483 2145 601 1456 2106 1294 
1135 1795 1639 697 1256 2331 1393 1794 1055 
2255 1824 1862 831 1774 2084 1088 2254 1359 
1845 2557 1252 2001 1946 2365 1062 1129 2024 
1415 1667 1353 413 1961 1634 2547 2367 1165 
2377 2226 2320 2095 1776 2692 2032 1236 2517 
1694 2086 1551 1550 2316 2273 2412 2182 2359 
2314 2670 2580 1956 2584 2251 2479 488 1474 
1308 1512 730 1996 2540 1065 1919 1713 257 
1297 902 475 705 729 654 1029 1601 1200 
1591 1894 2711 948 365 2270 1157 452 1683 
3011 862 933 1624 1973 1757 1487 1760 1606 
1049 2505 2561 2710 1839 1516 1195 1637 2285 
1276 2528 2343 2068 1749 2917 3360 2574 3708 
3666 1697 2388 2700 1873 2230 2357 2161 1911 
1302 1977 2669 3121 1374 147 1190 2166 1406 
2400 1947 474 1259 2588 2520 3150 3319 2339 
1608 926 633 2008 1489 1375 2437 648 899 
985 921 1858 2253 1279 2886 2751 3303 3060 
2035 2049 2722 2545 3532 2582 3397 745 1284 
3332 2461 2747 796 3461 3627 1675 4490 3118 
2289 2286 5815 4443 5539 5556 5930 4807 4534 
5163 5799 4335 5779 5882 5987 5052 4421 5901 
5986 5464 5266 5623 4651 5576 5631 5794 5946 
5605 5446 4976 4768 5231 5229 5846 5569 5804 
4728 5635 5737 5788 5141 3696 5994 4782 4664 
5323 5675 5511 4674 3258 4959 5214 4961 3648 
5125 5442 5326 4801 4776 4834 5744 1923 3348 
3926 4105 6038 3045 4319 5310 5029 5292 3822 
5877 5342 4028 5150 4459 4452 4771 5494 4862 
4761 3870 4758 5196 5856 5543 4595 4500 5123 
4237 5858 4522 5565 5551 3745 3989 6006 4612 
4855 4088 3940 4660 4604 4181 5447 3816 4326 
3965 5878 5205 4212 4111 5625 4902 6060 5678 
3477 3578 1665 2553 1315 1929 3021 2666 2191 
2626 2128 3053 1755 1830 3192 2438 4203 3238 
3050 3970 2257 2619 4274 4278 5085 2968 3179 
1972 2218 2770 2631 3300 2496 2390 2723 3625 
2414 4164 2861 3375 4872 3645 3598 2948 3605 
3407 4592 3181 3394 3143 3815 2926 3414 4382 
3076 3136 3533 2326 4556 3135 3817 4814 2949 
2415 4693 28 2127 1079 430 2168 1412 136 
1881 964 1722 324 1402 2453 2132 2202 2784 
1910 2336 1409 2911 2976 2460 1924 2613 1702 
2312 2346 2408 1616 748 2797 1505 2440 1857 
1626 2849 2441 2383 3209 2019 3419 2896 2090 
3802 1641 1727 1170 2550 3001 2908 2967 1896 
2845 3333 2980 3624 2638 3848 338 528 1983 
1019 170 1706 1691 1595 577 31 157 645 
1710 1985 917 610 844 592 1497 787 1160 
202 1653 1094 1090 1423 1230 2624 2063 900 
1748 2100 1408 1752 2292 1335 251 742 1959 
2573 1825 1483 1803 2239 2398 972 1818 1629 
1895 1257 536 1002 503 121 1969 1724 963 
2172 2026 2571 1358 2877 1790 1974 2205 2214 
2334 1861 2055 2778 2311 2073 2904 1240 1039 
77 1696 767 623 531 671 80 120 675 
486 870 893 1451 445 1926 2165 1046 2219 
1172 555 1010 812 106 1509 1819 246 736 
1979 1101 2087 984 1298 2282 1756 1604 554 
288 827 1967 1191 937 22 967 2038 2324 
262 759 2138 1891 1646 1952 2752 3234 2197 
1812 1835 1721 1340 1277 625 2206 1987 1470 
1708 1361 2634 2785 1296 2526 1533 1976 1433 
5774 5904 5976 4209 4367 5567 6031 5339 4137 
5515 5252 5966 3837 5538 5604 5722 5728 5208 
5356 4201 5599 5398 4461 5143 5256 5466 4920 
5975 4659 4900 5758 6000 5271 5105 4110 5527 
3219 5138 5825 4675 5847 5119 5521 6058 5308 
5701 5757 5520 4719 5724 5178 4616 5435 5967 
5100 6024 5519 5592 4299 4310 5669 4972 6007 
6040 6029 5027 6023 5470 4119 5335 5932 5839 
4157 5674 4677 5875 5420 4997 5025 4995 5028 
5235 5177 6022 5676 5836 5806 4266 6037 5213 
5817 5909 5475 5501 5996 5571 4617 1650 4150 
4107 3736 5099 5046 4178 3731 4400 4901 4413 
2995 2954 4546 2603 3249 3424 5405 4696 3603 
4661 4938 4167 3623 5301 4525 4338 4049 4232 
5791 4365 5017 6053 4711 3826 4197 4389 3628 
4665 3975 5227 5647 4726 4986 4017 4186 4954 
3142 4759 5745 3409 3776 3069 4668 3903 4925 
5471 4256 5870 4833 4977 5550 5198 4656 4403 
3954 4562 4124 3457 4669 5201 5387 4973 3164 
4263 5137 5845 4350 4021 4170 5637 3525 5933 
2281 2604 3863 3373 2772 1876 2867 2291 3862 
2486 1547 1782 1916 2099 2183 2818 2879 4100 
2116 1831 2300 3660 2760 2933 2714 2480 1915 
2632 3563 2646 2724 2789 2815 2353 3393 2140 
2899 2812 2373 3347 3709 2476 2587 3865 3504 
3453 3047 3898 3539 2798 2787 3285 3221 3572 
2562 2950 3141 2864 3127 2913 4531 4317 4006 
1661 75 1796 1068 915 149 1528 2449 1736 
2041 1656 1496 1622 1875 2029 1847 2080 291 
1769 2242 2501 2162 839 1204 1712 1383 3154 
2866 2056 1758 1556 1780 881 2471 2478 2109 
2433 890 2865 2325 2231 3355 2649 1688 2306 
1735 2137 1885 2484 1419 1771 1418 3471 1887 
3725 2831 1897 2652 2071 2074 480 1582 439 
361 847 802 1318 971 1272 379 236 566 
109 2687 1179 506 24 747 670 1834 1573 
2112 1216 600 875 1033 29 1014 1071 1583 
1503 1446 2375 1649 2228 1403 1693 53 1981 
2984 2494 1893 2126 2746 2499 5731 5409 5359 
4166 4735 3591 5928 4417 5650 4851 5861 5808 
5813 6048 5993 5939 4991 5923 5498 5699 5261 
5719 5424 5118 6003 5816 5535 5883 5383 4214 
6050 5984 5600 5460 6068 5608 5351 5792 4924 
3819 4950 5684 4172 4974 5185 5800 4368 4117 
4058 5449 3377 3101 5764 4903 2912 5066 5703 
5557 4610 3812 3742 5403 5704 5158 5195 5236 
5736 5630 5619 6065 5280 5006 5311 4874 4602 
4519 5869 4261 5692 5612 5959 5844 4489 5381 
5392 4407 5514 4939 5414 5390 5886 5075 3778 
5522 5767 5828 5585 5760 5786 3963 5721 4330 
4514 4405 3279 3632 4076 4145 2223 4147 2993 
3225 3395 3949 2536 3122 3254 2661 3811 3151 
3861 4188 3873 3410 3604 3766 3740 4323 3672 
4657 1115 3043 3655 4436 4937 3437 3566 2947 
4643 3084 5344 4494 3845 5037 4158 4580 3227 
4012 3945 3430 3449 2374 2585 1011 2284 1182 
2050 2018 41 2522 2164 2643 2379 2381 328 
2786 1524 2851 2596 3614 3799 1984 3434 2640 
2004 2657 3009 2699 2354 2103 3051 1467 3567 
3469 2880 2821 2729 1742 3106 2718 3859 3787 
2110 3134 2121 1806 3356 2579 1078 2345 2185 
2007 1057 2721 1747 2376 2737 2203 990 1522 
2556 2410 3115 3133 3201 3376 2731 3066 3006 
3757 2475 4254 2204 1498 2396 913 370 1382 
1316 2411 2023 923 1844 1265 662 2091 1865 
10 1523 1859 2059 2940 2452 2250 2125 2022 
1905 1628 1514 2143 2190 1954 1997 1355 2906 
2189 962 3016 1953 3281 3129 69 2389 1805 
3585 1482 2563 1816 2725 2407 3024 3678 3464 
2136 1597 1590 364 1988 965 1680 1119 1605 
314 2078 1733 1759 1485 2234 193 1022 2072 
2423 2233 1346 976 1808 2237 553 619 1684 
2328 589 1570 1493 2431 11 1432 2542 1215 
2261 2663 2144 1152 1854 2378 2148 2513 2697 
2031 2617 2046 2466 2872 2962 2434 1907 1701 
2332 2653 2447 3297 1373 2987 1909 4273 3322 
3030 3002 2096 2076 2594 3211 3216 3797 4629 
3909 2796 2053 3023 3689 4148 3548 3475 3516 
4433 2992 2740 4292 4810 3165 2227 2905 4560 
1870 2837 2597 1807 3746 3039 1970 2717 2759 
3519 3442 2558 3707 4298 3217 3650 4199 2726 
3207 4008 2236 3987 3724 4000 4538 4897 6041 
5553 3145 1525 2578 2469 2366 2958 2814 3061 
453 2274 2744 3418 2892 3224 2944 2495 3486 
3287 2820 2278 3925 3753 2457 4238 3979 4291 
2986 3807 2593 3197 2450 3564 3313 2688 4047 
4169 3305 3880 2897 2537 3497 3408 3944 4115 
5661 6067 3330 4460 4474 3032 2581 2033 1975 
2315 2174 1587 283 2733 1838 2765 128 2337 
249 2830 2686 2736 2498 2101 3328 2212 2641 
2425 2680 2451 3125 3086 2622 2512 3123 2813 
3801 2832 2916 2758 3677 2965 2988 3638 3569 
2873 2069 3421 4506 3426 3399 3037 3378 2386 
2523 3077 3540 3283 2951 2728 2805 2690 2946 
3654 2021 2609 2862 1536 1140 1542 2610 1227 
2124 3075 2178 2738 2027 2468 2507 2817 2222 
2321 2394 2456 1888 2982 2555 2667 2348 2791 
3172 1444 2694 1763 2972 2370 2881 2572 2701 
1660 2790 2362 3280 3035 2750 3602 2566 3458 
3363 3357 2539 3371 2364 2235 2065 2541 3290 
2999 3384 2757 3063 3470 3210 3798 4187 3891 
3619 1338 3706 3067 2592 2748 2978 1560 2628 
3535 3992 3198 3590 3189 2994 2745 3025 3095 
3928 2756 3358 3155 2044 3840 3156 1943 4645 
3558 4173 5169 3448 2369 3372 3860 2696 4520 
4678 3784 4353 3465 2927 2763 4805 4321 4224 
4861 3774 3126 3765 3788 4712 4502 4083 4090 
3622 3370 2935 3444 3529 4271 3897 4193 4482 
3314 5628 4673 6047 4687 2564 5194 4808 5978 
5626 5848 3886 4730 5302 4914 6025 4468 5662 
5038 5922 3793 5981 3750 5695 4027 3091 2833 
5865 5561 6027 3340 2808 3137 3278 5586 2909 
3818 3454 2884 5705 4379 3501 3704 4532 4999 
4892 5657 4943 3317 5056 5588 5748 3849 3508 
4818 4921 4767 4447 5402 6056 4705 4064 5193 
5866 5942 5341 3643 2695 3301 3321 3958 3577 
4013 3835 3829 3204 4472 3759 4204 4882 2996 
2134 4059 4194 4811 4591 4300 4550 3264 4691 
3890 3158 3839 4128 4376 4953 4467 2338 3057 
3582 4577 3866 4455 3983 3482 4265 4663 3484 
5541 4750 4381 5809 3906 4412 4849 2525 2259 
2870 2952 2907 3012 3174 2938 3015 3423 2655 
3581 3112 3093 2490 2659 4053 2971 4243 3226 
2826 3367 3215 3329 4245 1778 2766 2464 2493 
4038 2930 1833 3509 2241 3048 3946 3403 3081 
3557 4185 2448 2981 3691 3441 4045 3483 4333 
3244 3554 3684 1610 2801 3544 3116 2803 2485 
3417 3560 3733 4086 3450 3832 4644 3185 5117 
4061 3760 3697 2211 2635 2012 2883 2305 2706 
1559 2266 1726 2552 1669 2869 2771 2319 2623 
2444 2983 2317 2565 2427 2811 2822 1746 2042 
2599 2130 2198 2774 1962 3673 2271 2213 2039 
2382 2356 3522 1740 2363 2827 1521 2681 3404 
2473 1880 2650 1440 3555 3491 3203 3206 3783 
2207 3240 2435 3515 3748 1832 2630 2974 3352 
2472 3269 2344 3130 3338 3055 3241 2122 2299 
2702 4065 3052 4225 3636 4182 3810 2340 3337 
2856 3018 3551 3769 2819 2576 3782 3341 3044 
2187 2330 1826 2322 1902 3613 2036 1798 3228 
2387 2054 2385 3105 2709 2439 1534 1469 3867 
2868 2874 3163 2276 2860 3263 3846 3420 3304 
2698 3913 2903 3728 2715 1768 3800 3743 3159 
3438 2079 3912 3245 4594 3808 2342 3148 4879 
3273 3429 3092 4046 3054 4778 3857 2459 3878 
3908 2970 3195 2809 4143 2678 2842 3472 2303 
2777 1563 3767 2639 1320 2810 2221 4655 2704 
2589 2668 2816 2957 2645 2918 3579 2294 2767 
3119 4095 2835 2719 2878 4344 3505 2003 4134 
2825 3087 3232 3568 4637 4004 3089 3383 3385 
5597 3852 3296 1410 4349 3615 3612 4348 5377 
5725 4940 4979 5429 5607 6052 5911 5135 4177 
5097 5821 4370 5872 5358 5505 5860 5116 5370 
5129 5656 4854 5801 4588 5509 5296 5080 5912 
4587 4799 4894 5495 5902 5148 5829 5448 4360 
4820 5362 4717 5219 5045 5112 3951 5823 5459 
5995 4151 5668 5510 5622 4703 5855 3212 5918 
5065 5427 4527 4638 3874 4926 3459 4324 3528 
4825 3789 4364 5095 4944 4149 5416 5685 3972 
5321 5332 5584 4524 4743 5276 5530 5058 4840 
5710 5504 4179 3920 4994 4171 3162 5384 5275 
5812 4672 5989 5242 5593 5453 5652 4731 5059 
5107 3574 4528 5008 4202 4218 2691 3318 3761 
4252 3325 3702 3723 2859 3662 4540 3512 3809 
3128 3850 3336 3658 4567 2598 3842 3391 3634 