# vtk DataFile Version 4.2
Generated by LIGGGHTS
ASCII
DATASET POLYDATA
POINTS 5999 float
-0.0352658 0.0279202 0.00315628 -0.0285617 0.0346505 0.00242654 -0.0139726 -0.0425364 0.00422622 
-0.017795 -0.0413119 0.00413089 -0.0197071 -0.0404081 0.0076731 -0.0160067 -0.0419808 0.00766297 
-0.0120248 -0.0423792 0.00774013 -0.0139987 -0.0426539 0.0112703 -0.0177928 -0.0413095 0.0111804 
-0.0102516 -0.0438185 0.0120549 -0.00997918 -0.0423276 0.00396074 -0.00656295 -0.0445206 0.00364853 
-0.00254222 -0.0440792 0.00389064 -0.00638981 -0.0403831 0.00415996 -0.00244091 -0.0404047 0.00555739 
-0.00846455 -0.0441801 0.00723847 -0.00448008 -0.0447502 0.00734419 -0.00550044 -0.0409604 0.00812524 
-0.000774355 -0.044976 0.00888472 -0.00224272 -0.0413892 0.0104062 -0.00646047 -0.0439291 0.0107716 
-0.00830744 -0.0403789 0.0109545 -0.00288605 -0.0448879 0.0123053 -0.00508864 -0.0410791 0.0132577 
0.00138145 -0.0449471 0.00419123 0.00509265 -0.0433872 0.00378373 0.00923505 -0.0440099 0.00354371 
0.00262629 -0.0400423 0.00430655 0.00477433 -0.0412183 0.00748484 0.00907819 -0.0408399 0.00728764 
0.00720407 -0.044385 0.00720193 0.000783244 -0.0414506 0.0076816 0.00311454 -0.0448825 0.007883 
0.00766582 -0.0411033 0.0111061 0.00567481 -0.0446156 0.010986 0.00155964 -0.0409054 0.0116314 
0.00178981 -0.0449037 0.0119692 0.00876723 -0.0441139 0.0135159 0.0155636 -0.0419437 0.00449267 
0.0111755 -0.0402414 0.0038754 0.0122594 -0.0432283 0.00636102 0.0179911 -0.0411268 0.00767548 
0.0103489 -0.0437878 0.00984307 0.0146645 -0.0424235 0.00950571 0.0178504 -0.0411114 0.0117154 
0.01328 -0.0429541 0.0132225 -0.0308032 -0.0327629 0.00429794 -0.0314697 -0.0314407 0.00817125 
-0.0311323 -0.0324743 0.0121103 -0.0246323 -0.0333845 0.00420216 -0.0248368 -0.0374823 0.00419511 
-0.0212736 -0.0311469 0.00411554 -0.0212472 -0.035523 0.00423077 -0.0213972 -0.0395387 0.00410453 
-0.0279188 -0.0352715 0.00548553 -0.0270001 -0.0316863 0.00704758 -0.0232469 -0.0385018 0.00779679 
-0.0233314 -0.0345078 0.0081268 -0.0234467 -0.0305239 0.00848141 -0.0289734 -0.0343796 0.00926687 
-0.025916 -0.0367861 0.0102356 -0.025657 -0.0328465 0.0109268 -0.0214337 -0.039511 0.0114474 
-0.0225289 -0.0357067 0.0120706 -0.0219703 -0.0317384 0.012016 -0.027972 -0.0352033 0.01328 
-0.014616 -0.0310393 0.00424438 -0.0179023 -0.0333262 0.00438786 -0.0119165 -0.0388233 0.00420354 
-0.0142975 -0.0350706 0.00417378 -0.0107576 -0.032565 0.00446766 -0.017595 -0.0373451 0.00466641 
-0.0113688 -0.0357531 0.00682941 -0.0145856 -0.0382068 0.00718847 -0.0199751 -0.0323593 0.00770136 
-0.0163882 -0.0343405 0.00799353 -0.0130761 -0.0320943 0.0078 -0.0198215 -0.0364165 0.00792139 
-0.0120645 -0.0391629 0.0101561 -0.0133609 -0.0353682 0.0104447 -0.0167759 -0.0375029 0.0104648 
-0.0185973 -0.0300413 0.0106928 -0.018935 -0.0341856 0.0111218 -0.0146518 -0.0305173 0.0111487 
-0.0117875 -0.0327126 0.0130226 -0.0105462 -0.036535 0.01312 -0.0145873 -0.0392668 0.013326 
-0.0156338 -0.0337697 0.0133456 -0.00206244 -0.030018 0.00419031 -0.00834724 -0.0368954 0.00422981 
-0.00396376 -0.0341933 0.00448766 -0.00601243 -0.0307332 0.00406535 -0.000796636 -0.0368303 0.00481694 
-0.00743113 -0.0336547 0.00643338 -0.00538274 -0.0371412 0.0069202 -0.0091518 -0.039679 0.00698945 
-0.00137337 -0.0339541 0.00756715 -0.00382907 -0.0305884 0.00774818 -0.00182021 -0.0378218 0.00864079 
-0.00955431 -0.0327307 0.00970075 -0.00490077 -0.0340685 0.00950396 -0.00861687 -0.0366259 0.00959933 
-0.00636681 -0.030585 0.0108401 -0.00505091 -0.0377763 0.0109994 -0.00204805 -0.0308893 0.0118256 
-0.00141985 -0.0381685 0.0126487 -0.00753439 -0.0338334 0.0130882 -0.00359069 -0.0347703 0.0133819 
0.00706898 -0.0398227 0.00381223 0.000608077 -0.0330215 0.00420521 0.00737693 -0.0350633 0.00396185 
0.00853272 -0.0312256 0.00409632 0.00340376 -0.0359528 0.00415227 0.00464743 -0.0321574 0.00440532 
0.0099462 -0.0370488 0.00633007 0.00597261 -0.0374195 0.00687397 0.00204169 -0.0375569 0.00760255 
0.00261314 -0.0335696 0.00772003 0.000258644 -0.0303021 0.00782924 0.00661695 -0.0336355 0.00810324 
0.00848588 -0.0372916 0.010059 0.0046234 -0.038579 0.0104936 0.000206904 -0.0347655 0.0112377 
0.00595758 -0.0310205 0.0111213 0.0042782 -0.0346531 0.0111977 0.00917087 -0.0335329 0.0112713 
0.00196535 -0.0311684 0.0113477 0.0129283 -0.0304449 0.00428923 0.0185668 -0.0393148 0.00412853 
0.0169107 -0.0314851 0.00382283 0.0113188 -0.0341007 0.00397563 0.0177231 -0.0353995 0.00413667 
0.0140747 -0.0370763 0.0038873 0.0146446 -0.0338429 0.00621823 0.0194176 -0.0326267 0.00673561 
0.0135056 -0.0394713 0.00704813 0.0105244 -0.0322695 0.00765806 0.0166357 -0.0369999 0.00773289 
0.0114639 -0.0399907 0.0104885 0.0125094 -0.0356385 0.00913893 0.0139554 -0.0319453 0.00970638 
0.0175071 -0.0337735 0.0100874 0.014945 -0.0381311 0.0112115 0.0188044 -0.0371741 0.0117708 
0.0183791 -0.0303531 0.012035 0.0113055 -0.036738 0.0128515 0.0146057 -0.0343792 0.0128543 
0.012946 -0.0305453 0.0134951 0.0215917 -0.0343583 0.00382103 0.0206945 -0.0301295 0.00387319 
0.0254957 -0.0360813 0.0039566 0.0225949 -0.038903 0.00418762 0.0246253 -0.0317467 0.00391043 
0.0297322 -0.0336123 0.00373821 0.0205378 -0.0367349 0.00687384 0.0280161 -0.0351671 0.00700078 
0.0237145 -0.0338083 0.00725735 0.0244561 -0.03773 0.00753663 0.026839 -0.031362 0.007796 
0.0212561 -0.0396348 0.00959262 0.0215118 -0.0319615 0.0101225 0.0223378 -0.0358699 0.0104056 
0.0277097 -0.0354469 0.0109792 0.0287306 -0.0300781 0.0111317 0.0249952 -0.0326946 0.0120285 
0.0248941 -0.0374632 0.0130693 0.0206378 -0.0338058 0.0135748 0.0326879 -0.0308236 0.00432623 
0.0306877 -0.032845 0.00897 0.0331419 -0.0304483 0.011964 0.0303925 -0.0331367 0.0131047 
-0.0400133 -0.020502 0.00413204 -0.0358703 -0.0271599 0.00438272 -0.0323213 -0.0290071 0.00436403 
-0.0327118 -0.0218446 0.00448565 -0.0373609 -0.0234571 0.00464671 -0.0332925 -0.025143 0.00669231 
-0.0302771 -0.0276247 0.0076251 -0.0351158 -0.0217136 0.00768636 -0.0344779 -0.0288338 0.00774129 
-0.0390561 -0.0222818 0.00808753 -0.0369153 -0.025677 0.00833148 -0.0311602 -0.0220828 0.00816632 
-0.0300228 -0.0252968 0.00435074 -0.0336701 -0.024108 0.0105755 -0.0321514 -0.0286852 0.0110084 
-0.03817 -0.0238243 0.0116756 -0.0356326 -0.0207337 0.0115311 -0.0358259 -0.0272302 0.0118775 
-0.0311676 -0.0216186 0.0124844 -0.0211926 -0.0258731 0.00423488 -0.0251641 -0.0245894 0.00445639 
-0.0282987 -0.028935 0.00434053 -0.0278224 -0.0215914 0.00427984 -0.0242878 -0.0285299 0.0043865 
-0.0220876 -0.0219698 0.00429966 -0.0277305 -0.0240429 0.00748929 -0.0244795 -0.0216846 0.00752792 
-0.0202627 -0.0283789 0.00730127 -0.0230545 -0.0254174 0.00779036 -0.0262819 -0.0277845 0.00778981 
-0.0284057 -0.0299728 0.0104108 -0.0276819 -0.0213375 0.0104749 -0.0297657 -0.0249797 0.0108034 
-0.0257513 -0.0250979 0.0108312 -0.0223057 -0.0230517 0.0109415 -0.0219627 -0.0275914 0.0110811 
-0.0278495 -0.0273571 0.0133894 -0.0206904 -0.0204705 0.0135551 -0.0200784 -0.0250871 0.013573 
-0.0179853 -0.0288612 0.00402714 -0.0172933 -0.0248642 0.00409032 -0.0140888 -0.0213551 0.00416592 
-0.0181769 -0.0209585 0.00416623 -0.0133353 -0.0252762 0.00464353 -0.0118432 -0.0287341 0.00600954 
-0.0196222 -0.0234349 0.00708989 -0.0117552 -0.02256 0.00722763 -0.0160799 -0.0293828 0.00757811 
-0.015643 -0.023795 0.00757388 -0.0181599 -0.0260366 0.00980582 -0.0142128 -0.0267316 0.00992646 
-0.0109472 -0.0290227 0.0104167 -0.0184075 -0.0221288 0.0106886 -0.0110093 -0.0211444 0.0109073 
-0.0145434 -0.0229969 0.0113385 -0.011114 -0.0249542 0.0121409 -0.0162829 -0.0263806 0.0133685 
-0.00967562 -0.0236798 0.0039928 -0.006583 -0.0209665 0.00395694 -0.00853586 -0.0275306 0.00403729 
-0.00353547 -0.0235704 0.00417689 -0.000770403 -0.0263305 0.00507697 -0.00465419 -0.0272226 0.00544978 
-0.00667499 -0.0239179 0.00665557 -0.00815189 -0.0297806 0.00733953 -0.00437787 -0.0209193 0.0079795 
-0.00109554 -0.0233803 0.00776579 -0.00836962 -0.020528 0.00795733 -0.00983514 -0.025964 0.00808858 
-0.00204078 -0.0271577 0.00878427 -0.00601152 -0.0269286 0.00921166 -0.00774292 -0.0235508 0.0105083 
-0.00361377 -0.0239841 0.0108184 -0.000203371 -0.0256883 0.0120319 -0.00549943 -0.0206446 0.0121143 
-0.00797905 -0.0273831 0.012667 -0.00377129 -0.0274236 0.0129202 0.000347285 -0.0223362 0.00404378 
0.00967994 -0.0273861 0.00399408 0.00693795 -0.0244789 0.00417802 0.00431014 -0.0214559 0.00413633 
0.00189337 -0.0292275 0.00432642 0.0057876 -0.0283125 0.00419019 0.00303219 -0.0253594 0.00426825 
0.00745343 -0.021335 0.00663077 0.00423905 -0.0298882 0.00768807 0.00814464 -0.0289954 0.00742175 
0.00289709 -0.0230696 0.00756992 0.00593075 -0.0256746 0.00794214 0.00203966 -0.0267653 0.00887656 
0.00932066 -0.0241448 0.00946856 0.00583826 -0.0223061 0.0101824 0.00169458 -0.0213836 0.0110156 
0.00767501 -0.0274071 0.0111174 0.00376892 -0.0251342 0.0121133 0.00883991 -0.0203782 0.0119955 
0.00817577 -0.0241033 0.0133254 0.0142453 -0.024177 0.0040552 0.0179902 -0.0227609 0.00385314 
0.0166841 -0.0273572 0.00385298 0.0148493 -0.020217 0.00418012 0.0108225 -0.020062 0.00438505 
0.0105914 -0.0238422 0.00568292 0.0128413 -0.0270693 0.00644592 0.0159394 -0.0295195 0.00719886 
0.0168409 -0.0249146 0.00702464 0.0196149 -0.0279344 0.0073177 0.0137789 -0.022405 0.00765762 
0.0178528 -0.0206512 0.00787014 0.0111448 -0.0291108 0.0100685 0.0130039 -0.025563 0.0101497 
0.0166735 -0.0271469 0.010357 0.0162611 -0.0231793 0.0107003 0.012538 -0.0217946 0.0114191 
0.0110557 -0.0269025 0.0134129 0.0190905 -0.0226978 0.0135002 0.0280991 -0.0296926 0.00407239 
0.0204286 -0.0259358 0.00392702 0.0239822 -0.0277887 0.0037509 0.0239684 -0.0237175 0.00393881 
0.0274197 -0.0257463 0.00395147 0.0271483 -0.0211416 0.0038936 0.0219228 -0.0214987 0.00659742 
0.0231281 -0.0298393 0.0071113 0.0227643 -0.0254649 0.00734185 0.0262858 -0.0273878 0.00742293 
0.0257906 -0.0227917 0.00738018 0.0291302 -0.0247599 0.00843417 0.0201648 -0.0233814 0.00966992 
0.0241697 -0.0240807 0.0108268 0.0213659 -0.0270311 0.0108021 0.0299963 -0.0288802 0.00752404 
[...]
POINT_DATA 5999
FIELD FieldData 7
id 1 5999 int
347 1899 514 544 477 215 124 532 474 
780 482 144 333 828 27 454 161 625 
218 866 40 1461 328 882 856 1037 1092 
589 250 877 455 18 122 885 1323 67 
995 1765 307 203 901 495 1119 430 1350 
531 1045 19 1213 120 924 520 97 862 
598 1044 1171 505 200 100 680 1270 282 
1098 390 1477 379 145 107 135 228 52 
450 551 153 1328 407 271 1164 1828 1575 
1620 647 1995 566 1299 795 1861 1095 53 
426 263 158 257 242 414 209 194 10 
1650 981 1286 1289 1834 452 1589 1846 65 
408 1008 336 706 476 501 773 138 185 
596 515 83 233 1446 2165 1232 772 665 
892 364 230 992 41 404 246 777 338 
567 1033 109 907 391 1632 1067 696 707 
1580 1471 1677 2109 247 608 245 690 46 
760 47 605 1358 968 1387 1792 1284 1434 
1608 449 147 1543 852 154 340 800 1485 
1316 557 966 274 440 512 285 764 1280 
675 580 443 115 750 1188 1013 323 2027 
889 378 623 434 1019 874 816 33 94 
119 713 1005 254 183 1162 488 198 548 
574 493 1785 63 946 724 294 669 302 
402 1476 1506 49 953 1043 1463 1639 1836 
2042 744 2067 11 1015 704 546 424 199 
1166 464 1640 1028 711 55 1331 818 1242 
1023 2292 1605 1059 905 174 365 469 504 
776 952 684 371 400 633 1676 1285 1179 
1754 534 2285 1789 1159 1855 1283 276 8 
114 149 293 758 918 102 641 844 937 
392 1697 943 1074 1862 1609 938 1274 397 
1042 614 310 54 876 1036 1176 1412 442 
858 2136 1217 785 1191 248 1491 69 1468 
872 1365 516 401 210 112 509 267 382 
779 22 90 1114 689 617 643 652 471 
739 136 861 413 249 921 1678 1327 2328 
1178 787 348 349 1107 437 57 659 703 
223 803 525 741 639 1113 1389 824 578 
1398 1064 650 344 131 281 550 360 68 
125 243 854 1325 533 977 1407 963 1563 
1683 2129 1345 655 1844 664 84 374 311 
502 345 487 674 1623 1722 697 1208 668 
1055 7 1448 1672 9 832 2047 1749 99 
429 175 296 42 113 815 190 951 201 
808 964 747 990 403 1647 986 179 1525 
888 1597 205 66 1126 616 168 1338 1418 
38 1482 718 1152 994 1404 1174 2128 1012 
1644 1684 1572 1144 317 1494 396 875 353 
980 1083 1185 2221 622 833 1177 1497 1710 
726 1377 270 1960 1913 1852 39 630 848 
1077 117 256 1288 291 859 635 819 1508 
1330 1931 240 1383 987 1406 1369 1199 2312 
1223 350 528 231 1035 962 461 788 523 
123 1775 679 43 927 658 1132 1319 834 
518 1767 1243 2278 423 142 86 590 314 
1180 754 1276 372 1262 1214 853 1057 1355 
692 139 1372 1222 1324 894 1948 686 1503 
417 163 802 399 1584 1123 562 1212 92 
749 898 1961 1118 222 1679 1385 25 1096 
20 783 72 1537 1772 1359 1830 558 202 
826 767 613 1196 318 941 881 126 906 
485 354 1269 447 731 1071 1443 1333 496 
884 369 1231 619 1618 1235 1310 1429 2307 
221 821 58 612 584 1101 545 1130 727 
1133 278 1295 508 376 1622 1099 1822 1081 
1536 441 1460 903 1105 931 342 445 500 
543 1586 1509 1140 831 869 575 2104 1003 
1839 491 1356 1091 1263 627 1481 489 1486 
427 1027 710 830 695 1088 1569 1876 1728 
1428 1030 1964 479 1125 1529 1142 967 305 
900 322 784 855 1692 537 1202 1281 1674 
1444 1366 1181 1845 1630 893 1967 812 483 
410 73 393 421 1161 935 896 389 1120 
1100 933 1060 1796 1145 1886 1982 1702 1399 
1925 2346 48 458 1032 108 842 137 751 
1914 1945 1517 1041 914 241 418 367 1151 
796 693 870 1011 1557 1006 134 604 1014 
1516 105 292 673 781 1009 615 24 1334 
756 1228 511 835 873 1038 1221 1353 12 
224 766 755 813 857 1351 775 610 1233 
890 654 1111 982 1744 983 1225 110 1842 
789 463 16 5 971 23 330 607 499 
702 920 1567 1131 1522 2362 1928 794 1362 
1158 2001 2139 1254 998 1128 352 594 77 
462 677 1512 667 682 29 1871 843 1907 
2018 947 237 743 1455 229 78 563 206 
1277 346 334 526 845 840 1300 280 300 
1395 355 1226 878 942 1480 728 838 717 
170 763 1106 886 273 193 792 974 309 
1238 587 1320 1148 381 570 1305 606 1168 
498 375 560 384 734 517 127 678 370 
719 362 297 189 1054 1089 188 431 565 
148 1707 1478 81 286 432 934 956 975 
527 171 730 368 1010 1487 1139 1831 723 
1445 473 128 320 712 377 564 1426 984 
503 1778 993 1112 1400 1812 88 380 1197 
295 1080 1297 1149 1301 1673 313 155 182 
522 1073 341 1613 1439 101 716 1576 919 
1294 922 632 2248 232 817 1450 847 745 
1066 214 586 265 742 1523 1090 1018 239 
167 867 700 1078 1052 2279 2242 1553 1312 
1024 657 1072 387 535 915 949 357 303 
988 32 419 588 827 1344 778 1255 1449 
1936 1884 1826 165 394 592 298 244 331 
572 1193 70 1086 1335 1490 1430 1394 737 
1972 1879 733 1540 459 1367 836 436 868 
691 287 301 1237 36 1020 746 1153 453 
676 2114 420 911 2452 260 631 996 640 
191 721 64 180 541 216 1150 326 1085 
1311 930 484 979 809 164 315 87 822 
1535 579 80 671 79 98 225 283 186 
130 646 955 709 958 609 648 1682 192 
940 1021 708 2115 3 1040 356 576 337 
266 75 910 626 480 448 765 238 1321 
561 554 1069 1976 405 74 150 887 159 
944 524 1583 50 1271 1384 481 1124 103 
316 361 197 656 573 688 51 849 2 
1135 13 740 1532 60 620 1984 288 21 
212 1016 954 104 1097 923 412 891 1022 
600 1604 1459 841 1566 435 1560 2010 2446 
2225 736 146 1220 660 771 1346 472 925 
439 790 1349 1343 1617 559 1726 1257 71 
425 556 880 91 715 839 926 93 258 
1442 62 1745 1004 603 793 1819 1001 1897 
644 2406 774 325 521 519 160 121 76 
290 152 1248 599 957 683 1246 791 618 
1309 1156 284 1625 681 628 332 28 569 
406 529 251 272 386 277 35 725 373 
846 685 1436 698 1859 177 478 1611 929 
748 1103 235 312 329 1227 638 738 1670 
820 547 1695 1582 752 965 226 1368 428 
116 227 799 95 571 976 1205 991 850 
34 85 1273 804 1267 363 928 1655 151 
705 1084 220 582 1053 306 383 1136 1165 
1296 1875 169 1388 2460 1764 1873 468 304 
513 851 255 388 96 339 1725 798 275 
14 1287 1534 196 2055 1172 624 2764 629 
1134 409 133 118 1703 204 89 1641 1298 
1571 2007 2049 1160 1868 1475 1410 1303 259 
1484 181 642 299 166 973 264 1068 811 
591 649 1000 538 1167 184 2146 486 261 
6 15 140 1117 636 45 30 438 321 
829 324 1504 666 1108 490 759 645 1591 
577 1651 289 213 173 769 916 507 433 
195 143 415 59 157 1249 583 466 801 
1336 327 786 1752 61 1025 129 475 234 
999 1173 1147 593 497 899 141 207 132 
1290 552 729 510 269 762 1495 904 111 
395 701 530 422 621 451 1209 542 56 
1816 1980 1390 268 217 1489 343 446 1189 
1542 768 162 909 735 1790 1856 2690 1717 
2680 2122 2618 1 913 602 1245 3284 2196 
2046 2641 2257 2100 3086 3465 178 26 1386 
601 2289 1638 1259 1598 3160 2845 3808 864 
2254 2633 2720 411 1433 1278 2349 997 969 
1392 797 2073 1194 1957 1869 699 2195 782 
2247 2303 2847 1581 2102 2250 1326 1079 2364 
2621 1547 2275 2245 2464 1603 3348 2987 3013 
1661 2421 1783 2417 1602 1882 1690 1774 219 
1705 1649 2527 2157 2612 2121 2106 2084 1590 
2526 1681 1626 2840 2098 883 1498 1878 1999 
2065 1718 2031 457 1175 1420 1488 2003 2825 
1146 2351 1800 2383 2959 2833 1411 1688 1614 
2472 1533 2455 2187 1906 2684 2624 3174 1850 
1421 1169 1251 1519 2295 1981 2377 3008 2075 
2355 2932 2606 2517 3464 2545 1756 2735 662 
1187 1341 1186 687 2416 1952 2044 1937 465 
2611 2560 2538 2675 2689 1802 1017 1416 1275 
279 2300 1058 1949 2143 1733 1771 1564 2391 
2314 1382 2646 2493 2601 1746 1991 2041 1026 
2781 2347 2145 1633 1470 2185 1779 2869 2008 
2746 2613 3425 3411 1843 1734 1768 2150 1538 
1696 1943 1437 2009 2427 2305 1253 2291 2767 
2812 1619 2396 3027 3297 1944 1210 1883 2092 
2191 1908 970 1654 2470 3082 1983 2510 2661 
2532 2276 1376 1727 2486 2368 1414 1550 1691 
1170 2345 1456 1953 1483 1919 1686 2511 1824 
2015 1978 2468 2522 2765 2111 2953 2048 3079 
2520 1866 1258 2296 1182 1659 540 1699 1693 
2161 1780 2408 2562 1989 3175 2071 2964 1716 
2338 2515 2423 1047 1652 1224 902 1962 2053 
1403 1958 1954 2013 37 2329 2173 2181 3024 
2298 2943 3124 1905 3063 1829 2776 1093 2271 
1378 2429 2859 1265 1592 961 319 2228 1680 
1968 2743 1184 1858 2004 2667 1607 2061 2886 
1887 1065 1773 2491 1700 2359 2385 1561 1354 
106 1955 2066 2557 2430 2226 2057 2177 2142 
2151 2816 722 2282 3156 2668 2363 3375 2708 
1687 1594 2209 2113 1562 2304 2779 2714 1662 
1794 2794 3173 2399 3094 2103 2674 2457 1201 
2490 1587 1555 2093 1595 1814 807 1881 2728 
2190 1408 1988 2916 2182 2944 2870 1753 1240 
1701 1076 1061 211 1203 1070 1966 939 1671 
1668 2600 1264 2804 2333 1628 1413 1979 1183 
1272 2091 1763 1141 1405 2594 2050 2549 2666 
2671 1840 2409 3158 2687 2846 1552 1256 611 
806 2277 2301 2652 1087 2317 2179 2440 2745 
2420 1308 1347 1493 1811 1417 1685 2426 1642 
1663 1219 1198 2370 2322 2709 2361 1531 252 
805 1293 2565 1863 1658 2116 1803 2579 2083 
506 985 653 2205 2366 1397 1893 1730 2665 
1805 1924 1539 2939 2935 3339 1896 1329 1860 
2348 1250 1505 1835 1215 1759 1776 2163 2774 
1969 2773 2141 2688 2206 3258 2373 2082 2482 
1500 978 1109 2194 2014 1848 863 1318 1268 
2548 1902 2796 2712 1793 1723 2861 2875 1807 
3455 1548 694 1472 2299 1317 581 1127 1643 
2006 1363 1396 1917 1993 1452 1200 1736 1815 
1374 351 661 1380 1513 2478 1155 1315 1507 
2577 2172 1636 1704 2392 1568 1051 1558 2786 
2521 2021 1479 1340 2297 1588 1888 1454 1216 
1927 2531 2112 1637 2130 2326 2595 2573 2737 
2820 3012 2676 1634 2038 1425 865 1809 1838 
1694 1094 1206 2449 2607 2215 2357 2603 1786 
2978 1545 1049 1279 1492 714 1348 2159 770 
2240 1447 2256 1833 1920 2118 2193 2699 2192 
959 1332 1921 2210 2395 1629 753 2086 1832 
2584 1660 1689 1732 1941 1900 1577 1935 1573 
1137 536 172 1813 2466 1653 2422 2770 879 
2043 1624 1104 2036 2451 1616 2290 2431 1735 
3499 1946 1122 1719 2200 1002 2037 1940 2052 
860 2852 1440 1769 2232 585 1357 2453 2024 
1352 2537 1502 2441 1885 1762 2068 1990 2473 
1431 2827 1938 2677 3246 1804 1435 1496 1252 
2379 2258 871 1808 2154 1992 2762 2026 2079 
2424 2077 2752 2439 2222 2647 2070 1821 1615 
1975 1361 2716 2546 2425 945 1600 2140 1729 
1909 1825 2356 2564 1739 1585 2849 1720 1260 
1787 1342 1541 2335 2589 2458 1599 1292 2830 
2094 2630 2132 2657 2217 2969 2164 2844 3071 
1518 761 1593 1895 1750 1578 1521 1466 1970 
1229 1432 2095 2124 2500 1851 2649 1820 1039 
2887 2404 2865 555 1381 814 1046 1129 549 
1501 1360 1304 1648 1646 1549 2175 2503 1798 
1956 2625 2725 2218 2442 2636 253 31 1306 
1031 1063 2264 2400 2074 1244 1911 1515 1933 
2459 1738 1621 2638 1915 2682 1977 1391 187 
1291 757 2072 1528 1761 1810 1797 2994 2269 
2651 2445 1874 2462 2934 2017 1370 2237 366 
2319 2176 1499 1675 2260 1910 1007 2414 2839 
1656 2529 1526 2701 2799 3053 2342 1706 2413 
2587 1409 3050 2789 3700 1870 1556 1714 1337 
2398 1997 2034 1419 1998 2367 2123 2386 3047 
2178 2352 2902 2923 2214 2274 2436 672 1462 
1339 1574 2012 2133 1218 2238 1740 1465 1204 
2759 2199 1731 2543 1892 2244 1664 1546 568 
1721 1154 82 1314 1766 2108 1747 2658 1898 
950 2167 2287 2447 1451 3105 1799 2213 2201 
1402 1743 553 932 1302 1415 1241 2324 1473 
2336 2888 2702 2230 2029 1894 2492 1469 2148 
2156 1082 1190 1880 1075 2340 2924 2456 2321 
2751 236 1872 2288 3277 3145 1236 1207 358 
1230 1115 2375 539 810 1511 1559 1666 1457 
2076 2186 2281 1527 1709 2261 2982 1056 1441 
1963 1138 2768 2020 2019 2700 1110 1524 1247 
1379 1029 1849 1827 2598 2152 1192 1234 2212 
1427 1635 2898 1742 2495 2744 2223 2750 2660 
2134 1665 1748 2622 2265 2626 2592 1818 2331 
2174 2602 2376 2578 3234 2315 2318 1048 1373 
1760 1551 2119 2283 2259 2837 2160 3031 1853 
1939 2900 3017 3307 2810 3232 2547 2691 3280 
470 1102 2910 1971 948 2022 2101 2155 1801 
1596 3045 2502 2397 1864 2729 3287 3274 2310 
1510 1195 1669 2203 1934 1841 2039 2559 3010 
1912 2583 2063 2089 2561 2078 2644 2727 3301 
634 456 416 2158 960 2090 444 1375 2272 
1698 2040 1712 2590 2711 2580 2936 2494 2822 
2087 3202 2703 1467 1424 2035 2219 637 1565 
2410 1393 2000 2054 1322 897 1601 2784 2360 
2957 3371 2627 3270 2748 2246 1757 1163 1423 
1261 17 2198 972 1121 494 2138 460 1544 
2188 2903 2381 2988 2401 2080 3292 1784 1959 
2380 2766 1867 1116 2629 2243 2032 2064 2956 
1715 1474 2394 262 2670 2948 2170 3372 2706 
2631 308 2030 1755 1923 1932 1612 2236 1791 
2434 2234 1788 2513 2033 3400 2942 2270 2872 
2593 4 2023 1795 2051 2284 2127 2403 2211 
2197 2180 2411 2575 2586 2350 3201 597 1514 
1631 917 2474 1401 1758 2813 2099 1926 1903 
2992 1034 3004 2758 1610 1724 1645 176 651 
1627 1453 1050 823 2497 1313 1891 2302 1770 
2229 2692 3561 2369 2131 2255 3341 1713 359 
989 1579 2110 1708 1422 1282 825 2147 2235 
2523 2412 2778 2585 2909 3406 2144 1307 1554 
2060 1266 1530 908 2372 2126 2002 3172 2501 
156 670 1239 1364 1062 1951 2542 1973 3120 
2856 1837 2937 2384 2081 1922 1657 1211 2327 
2569 3162 1823 3176 2970 3487 1570 1143 2514 
335 2056 2554 2843 2775 2518 3255 2771 2866 
3509 3580 2999 2528 2911 2938 3002 3493 2069 
3106 2879 2685 3804 2742 2836 3288 3564 2713 
3025 3155 3142 3289 3955 3713 3722 3446 3279 
2718 3792 2686 1996 3703 2507 4216 3056 2508 
2918 2801 3331 2341 2512 492 2977 2588 3540 
3471 3235 2623 3845 3639 4200 2864 4060 4618 
4497 3972 2208 2963 3098 2862 3529 2851 2262 
3319 2096 3822 3677 2891 2783 3790 4129 3077 
2634 3032 3718 3413 2433 2968 2958 3636 4100 
2435 3707 2308 3362 3334 3844 3194 3723 3405 
3302 3632 3195 3985 4149 2975 2761 2506 3682 
3033 2487 3315 3256 3099 4002 3472 3361 2371 
3433 3763 3831 3913 4388 4326 3271 2448 2418 
2378 3207 3060 3095 3378 2930 3761 3165 3766 
3152 4248 3967 3379 4066 3618 3735 1777 3215 
3734 2871 3650 3187 2855 4051 2499 2467 2747 
3768 2616 3350 4439 3623 3894 4211 3800 2332 
2809 3311 2443 1865 2533 2669 3193 2339 2568 
2877 1950 3500 2596 3048 3811 3437 4086 3708 
3578 2135 1458 2483 2645 2239 2330 3125 2556 
2597 3313 2740 3067 4279 3847 2973 3478 3391 
3851 3111 3469 2929 4255 2834 2189 3166 4647 
4389 3833 3450 4637 3715 2516 3303 3122 3492 
2795 3920 2966 2904 3325 3662 3449 4000 3052 
3512 3523 2183 3286 2498 3539 3360 2505 3221 
3346 2821 2628 2438 4056 3186 2721 2832 3676 
3983 4007 3516 2402 3249 2824 2808 3553 2739 
2673 3078 2088 3522 2842 3599 3041 2907 3103 
3188 3527 3794 2980 2415 2717 2280 3015 2848 
3721 3699 2659 2365 3028 3769 3226 3751 3898 
3353 3806 3714 4317 3347 3572 1737 2105 2450 
2025 1817 1711 3828 3199 2216 2896 3365 2648 
3534 3370 3096 2656 2639 2610 3238 3789 2867 
3611 3774 2806 2389 3252 3451 2829 2268 3799 
2805 4089 3743 3537 3476 3615 3826 3477 3753 
4065 3482 3556 2576 2387 3247 3614 2858 2983 
3345 3309 2231 3000 3169 3813 3260 3594 3415 
3462 3317 3518 3072 3338 2581 3037 3005 2477 
3651 2168 2354 3388 2696 3931 3634 3468 3101 
3040 1942 3180 2694 2693 2788 2984 2838 2857 
3020 2927 3829 4259 4019 3344 2120 1889 2736 
2540 3772 3306 3143 3679 3183 3848 3457 3402 
3974 4134 3640 2432 3690 3211 2534 3208 2519 
2461 2895 3616 3090 3418 3979 3244 3695 2698 
3730 3259 4525 2005 1965 1987 3924 2732 3542 
2241 2125 3508 1741 2954 3590 3504 3825 2726 
3897 4232 4253 3167 2757 2860 3557 3392 2769 
4113 3706 4281 2202 3185 2286 3227 2558 2850 
3445 3368 1667 3881 2544 4075 3568 3571 3921 
4590 1890 3029 2787 3250 3620 3548 2883 3001 
2995 3100 3692 3427 4306 3649 2772 2251 3039 
2444 2880 1916 3892 3150 1806 3140 3466 3157 
4154 3746 3222 4103 3422 1994 1877 2678 2989 
2407 1781 2922 3890 2915 2897 2894 3767 3563 
3136 2993 3236 3237 3926 3399 2950 2207 3453 
2741 2704 2263 2484 2683 2819 3748 3952 3927 
4125 2823 2863 3214 2323 2536 2309 2481 3326 
3327 2567 2541 3941 3545 2998 2617 2914 3229 
2707 3638 3003 3189 2059 2405 2204 1985 3129 
2986 3066 2293 3163 3109 3107 3428 3272 3030 
3680 2885 3569 2614 3336 3097 3948 3075 2947 
3810 4237 3925 3484 2798 2220 1901 3257 2749 
2343 2539 2835 3333 3181 3498 3393 2571 4454 
3408 3356 4112 3622 2940 2814 2881 3363 3316 
3858 2780 3935 3431 3762 2488 3149 3506 3278 
2951 3633 3757 3877 3981 3324 4233 4069 4207 
4394 3387 3694 3023 3864 4402 2572 3121 2899 
2169 2941 2344 2653 2912 3530 3007 3230 2928 
3243 2504 2325 2306 2722 3665 4128 3855 2632 
3574 2476 3112 2828 2733 3016 2358 2756 3663 
4217 3179 2465 2738 2393 2552 2570 3470 2642 
2971 3161 2991 3084 2599 3796 2965 3197 3022 
2807 3205 4024 2724 3308 1930 2854 2753 2313 
2990 2337 1857 2320 3617 2815 2920 3501 4020 
3619 3351 3196 2249 2382 3009 2524 2620 3602 
3135 3668 2817 2893 2926 2334 4083 3601 3544 
3130 3054 2316 2802 3273 3485 3439 2931 2919 
2797 2972 3486 3305 3164 3673 4165 3117 4365 
4531 3018 2253 3312 3666 3146 3088 3582 3795 
4053 2985 2763 2011 3505 3429 2906 3842 3177 
2615 3006 2604 3390 2374 3085 2785 3014 3874 
2643 3552 4081 3686 3479 4062 2890 2471 3213 
3489 3448 3093 3480 4077 3702 3300 3775 3239 
4309 2960 3359 4137 4479 3110 3575 3447 1947 
2480 2273 3373 3337 2803 2697 3087 3827 3945 
3950 3991 4193 3816 3395 4311 3749 4472 3805 
4018 4811 2184 2619 4116 4097 3779 3600 3719 
3159 4736 2961 2016 2608 2162 2908 2535 3403 
3123 3871 3419 2792 3777 3653 3643 2428 2826 
3720 3383 3593 3245 3835 2137 1918 3463 2555 
1854 2723 2609 3398 2884 1974 3295 3491 2463 
4187 2997 3216 4163 3233 3043 3343 3304 2045 
2730 3756 3494 2233 2925 3329 3314 1904 3299 
3975 2889 4425 3262 3661 3019 4201 4486 3251 
2153 2654 2933 1847 2437 3741 2679 3760 3074 
3394 2353 3533 3832 4288 3420 3432 2962 2227 
2705 3182 3151 2224 2754 3904 3138 3070 2605 
2681 2734 3178 3900 3785 2853 3660 4058 3223 
4215 3554 4203 3042 3133 2097 3980 2715 3170 
2731 3318 3546 2800 3737 4174 3732 4219 4250 
4591 3865 3731 4258 4228 3712 2841 2469 2525 
3733 3190 2635 3803 3224 3296 4108 3627 3968 
3930 3793 3629 3716 4152 3876 3051 2981 2496 
3225 2062 3893 3559 2952 2917 3745 3626 3065 
3036 2550 3407 3878 4300 3962 4157 3153 3358 
3219 3436 3330 3836 3369 4017 2551 3049 4041 
3354 3597 3969 3917 3697 3291 3782 3267 2390 
2882 2949 2311 2485 2650 3091 2874 3929 4078 
2719 3688 3116 3818 2591 3367 2475 3397 3248 
3736 3269 3531 3901 4055 3916 4192 3340 2663 
2655 2831 2892 3212 3704 3119 2388 3141 3290 
3787 3519 3021 3389 3352 3217 3515 3068 2876 
3603 2913 3671 2672 2945 2171 2107 2582 3747 
3114 3034 3507 3495 3154 4252 3132 3691 4391 
3802 3384 3460 2563 2294 3293 3081 3937 3939 
3059 2791 3069 3562 3421 3521 3321 4505 3798 
3535 4336 4047 4044 4274 3171 3266 3073 4035 
3895 3263 3565 4194 3517 3342 3254 3430 3322 
4578 3442 3684 3646 2489 3683 4096 3355 3192 
4118 2905 4212 4316 3435 3752 2085 3444 2793 
2811 1520 3467 3843 3934 3823 3080 4459 4087 
3503 3635 2878 3203 4305 3401 3268 2058 2637 
3396 2479 3884 2028 3026 3240 4107 3038 4091 
3076 3709 4346 2662 3115 3386 2266 3738 3357 
3285 3454 2695 3701 3885 2574 3591 2530 3320 
3912 3759 3606 4500 4426 4223 3583 4314 3783 
3089 3538 3410 3525 3641 3573 3581 3310 3964 
4657 2868 3630 4455 3046 3807 5330 4526 3657 
4367 4302 3118 4039 3834 4788 3335 3282 4166 
4082 4464 3958 4267 3696 5203 3902 3919 4424 
5177 3607 4124 3404 3862 3758 4098 4168 4709 
4457 4433 4510 4147 4592 5223 4151 3440 3778 
3058 3276 3654 3532 3148 4420 4636 4580 4584 
4422 4392 4381 3727 3547 3977 3147 4257 3670 
4360 3933 4358 4894 3567 4139 2955 3764 3349 
4310 4318 4398 3961 4416 4390 4270 4918 4738 
4642 4818 5772 4734 4285 5159 5312 4509 5668 
4004 5729 3675 2967 4072 3711 4375 3083 5535 
4027 4640 5137 4609 4962 3875 4997 4939 4415 
2553 4661 3868 3717 4536 3883 4456 4451 4395 
4054 5032 4771 5056 4034 5228 4170 4188 4460 
4251 4463 4241 4418 5523 4160 5235 4909 4745 
4813 2946 4664 4169 4520 4550 5082 3918 5157 
4371 4480 3993 4632 4475 3264 4567 4284 3906 
4496 4225 3947 4581 5409 4218 4795 4946 4521 
4775 4361 4366 4136 4543 4458 4619 4705 4354 
5340 5414 5578 4537 4286 3907 4797 3771 4648 
4093 4150 4742 4563 4321 4838 4993 3797 4123 
5155 3971 4145 4198 3412 4038 5425 3990 4161 
4003 4290 4202 4519 4707 4539 4783 4453 5349 
4654 4680 3298 4559 2777 2976 4012 3674 5112 
5126 3995 3923 4696 5262 4410 5269 4240 4444 
3528 4448 4413 3943 4247 4277 3409 3642 3754 
4001 4891 4071 4646 4409 5052 4403 4130 3231 
3908 4191 4560 5007 5791 4504 3242 3963 3328 
3459 3956 4175 3126 4278 3809 4155 3624 3773 
3681 3376 4205 3821 4523 4700 4924 4226 5154 
3729 3992 4343 5770 4405 3672 3323 3987 4466 
4328 3944 3204 3294 4572 3481 4064 3423 4809 
4611 4819 4980 4498 4503 3253 4291 4387 3951 
4127 3988 4440 3817 3281 4876 4449 4110 3998 
3726 4213 4376 4689 4767 4120 3849 3705 3861 
3011 4374 4600 4729 3742 3853 3434 4517 4171 
4432 5367 4304 4977 4691 4289 4068 4545 3474 
3092 3377 4242 3526 4793 3814 4359 3784 5038 
4088 5316 5039 3655 3788 3859 4490 4575 4268 
4370 5597 5512 4699 2664 4833 4465 4806 3860 