# vtk DataFile Version 4.2
Generated by LIGGGHTS
ASCII
DATASET POLYDATA
POINTS 5999 float
-0.0174417 -0.04149 0.0101613 -0.0137163 -0.0427724 0.0109123 -0.0192307 -0.0406857 0.0136493 
-0.0155842 -0.0421419 0.0144119 -0.010891 -0.0400111 0.0102501 -0.00994536 -0.0438969 0.010145 
-0.00599106 -0.0446114 0.0101459 -0.00213749 -0.0435194 0.0102485 -0.00612413 -0.0407132 0.0110701 
-0.00240534 -0.0401949 0.0124569 -0.00797922 -0.0442976 0.0136272 -0.00400871 -0.0448301 0.0137224 
-0.00918308 -0.0404659 0.0138614 0.00866014 -0.0441365 0.0101915 0.0049171 -0.0427162 0.0102227 
0.00159869 -0.044955 0.0102311 0.00898924 -0.0408085 0.0131767 0.00499961 -0.0406994 0.0136848 
0.0033775 -0.0448622 0.0138151 0.00734495 -0.0443698 0.0139644 0.00109417 -0.041562 0.0138372 
0.0149816 -0.0413907 0.0101264 0.0120766 -0.0433349 0.0121148 0.0175594 -0.0414312 0.0132198 
-0.0307009 -0.0328186 0.0101997 -0.0319727 -0.0316498 0.0141188 -0.0211448 -0.0395763 0.0103058 
-0.0245089 -0.0334969 0.0102063 -0.0210863 -0.0355706 0.0102173 -0.021022 -0.0315583 0.0105828 
-0.0245098 -0.0375101 0.0109625 -0.0278451 -0.0353394 0.0114331 -0.0269312 -0.0317103 0.012845 
-0.0227663 -0.0344268 0.0137379 -0.0233775 -0.0302586 0.0139709 -0.0175732 -0.0374872 0.0102405 
-0.0140781 -0.0355275 0.0102209 -0.0175122 -0.0334771 0.0103596 -0.0140108 -0.0315154 0.0103409 
-0.0144226 -0.0390408 0.0121673 -0.0111399 -0.0368013 0.0126257 -0.0118172 -0.0329324 0.0135847 
-0.0194404 -0.0366909 0.0136918 -0.0158509 -0.0304644 0.0137342 -0.0155094 -0.0344518 0.0138573 
-0.0191581 -0.0327076 0.0139314 -0.0100136 -0.0317394 0.0102169 -0.00797297 -0.0372635 0.0101916 
-0.0060748 -0.030983 0.0101953 -0.00196334 -0.0310246 0.0101854 -0.00416858 -0.0345054 0.0103134 
-0.00106649 -0.0370404 0.0103693 -0.0075317 -0.033971 0.012445 -0.00512259 -0.0373133 0.0130445 
-0.00400008 -0.0304244 0.0135766 -0.0016266 -0.0338759 0.0133394 0.00172905 -0.0399101 0.0102494 
0.00681782 -0.0391966 0.0102172 0.00385226 -0.0365118 0.0102149 0.00516951 -0.0324544 0.0102869 
0.00793771 -0.0353433 0.0102132 0.00903745 -0.0312013 0.0101799 0.00105644 -0.0336514 0.0102602 
0.00616172 -0.0368587 0.0134624 0.00333873 -0.033877 0.0135524 0.00226801 -0.0377312 0.0137656 
0.00732485 -0.0330297 0.0137333 0.00433754 -0.0300029 0.0135631 0.0108178 -0.0389681 0.0100909 
0.0147442 -0.0371598 0.0101262 0.018528 -0.0389535 0.0102259 0.0173259 -0.0310622 0.0101869 
0.0133403 -0.0306933 0.0102041 0.0118381 -0.0344039 0.0102602 0.0183209 -0.0349557 0.0103353 
0.0151548 -0.033599 0.0123936 0.0101679 -0.0366342 0.0133101 0.0133718 -0.0393466 0.0131853 
0.0192936 -0.0321223 0.0135209 0.0168631 -0.0374178 0.0135251 0.0112871 -0.0317412 0.0134836 
0.025203 -0.0321297 0.0102306 0.0223272 -0.034998 0.0102024 0.0213284 -0.0311139 0.0102224 
0.0289072 -0.0339875 0.0102931 0.0258955 -0.0368002 0.0103791 0.0225179 -0.0389764 0.0105747 
0.0205706 -0.0359212 0.0136768 0.0239834 -0.033834 0.0136519 0.0276177 -0.0355248 0.0137571 
0.0273365 -0.0315335 0.013895 0.0243375 -0.0378086 0.0139434 0.0318654 -0.0317491 0.0118317 
-0.0359614 -0.0270468 0.0101984 -0.0398639 -0.0208973 0.0101742 -0.0301802 -0.0255139 0.0102062 
-0.0326857 -0.0293462 0.0101754 -0.0330433 -0.0215716 0.0103032 -0.0366546 -0.0231748 0.0109268 
-0.0334173 -0.0249397 0.0125006 -0.0306975 -0.0278865 0.0133907 -0.034621 -0.0286683 0.0136112 
-0.0391398 -0.0221208 0.0139162 -0.0370307 -0.0255119 0.0141525 -0.0290454 -0.0216768 0.0102274 
-0.0250634 -0.0212827 0.0102253 -0.021182 -0.0275786 0.0102059 -0.0286837 -0.0292441 0.0101962 
-0.021813 -0.023617 0.0101903 -0.0253284 -0.0255489 0.0102391 -0.024691 -0.0295008 0.0102563 
-0.0275549 -0.0239564 0.0131583 -0.0229117 -0.02605 0.0134733 -0.0265159 -0.0277995 0.0135744 
-0.0240307 -0.022241 0.0139691 -0.0186614 -0.0211176 0.0101906 -0.0142951 -0.0272429 0.010222 
-0.0180522 -0.0250867 0.0102111 -0.0111345 -0.0247634 0.0101922 -0.0149083 -0.0225015 0.010301 
-0.0176358 -0.0294472 0.0102808 -0.0109902 -0.0206085 0.0102764 -0.0117736 -0.0290109 0.0127801 
-0.0195337 -0.0232676 0.0134603 -0.0155488 -0.0250587 0.0133336 -0.0123164 -0.0227037 0.0134154 
-0.0196074 -0.028732 0.0137128 -0.00797545 -0.0299697 0.0136024 -0.00871528 -0.027952 0.0102191 
-0.00437178 -0.0234023 0.0102222 -0.00699576 -0.0203828 0.0102644 -0.000257109 -0.0232446 0.0102752 
-0.000883972 -0.0271937 0.0105865 -0.00485278 -0.0272792 0.0110895 -0.00769135 -0.0242128 0.0123449 
-0.000606173 -0.0208826 0.0135112 -0.00257938 -0.0243583 0.0136679 -0.0088883 -0.0206673 0.013793 
-0.00490537 -0.0211034 0.0137096 -2.97257e-05 -0.0299088 0.0135077 0.00664641 -0.0245169 0.0102822 
0.00979565 -0.0272364 0.0102075 0.00598902 -0.0284668 0.0102472 0.0021975 -0.0297712 0.0101857 
0.00361385 -0.0218912 0.0102573 0.00286401 -0.0258224 0.0103103 0.00679415 -0.021164 0.0126928 
0.00816065 -0.0288204 0.0136147 0.00145278 -0.0243095 0.0137366 0.0051595 -0.0260303 0.0136951 
0.0173094 -0.0270487 0.010128 0.0137782 -0.025172 0.0102747 0.017116 -0.0227792 0.0102141 
0.0134426 -0.0211832 0.0102547 0.010342 -0.0234488 0.0113808 0.012615 -0.0278879 0.0129709 
0.0176282 -0.0249759 0.0135362 0.0165771 -0.028839 0.0136406 0.0185025 -0.0210742 0.0136734 
0.0137891 -0.0231369 0.0137277 0.0107886 -0.0205083 0.0140557 0.0285842 -0.0299922 0.0103049 
0.0245584 -0.0238985 0.0101737 0.0235319 -0.0277744 0.0101953 0.0206377 -0.0247006 0.0102625 
0.0282023 -0.0210058 0.0102021 0.0272269 -0.0265008 0.0117413 0.020343 -0.0279216 0.0126256 
0.0223026 -0.022114 0.0129724 0.0264062 -0.0225179 0.0134426 0.0237168 -0.0298329 0.0136198 
0.0235774 -0.0258341 0.0137144 0.0203105 -0.0200305 0.0101965 0.0303413 -0.024385 0.0103057 
0.0341759 -0.0231163 0.0101955 0.0382463 -0.023502 0.0102885 0.0359479 -0.0268752 0.0103046 
0.0320598 -0.0280061 0.0102352 0.0330702 -0.025206 0.0134234 0.0343855 -0.0289827 0.013341 
0.0301673 -0.0287072 0.0137985 0.0388309 -0.0212613 0.0135522 0.0306979 -0.02135 0.0136238 
0.0371574 -0.0252842 0.0138052 -0.0434433 -0.011287 0.0101273 -0.0421483 -0.0156801 0.0108236 
-0.0409586 -0.0186121 0.0132835 -0.0402946 -0.0101215 0.0131934 -0.0430455 -0.0130499 0.0137285 
-0.0358601 -0.0140831 0.0101848 -0.0395984 -0.0126601 0.0101813 -0.0345196 -0.0178534 0.010215 
-0.0384574 -0.0171519 0.010217 -0.0304875 -0.0179457 0.0102467 -0.0336644 -0.010733 0.0102083 
-0.0314471 -0.0140626 0.0102303 -0.0366856 -0.0118347 0.0134089 -0.0392176 -0.0149902 0.013498 
-0.0325489 -0.0188023 0.0135663 -0.0300748 -0.0124696 0.0136337 -0.0343811 -0.0152499 0.0137229 
-0.0370092 -0.0183575 0.0139356 -0.0264659 -0.0175044 0.0102222 -0.0241385 -0.0111241 0.010201 
-0.0233144 -0.0150391 0.0102114 -0.021925 -0.018801 0.0102472 -0.0272864 -0.0135841 0.0104026 
-0.0296671 -0.0103733 0.0102283 -0.0272216 -0.0199147 0.0133242 -0.0218612 -0.0126796 0.0131011 
-0.0267515 -0.0103004 0.0131329 -0.0238538 -0.0176382 0.0135802 -0.0289367 -0.0163056 0.0135532 
-0.0255373 -0.014028 0.0140475 -0.0201602 -0.0161564 0.014114 -0.0119766 -0.0163168 0.010203 
-0.0159802 -0.0181487 0.0102358 -0.0192693 -0.0157858 0.0102205 -0.0120663 -0.0123149 0.0103276 
-0.0188464 -0.0118191 0.0105499 -0.0156138 -0.0141639 0.0103009 -0.0132337 -0.0188218 0.0130668 
-0.0142691 -0.0114395 0.0135496 -0.0172519 -0.0197403 0.013679 -0.0122626 -0.0148833 0.013946 
-0.0161755 -0.0157222 0.0139529 -0.00297444 -0.0196539 0.0102264 -0.00431407 -0.0128433 0.0101981 
-0.00824382 -0.013623 0.0102563 -0.00560101 -0.0166342 0.0103178 -0.00164538 -0.0158503 0.0103297 
-0.000644402 -0.0122098 0.0116663 -0.00887547 -0.0167307 0.0126968 -0.00929183 -0.0109955 0.0131408 
-0.00482139 -0.0104736 0.0135987 -0.00540391 -0.0144836 0.0136847 -0.00291734 -0.0176217 0.0136853 
0.00307709 -0.0125651 0.0102176 0.00525429 -0.0182422 0.0103627 0.00655019 -0.0105509 0.0101869 
0.000957625 -0.0189003 0.0102429 0.00977275 -0.0195308 0.0102981 0.00632231 -0.0145504 0.0114726 
0.00227525 -0.0158149 0.0124397 0.00317752 -0.0195815 0.0135088 0.0082015 -0.0175062 0.0135036 
0.00649306 -0.01151 0.0140843 0.00249014 -0.0115637 0.0140683 0.0100889 -0.0150207 0.0102101 
0.0185176 -0.0130332 0.0101918 0.0133511 -0.0119237 0.0101931 0.0134549 -0.0171836 0.0101998 
0.017455 -0.0172282 0.0101748 0.0154964 -0.0145121 0.012367 0.0163289 -0.0106009 0.0125197 
0.0102569 -0.0119241 0.0127372 0.0145581 -0.0191898 0.0137332 0.0119588 -0.0158625 0.0136668 
0.0179696 -0.017138 0.0141483 0.0243599 -0.0199037 0.0103491 0.023374 -0.0125595 0.0101653 
0.0212516 -0.0159527 0.0101564 0.0292447 -0.0168772 0.0102452 0.0273694 -0.0128174 0.0101651 
0.0251136 -0.0160703 0.0112505 0.0207371 -0.0105442 0.0124015 0.0274026 -0.0186437 0.0133299 
0.0217676 -0.0181773 0.0134425 0.0283616 -0.0147632 0.0135253 0.0254302 -0.0116059 0.0134662 
0.0221395 -0.0140706 0.0136649 0.0299657 -0.0110948 0.0135531 0.0365024 -0.0198515 0.0102563 
0.0321032 -0.0196855 0.0102662 0.0382621 -0.0162508 0.0102176 0.0313188 -0.013453 0.0102321 
0.0395708 -0.0111713 0.010246 0.0358341 -0.0130599 0.0102339 0.0344441 -0.0166284 0.0114293 
0.0332767 -0.010047 0.0110459 0.0390227 -0.0137557 0.0132571 0.0344634 -0.019918 0.0137042 
0.0335063 -0.0133823 0.0135802 0.0313492 -0.0174077 0.0138513 0.0376044 -0.0174497 0.0140059 
0.0367009 -0.01041 0.0131047 0.0422112 -0.0154944 0.0101936 0.0436338 -0.0109398 0.0102208 
0.0405052 -0.0195676 0.0103322 0.0429881 -0.013247 0.0134328 0.0416326 -0.0169914 0.0138662 
0.0405585 -0.0101489 0.014146 -0.0410098 -0.00751487 0.0102267 -0.0406698 -0.00334521 0.0102047 
-0.044632 -0.00579145 0.0103252 -0.0443862 -0.00172034 0.0110033 -0.0440715 -0.00879864 0.0132286 
-0.0421013 -0.00530757 0.0133923 -0.0415602 -0.000834808 0.0139211 -0.0370155 -0.00506105 0.0101694 
-0.03293 -0.00195403 0.0101814 -0.0325302 -0.00689417 0.0101861 -0.0373658 -0.00916838 0.0103377 
-0.0365952 -0.000329244 0.0101658 -0.0302953 -0.00441445 0.012442 -0.0343357 -0.00435879 0.0130546 
-0.0380509 -0.00258937 0.0131423 -0.0347315 -0.00834027 0.013231 -0.0307378 -0.00835507 0.0135147 
[...]
POINT_DATA 5999
FIELD FieldData 7
id 1 5999 int
544 514 477 215 107 482 144 333 828 
27 454 161 414 1092 1037 856 877 250 
122 455 18 307 901 495 1045 19 862 
120 97 520 924 598 1044 505 200 52 
135 145 379 551 450 407 271 1506 1328 
153 228 53 263 1095 426 158 257 242 
194 209 589 408 476 501 336 706 1008 
138 596 185 83 400 203 246 230 992 
364 41 404 777 773 567 338 109 1033 
46 247 608 760 245 690 47 1358 605 
1387 968 154 557 1316 115 966 274 440 
512 285 1280 675 580 1019 344 378 434 
816 623 874 33 713 1005 94 294 669 
946 11 724 63 502 302 402 49 1476 
119 464 704 546 1015 174 424 199 1166 
1418 1028 711 1640 515 469 365 952 776 
504 684 371 633 1676 1285 114 276 8 
149 758 918 641 102 392 937 2221 397 
310 614 1042 876 54 844 1036 858 1176 
1412 396 112 210 516 509 401 382 90 
248 267 1114 22 861 136 413 1057 249 
437 349 787 348 1107 659 57 223 525 
703 803 741 639 131 360 281 550 650 
163 125 68 1537 533 1325 243 668 664 
311 84 374 345 487 674 1623 1208 1722 
1055 296 429 99 113 42 815 190 951 
201 964 808 205 616 66 1126 293 1338 
38 718 1152 994 1482 168 1144 1494 317 
875 1185 353 980 622 833 1177 630 848 
39 1077 117 256 1083 635 291 859 1288 
819 1508 350 528 962 461 1035 231 523 
788 679 779 1775 43 927 123 86 142 
423 314 590 1180 372 1214 1262 853 1355 
692 139 1503 802 686 417 134 92 1584 
1123 399 1212 562 615 1096 20 783 126 
72 558 1359 1772 1233 1830 826 1071 731 
485 447 354 906 1333 619 884 1443 496 
175 821 221 58 584 612 1101 1133 545 
727 278 1130 1105 931 903 342 445 543 
500 831 1586 1140 489 441 427 627 1481 
1486 710 1027 1088 1569 830 1876 1728 967 
784 1142 900 322 1692 855 537 695 1674 
1202 73 410 393 421 1161 896 389 1120 
1100 1032 458 48 108 933 842 751 137 
914 241 367 418 1151 693 796 604 1014 
292 105 673 1009 1516 1334 24 511 1228 
756 919 781 12 857 766 224 755 813 
742 1351 775 610 890 1269 16 5 463 
23 971 330 607 702 499 920 1131 998 
1254 1128 352 77 594 462 1512 677 667 
682 229 206 346 78 1460 1277 563 845 
840 526 1395 280 1300 300 355 170 886 
763 1106 273 193 1168 370 678 1238 309 
305 498 375 384 734 560 517 127 297 
719 189 362 935 1478 432 81 286 934 
171 956 730 975 527 712 128 320 473 
377 1426 564 984 380 88 1197 1080 1073 
155 313 1613 182 341 295 101 1294 1439 
586 847 745 1066 288 954 716 265 239 
1523 1018 1024 535 387 657 915 214 949 
827 988 303 419 32 588 394 836 165 
592 244 298 1086 331 572 1193 70 436 
287 519 868 691 334 1237 301 36 1020 
631 640 191 260 721 996 64 326 541 
216 1085 974 1150 180 98 579 671 80 
79 225 283 646 955 186 130 910 356 
3 1040 266 576 337 480 626 448 765 
238 159 944 524 75 1583 103 361 1124 
197 347 522 316 656 849 573 51 2 
104 21 1016 1097 212 412 923 891 600 
1022 688 1072 736 1220 146 660 388 472 
93 357 771 1346 439 925 715 556 91 
839 425 880 926 62 1442 258 1004 1745 
521 76 160 290 121 152 1248 1246 791 
957 628 332 28 406 569 386 599 35 
272 277 251 177 1103 235 478 1611 929 
748 312 1227 1670 329 738 976 820 638 
116 428 226 1368 227 799 95 1205 991 
571 928 1655 1899 705 220 1084 582 1053 
1136 306 61 383 255 96 851 304 513 
1134 1725 339 275 798 89 14 1298 129 
118 409 629 1703 133 204 2007 1571 1641 
649 1484 181 259 642 299 264 973 166 
1068 811 140 1117 529 15 6 636 45 
321 438 324 30 666 1504 173 289 213 
769 916 507 433 195 143 415 59 327 
475 1025 132 1173 999 141 899 497 207 
904 1290 552 510 111 701 395 530 422 
451 1209 621 217 268 1489 829 343 446 
797 124 474 532 780 162 909 735 1856 
1790 625 218 866 40 1461 328 882 2618 
1 913 602 1245 885 1323 67 995 1765 
178 26 1386 601 2289 1638 430 1119 1350 
531 864 2254 1213 1433 411 1278 1171 680 
100 1270 390 1098 254 282 1477 997 1392 
969 1194 1957 2073 1564 1575 1164 1828 1995 
1620 647 1861 795 566 1326 2364 1079 2621 
2464 1547 2275 10 1286 981 1650 452 1834 
1289 1299 1589 65 1846 1774 1602 1882 1705 
219 1649 2527 2157 892 233 1446 1232 772 
2165 665 1690 883 1999 1498 1878 1718 2031 
457 1175 1488 1420 2003 391 1067 1632 907 
696 707 1580 1471 852 1677 1411 1688 1614 
1792 1284 1608 1434 147 1850 1543 449 1365 
1421 1251 1169 1519 1981 3008 340 1485 1756 
2295 1678 443 764 750 1188 1013 323 889 
2027 662 1341 1187 1186 2416 687 1952 2044 
1162 488 183 198 548 1563 574 1416 493 
279 1017 1275 1058 2143 1949 1733 1771 55 
1043 953 1639 1463 2042 1836 1785 744 2067 
2300 3348 2781 2347 1026 2145 1633 2185 1470 
1779 2869 818 1331 1242 1023 1647 1605 1059 
905 1843 1734 1768 1943 1538 2150 1437 1696 
2427 2305 1179 534 2285 1789 1855 2292 1159 
1944 1283 2065 2092 1210 1883 2191 1654 1908 
970 2470 2009 1754 943 1697 1862 1074 1609 
938 2109 1274 1550 1170 1691 2345 1483 1919 
1456 1686 1405 2136 442 1330 1217 1191 1491 
785 1406 69 1468 2296 872 1182 1258 2161 
1780 1659 540 1953 2408 1699 1693 689 617 
643 652 471 800 1047 1652 902 1224 1962 
2053 1403 1954 37 2013 921 2328 1327 1178 
1829 506 2776 1093 2271 824 1064 1389 1113 
578 1398 319 961 1265 1592 2228 1680 1184 
2004 2743 1968 1858 2667 1607 854 1407 1683 
963 977 1345 2129 1561 1844 106 1354 1955 
2066 2557 1848 2430 2779 2226 697 7 1448 
1672 9 2047 832 1594 655 1749 2209 2113 
1687 2304 1562 2714 1794 1662 403 747 990 
986 179 1525 888 1201 1597 1555 2093 1595 
2728 1814 1587 807 1408 1636 2190 1881 1404 
1174 1012 2128 1684 1644 1572 1240 1753 2490 
1701 1076 1061 211 1203 1966 1070 939 1497 
1710 726 270 1377 1913 1960 1628 1852 1979 
1413 1183 1272 2091 1763 2594 1931 1383 240 
987 1369 2312 1223 1199 1141 1256 611 1552 
806 2277 2301 2652 1087 2317 518 1132 1319 
834 1243 2278 1767 1347 1811 1417 1308 1685 
2426 1642 1958 1219 739 754 1276 252 805 
2565 1293 1905 1863 1372 1324 1222 749 894 
1948 653 2205 1397 1893 2366 1730 1961 1679 
1118 898 222 1196 1329 1385 985 1860 1250 
1505 1215 1835 1759 1776 2774 2163 202 613 
767 881 941 1500 25 978 318 2194 2014 
1318 863 1268 2348 2548 1902 2796 1793 369 
1231 1310 1235 1429 1548 2307 1472 694 1317 
581 2299 1109 1127 1643 1315 2006 1363 1396 
1295 1618 376 1622 508 1099 1822 1081 1536 
1374 661 1380 1513 1155 351 2478 1507 2172 
2577 1509 2104 869 575 1003 491 1839 1091 
1356 1263 2021 1479 1340 1588 2297 1888 1216 
1927 1454 2531 1030 1366 1964 1125 479 1529 
483 2038 1809 1425 1049 865 1634 1838 1206 
2449 2607 1694 1281 1845 1630 1181 1444 893 
1967 1279 812 1492 1348 2159 2210 714 2240 
1094 1447 2256 1833 658 1145 1060 1886 1982 
1702 1493 1399 1925 2346 959 1332 1921 1629 
2395 753 1663 1832 2086 1945 1041 1914 1517 
1577 1935 1391 1573 1137 536 172 1813 2466 
1011 870 1557 1006 879 1104 1624 2451 2036 
1616 2290 873 1221 1038 1353 835 1122 2043 
1719 1002 2200 2037 2052 860 2852 1440 1769 
654 867 1744 982 1111 1225 983 110 1842 
1357 585 2453 2024 2537 1352 1502 2232 2441 
1885 1567 1522 1928 794 1362 2362 1158 2001 
2139 1804 1435 1252 1496 2379 1992 2154 2258 
1808 1998 2762 871 1871 947 2018 843 1907 
237 743 1975 1615 1361 1821 2425 2140 1600 
2716 945 2546 1226 942 878 1480 838 728 
717 1720 1455 1260 1787 1342 1541 2335 2589 
2458 1599 587 792 1428 1320 1148 570 1305 
381 606 1518 761 1895 1750 1593 1578 1521 
1466 1054 188 565 431 1089 148 1707 555 
1381 1046 814 1129 770 1501 1304 1360 1010 
1487 1796 1831 1139 993 723 1445 253 31 
1063 1306 1031 2264 2074 2400 1244 1911 1778 
503 1112 1977 1812 1291 187 757 2072 1528 
1761 1149 1297 1450 1301 1673 2651 2269 1524 
2431 1576 922 2248 632 232 817 366 2319 
1370 2237 2176 1940 1110 1090 167 1052 2279 
1078 1459 789 2242 1312 1553 1499 2260 1675 
1910 1007 2414 2839 1526 2529 778 1344 1884 
1255 1936 700 1826 1870 1714 2034 2398 1556 
1997 1419 672 2367 2123 2386 1490 1430 1335 
29 737 1394 1879 1972 1367 459 733 1462 
1337 1339 2133 1574 2012 1218 2238 746 676 
1153 420 2114 453 911 2452 1154 1546 1721 
1664 82 1766 1747 2108 1898 2658 950 1311 
979 930 484 164 809 315 87 1402 1535 
568 822 553 1743 932 1302 1415 1241 1970 
1229 2324 709 958 609 648 1976 1682 940 
1021 708 2115 1469 2148 549 1082 2156 1190 
1075 1880 368 1321 1271 554 1069 405 561 
887 150 74 1236 358 1230 1115 2375 810 
539 1559 1511 50 1400 1384 1207 481 1056 
1963 1441 1135 13 1532 740 60 1566 620 
1984 1247 1029 1379 2152 1849 1827 2598 2212 
1192 1234 1343 841 1604 1560 435 559 2010 
2225 2446 2318 2134 2223 2750 2660 1665 1748 
2622 1349 1449 1617 1726 790 2406 1257 71 
1373 1048 1551 2119 2160 2837 2283 2259 3031 
1853 1939 603 1819 1001 1897 774 325 1102 
2051 470 1971 2910 948 2155 2101 2022 1801 
1596 683 793 618 1309 1314 1156 284 1540 
681 644 1510 1625 1934 1669 2039 1841 2203 
2583 634 2559 3010 725 1436 373 685 846 
698 1859 416 2158 960 456 2090 2272 1375 
444 2040 1698 1712 547 1695 752 1582 583 
192 2035 1424 1467 2219 1163 1565 637 1393 
2410 2000 2054 850 85 34 1273 804 1267 
363 1423 1261 17 2198 972 494 1121 1757 
2138 460 1544 151 1959 1388 1165 1296 1875 
169 2460 1873 1764 1172 468 1867 1116 2629 
2243 2032 2064 2956 1715 1474 2394 1287 196 
624 2055 2049 1534 2764 308 1755 2030 1923 
2023 1760 1932 1612 2434 1788 2234 2236 1791 
1160 1868 1475 1410 1303 4 2127 1795 2284 
2403 2211 597 2197 2180 2099 2411 591 184 
1000 2146 486 1167 538 1631 261 1514 1195 
917 1610 1401 2474 1758 2813 1903 2992 1926 
490 1108 645 1651 759 1542 1591 577 1724 
651 1645 176 1627 1453 1050 823 2497 1891 
1313 157 965 1249 801 466 1336 1713 359 
1579 989 2110 1708 1422 1282 825 2147 786 
1752 1307 1554 234 593 1495 1147 908 1266 
1530 2372 2126 729 56 269 762 156 670 
1364 1239 1062 2542 1951 1973 542 1816 1390 
1980 2081 1922 2384 2327 1657 1211 2569 3162 
1189 768 1570 1143 2514 335 2690 1717 2680 
2122 2843 2554 2775 2518 3284 2196 2641 2257 
2046 2100 3086 3465 2999 2528 2911 2938 3002 
2069 3106 1259 1598 3160 2845 3808 3564 2713 
3025 3155 3142 3955 3289 2633 2720 2686 1996 
3060 1777 2349 2508 2918 2195 1869 699 782 
2303 2247 1581 2847 2102 2250 2977 2512 492 
2341 2588 3540 2801 3235 2245 1603 2987 1783 
3013 2421 2417 1661 2851 2208 2963 3098 3529 
2862 2262 2096 3319 3471 3677 3822 2612 2121 
1590 2106 1681 2084 2526 1626 2840 2098 2968 
2433 3636 2958 4100 3362 2435 2308 3707 2825 
1146 2351 2383 1800 3413 2959 2833 2975 2761 
2506 3033 3256 3099 2487 3315 3682 4002 1533 
2472 2455 2187 1906 2624 2684 2418 2378 2448 
3174 3271 3095 3207 3378 2930 3761 2377 2075 
2355 2932 2606 2517 3464 2545 3215 3734 2871 
3187 3650 2855 4051 2499 2747 2467 2735 2332 
2809 1937 465 2560 2611 2689 2538 1802 2675 
1865 2806 2443 2669 2568 2877 2339 2533 1950 
2391 2646 1382 2314 1991 2493 2601 2135 2041 
1458 3193 2645 2556 2330 2483 3469 2239 3125 
2597 2008 2613 3094 1746 2746 3425 3411 3391 
3851 3111 3037 2929 1253 2291 2812 2767 2396 
3297 3027 3303 2516 2795 3122 3492 3920 2966 
3221 1619 3082 2661 2532 2510 1983 1376 1727 
1414 2276 2183 2368 2120 2486 2498 3539 2673 
2505 3360 3346 2511 2015 1978 2765 2468 2953 
3079 2048 1866 2402 3249 2824 2739 3553 2808 
2088 3078 3041 2562 1989 2522 2964 1716 3175 
2515 2338 2415 2280 3015 3699 2659 2848 3028 
3721 2365 3572 2173 2329 2298 2943 3024 3124 
2105 1737 2025 2450 1711 1817 2216 3828 3199 
2896 1378 2859 2639 2610 3238 3789 2061 2886 
1065 1887 1773 2491 2429 2385 2359 3252 1700 
2576 2389 3451 2787 2829 2805 2268 4089 3799 
2231 2057 2142 2282 722 2177 3156 2816 2668 
2708 2363 3375 2387 3247 2858 2880 2983 3614 
3345 3309 3000 3173 2794 1917 2399 2151 2103 
2674 2457 3072 1781 3338 2581 3005 2477 1988 
2916 2182 2944 2870 3040 1942 3180 2694 2693 
2838 1671 1668 2600 1264 2804 2333 3286 1889 
2736 2540 3772 3679 2050 2549 2666 1824 2671 
2409 2111 1840 2846 3158 2687 2520 2432 3211 
3690 2519 3208 2534 2461 3090 3616 2895 3306 
2179 2440 2071 2745 2420 2423 1965 2005 1987 
2717 3924 2732 3542 2241 3508 1741 1198 2181 
2709 2370 2322 2361 1531 3167 2757 1658 2116 
2083 3063 2202 2579 3185 2656 2286 2665 1539 
1924 2935 3339 1896 2939 1667 3368 3445 3881 
2544 4075 2141 2688 1969 2773 2206 3258 2082 
2373 3029 2482 1890 3250 3620 2883 1916 3548 
3001 2995 2712 1723 1431 2861 1807 1938 2875 
3455 2772 2251 3039 2444 3892 1806 3150 3140 
3466 1993 1736 1200 1452 1815 1994 1877 2207 
2989 2678 2407 2922 3890 2897 2915 1704 2392 
1568 1558 2786 2521 1051 2950 2849 3453 2263 
2704 2741 2484 1637 2130 2326 2595 2737 2820 
3012 2863 3214 2323 2536 2309 2481 3326 3327 
2567 2541 3941 2215 2603 2357 1786 2978 1545 
2676 3003 3189 2405 2059 2125 1985 3129 2986 
3066 2204 1920 2118 2699 2193 2192 2885 3569 
3336 2614 3097 1732 1660 1689 1941 1900 2220 
2798 3257 1901 2749 2343 2835 2539 3333 3498 
1653 1803 2422 2770 2940 2814 2881 3363 3316 
1805 3499 1735 1946 3149 3278 3506 3633 2951 
3757 3981 3877 3568 2488 3387 3694 3023 1762 
1990 2068 2473 2827 2677 3246 2572 2899 3121 
2169 2941 2344 2653 2912 3530 2026 2079 2077 
2439 2424 2752 2070 2647 2222 2504 2325 2306 
2356 1729 1909 1739 1585 2564 1825 2476 3574 
2632 2828 3016 2733 3470 2112 1292 2094 2830 
2630 2132 2573 2657 2217 2164 2969 2844 3112 
3179 3071 2738 2393 2465 2570 2642 2552 2124 
2095 1432 3308 2500 1851 1820 2887 2404 1039 
1930 2724 2865 2854 3009 2313 1857 2990 3351 
2337 1648 1549 1646 2636 2503 1798 1956 2442 
2725 3196 2249 3485 2382 2620 2524 2931 3602 
3135 1515 2459 1933 2584 1738 2638 1621 1915 
2682 2316 3054 2802 3273 3439 2919 2797 3486 
2972 3164 1810 1797 2994 2253 3312 3666 2445 
1874 2462 2017 2985 2934 2011 3505 2763 3429 
2615 3006 3390 3085 2604 2374 2785 3014 3874 
3552 1656 2701 3053 1706 2799 2592 1409 2342 
2587 3050 2413 2789 3700 2890 2471 3489 3448 
3480 3093 3300 2178 3047 2902 2923 2352 2214 
2274 1731 3234 2436 1947 2480 2273 3373 3337 
2697 3087 3213 2803 1740 2759 2199 1465 1892 
1204 2543 2287 2167 2447 3105 1451 1799 2213 
2201 2608 2016 2162 2961 2908 2535 3403 4017 
3123 3871 2336 2702 2888 2029 2230 236 2649 
2492 1894 3398 3463 2137 1918 2753 2555 1854 
2609 2723 1974 2340 2924 2175 2456 2321 2751 
1872 2288 2218 3277 2625 3304 2045 2730 3756 
2233 3494 2925 3329 3299 3314 1904 1666 1457 
2186 1527 1709 2281 2768 2982 2654 2261 3251 
2933 2153 2655 1847 3432 2679 2437 3741 3074 
3760 1138 2020 2019 2700 2962 2227 2705 3151 
1427 1635 2898 1742 2495 2744 3138 3070 2853 
2605 2734 2681 3178 3785 3900 3660 2265 2626 
2174 2331 1818 2602 3307 2376 2578 3980 2097 
2315 2715 3170 2672 4228 3546 3737 2731 3318 
2800 2900 2547 2810 3232 2691 3280 3712 2841 
2525 2469 3733 3190 2635 3803 3224 3296 4108 
2502 2310 3045 2397 1864 3017 2729 2561 3287 
3274 3225 2184 2244 2496 2062 3893 2952 3065 
3745 2619 3559 2917 2063 1912 2089 2494 2078 
2727 2822 3153 2644 3301 3219 3358 3330 3369 
3436 3836 2711 2590 1473 2580 2936 3202 2087 
2390 2882 2703 2949 2650 2311 2884 2874 3267 
3091 2485 1322 897 1601 2957 2784 2360 3371 
2627 3145 2748 3116 3270 3818 2591 2475 3367 
3248 3736 3269 3901 2076 2188 2903 2988 2401 
1784 2080 3292 2663 2831 3212 3397 2388 3119 
2892 3704 2380 2766 2876 3603 2913 262 2670 
2948 3372 2706 2170 2631 2171 2107 2945 3114 
3747 2582 3034 3507 3495 2513 2033 2942 2872 
3400 2270 2593 2563 3460 2294 3293 3081 3939 
3937 3357 3059 3562 2791 3069 2575 2586 2350 
3201 3171 3266 3073 3895 3263 4035 3565 1034 
3004 2758 3442 3752 3684 3646 3823 3683 2489 
2302 1770 2229 2369 2692 3561 3341 2255 3435 
2085 2793 3444 1520 2811 3467 3843 4087 3934 
2235 2523 2412 2778 2909 2585 2144 3406 3401 
2246 3268 2637 2058 3115 3396 2479 3884 2381 
2060 2662 3386 2501 3172 2002 3738 2266 3285 
3912 1823 2856 1837 2937 3176 3120 2530 2574 
3591 3783 3410 3320 3759 3606 2970 3487 3089 
3538 3525 3641 3581 3573 2056 2131 2868 3630 
3046 4455 2866 3255 3718 3580 3657 3532 2685 
2771 3493 3288 2742 2836 3509 3282 3804 4039 
3118 2879 3713 3722 3446 3279 2718 3792 4166 
3834 3703 4216 2507 3056 4464 3958 4734 4738 
3961 3331 3902 3919 5177 2623 3845 3639 2864 
4060 4200 4618 4497 3972 3607 4124 3404 3862 
3758 4367 4098 4168 2783 2891 2634 4129 3032 
3790 3077 3440 3058 4422 3778 3654 3276 4392 
5006 4636 6024 5163 4276 4358 3148 3334 3844 
3194 3723 4149 3405 3302 3632 3523 3195 3985 
3727 3547 3670 3977 4257 4360 3147 3361 3472 
2371 3433 3831 3913 3763 4139 4326 4388 2955 
4310 3764 3349 4475 4286 4398 4248 3152 3165 
3766 3967 3379 3618 4066 3735 4416 4642 4072 
4270 4918 4390 5772 4818 2616 3768 3350 3623 
4439 4211 3894 3800 3675 2967 3711 3083 4375 
4038 5535 4027 4609 3311 4415 2553 4661 4086 
2596 3537 3048 3500 3437 3578 3708 3811 3868 
3883 3717 4456 4536 4395 4451 4891 5032 4424 
3313 3847 2740 3067 2189 4279 2973 3478 4188 
4460 4251 5621 4647 4255 2834 4389 4170 3662 
3833 3450 2946 4637 4813 3715 4371 4420 4169 
5082 4664 4463 4550 3325 2904 3449 2721 3052 
4000 4480 3512 3516 3993 4632 3264 4496 4567 
4284 4520 4225 2821 2628 2438 3186 4056 3676 
3983 2832 4946 4007 4521 4705 4775 4361 4366 
4136 4619 4742 4543 5340 4458 3522 3599 2842 
2907 3103 3188 3794 3907 3527 2980 3771 4093 
4797 4993 4150 4648 4321 4707 4838 4449 3769 
3751 3226 3898 3353 4317 3714 3806 3412 4198 
5425 3347 3990 4161 4202 4003 4290 4519 4783 
4453 3365 2648 3096 3370 4113 3534 4559 4068 
2976 3298 2777 3674 4012 5112 4696 2867 3774 
3556 3528 4240 4413 3743 3477 3615 3476 3826 
3753 3482 3409 3642 3754 4065 4646 4001 4957 
4071 3169 3260 3813 3594 3462 3415 3317 3518 
4403 3231 4130 4560 3126 3908 2168 2696 3388 
2354 3651 3931 3166 4504 3101 3634 3468 3242 
3459 3963 4175 3956 3328 3809 3399 2788 2984 
2857 2927 3020 4259 3829 3624 4019 3773 3681 
3344 4700 3376 3821 4924 4117 4523 4980 3481 
4064 4205 3577 3143 3418 3183 3457 3848 3402 
3974 4134 3987 3204 3672 3640 3323 4466 4328 
3944 4914 4572 3294 3979 3695 3244 2698 3259 
3730 3897 4525 4291 4387 3951 3253 3988 4127 
4440 3281 3817 4110 4376 2954 3590 3825 3504 
4232 2726 4253 3705 3853 4120 3861 3011 3849 
4876 4374 4870 4600 4729 3434 5367 4517 3557 
2769 2860 3706 3392 3092 4545 4359 3377 3474 
4242 3526 4793 3814 3784 5038 4171 3227 2558 
4281 3655 3788 4575 4490 4268 3611 3921 4699 
4448 3571 4590 2664 4444 4833 4806 3860 4485 
4406 3100 3692 3427 4306 3649 4133 4597 3936 
4046 4754 3886 5026 4477 4970 4971 3882 5688 
3746 4154 3157 3222 3973 3422 4103 4084 3819 
3596 4979 3035 4340 4263 4230 3275 3767 2894 
3563 2993 3237 3136 3236 3926 3191 4099 3652 
4031 3856 4184 4189 4393 4025 5108 2683 2819 
3927 3748 3952 4125 3108 2823 4688 4872 5875 
3545 2998 2617 2914 3229 3638 2707 3685 3644 
4262 3598 3139 3698 3055 3576 4142 3989 4518 
3940 3163 2293 3428 3272 3107 3030 3837 3424 
3127 4506 4753 3586 4061 4109 4566 4483 3490 
4629 4383 3075 2947 3925 3810 4237 3550 4295 
4570 3241 3104 4731 4937 3549 4923 4839 3484 
3181 4454 2571 3393 3408 4112 3356 3742 3622 
3744 3786 4105 3592 3473 4095 5827 3612 4681 
3858 2780 3935 2850 3762 4335 3588 3891 3200 
3859 4245 2419 3628 4233 4069 3324 4394 4207 
4465 4617 5247 5179 4443 4958 5076 4016 5170 
5301 3864 3061 4402 4429 4349 3452 3888 4778 
4462 5139 5110 3007 2928 3230 3243 3558 3283 
3044 4434 4528 4554 4555 5510 3496 2722 3665 
3855 4128 3210 4156 3970 3414 4438 3824 3458 
4484 3873 3978 3084 2358 2756 4217 3663 3022 
2760 3946 4114 3332 3220 4246 4261 3910 4494 
5033 2991 2971 3161 2599 3796 2807 2965 3197 
3205 4024 3867 3609 3502 3443 4386 4008 3838 
3659 2320 3109 3613 3617 2815 2920 3501 4020 
3619 3680 3128 4468 3689 3863 3820 4594 3648 
4029 3374 3948 3668 2817 2893 2926 3601 3544 
3198 3130 4176 2974 4239 3184 3144 3830 4419 
4772 3922 3305 4365 3673 4315 4083 4165 3117 
3018 4531 4899 3608 3687 4235 3380 4327 2755 
4452 4344 4298 3887 3776 3088 3431 3582 3795 
4053 4573 3872 3755 4714 5403 4045 3842 3177 
2906 3560 3366 3584 4878 2643 4081 3686 3479 
4203 4137 3850 4062 3513 3750 4369 5001 4028 
4331 3905 3911 4309 3702 3239 3775 3359 2960 
3110 3575 4614 3996 4347 3447 4183 4148 4747 
3595 4005 4491 4311 3827 3945 4193 3991 4077 
3950 3816 4472 3395 3749 3805 4018 4811 3631 
4352 4338 5195 3610 4206 4685 4674 4116 4097 
3719 2826 4736 3779 3159 4102 4551 3600 3593 
4158 3589 4673 3960 4249 3419 3835 2792 3777 
2428 3720 3653 3383 3245 3541 4990 4639 4080 
3134 3739 4364 4330 4495 4231 2997 2463 3295 
3491 4187 4163 3233 3520 3343 3043 4090 3417 
3438 3262 2889 3975 4425 2334 4201 3661 3019 
4486 4256 3488 4412 3168 4565 4197 4342 3928 