# vtk DataFile Version 4.2
Generated by LIGGGHTS
ASCII
DATASET POLYDATA
POINTS 5999 float
-0.0178837 -0.0412972 0.00399928 -0.0141062 -0.0426433 0.00400134 -0.0101104 -0.0424357 0.00400004 
-0.00668767 -0.0445051 0.00399907 -0.00282478 -0.0434702 0.00399899 -0.00631725 -0.0404796 0.00399959 
0.000877311 -0.0449827 0.00399968 0.00851778 -0.0441634 0.00399933 0.00457906 -0.0434656 0.00400189 
0.00139701 -0.0409562 0.00399968 0.0104768 -0.0404554 0.00399903 0.0147204 -0.042055 0.00401057 
-0.0305857 -0.0330188 0.00399957 -0.0249648 -0.0331558 0.00399901 -0.0248885 -0.0374524 0.00400074 
-0.0215439 -0.0310846 0.00400809 -0.0215263 -0.035197 0.00399807 -0.0214679 -0.0395235 0.00399922 
-0.0145721 -0.0311192 0.00399931 -0.0146168 -0.0351188 0.00399978 -0.0179736 -0.0372933 0.00399986 
-0.0180937 -0.0331407 0.00399994 -0.0119223 -0.0388511 0.00399846 -0.0105735 -0.0316061 0.00411694 
-0.00835787 -0.0370293 0.00399986 -0.00650055 -0.0309557 0.00399966 -0.00431665 -0.0343058 0.00399899 
-0.000817484 -0.0371628 0.00399996 -0.00254966 -0.0303009 0.00400159 0.0064396 -0.0399213 0.00400328 
0.000129247 -0.0332759 0.00400038 0.00719833 -0.0351363 0.00399955 0.00855044 -0.0313721 0.00399893 
0.00302679 -0.0360572 0.00399845 0.00434299 -0.0322826 0.00409386 0.0126668 -0.0306892 0.00399941 
0.0182602 -0.0392871 0.00399798 0.0165828 -0.0315035 0.00399901 0.0111672 -0.034397 0.0039998 
0.0179412 -0.0352857 0.00401886 0.0140951 -0.0371217 0.00399784 0.0205716 -0.0310987 0.00402119 
0.0255313 -0.0368314 0.00399878 0.0219413 -0.0350553 0.00399935 0.0252709 -0.0328398 0.00401986 
0.0295312 -0.0338782 0.00400021 0.0222534 -0.0391193 0.00412108 0.0281932 -0.0301091 0.0039995 
0.0324979 -0.0311086 0.00468078 -0.0400175 -0.0205985 0.00399933 -0.0330065 -0.0298139 0.00399986 
-0.0359342 -0.0270885 0.00399919 -0.0324517 -0.0218192 0.00399989 -0.0370096 -0.0232359 0.0039997 
-0.0299559 -0.0254413 0.00399917 -0.0290358 -0.0293327 0.00399893 -0.0218412 -0.0267788 0.00399863 
-0.0224226 -0.0228221 0.00399893 -0.0257667 -0.0250282 0.00406513 -0.028383 -0.0217653 0.0039984 
-0.0250457 -0.0291622 0.00420861 -0.0180487 -0.0291414 0.00399835 -0.018134 -0.0251433 0.00399899 
-0.0187914 -0.0210114 0.0039984 -0.0141577 -0.0255767 0.00399929 -0.0148176 -0.0214716 0.00407093 
-0.0104505 -0.0240754 0.00399816 -0.0110632 -0.0200911 0.00400728 -0.0071422 -0.0210461 0.0040192 
-0.00891283 -0.0277665 0.0039995 -0.00411632 -0.0237624 0.00399948 -0.000241182 -0.0227739 0.00404566 
-0.00124049 -0.0265885 0.0047158 0.00939195 -0.0273753 0.00399973 0.00651972 -0.024592 0.00399881 
0.0036392 -0.0218074 0.00399919 0.00554494 -0.0284701 0.00399962 0.00261308 -0.0256731 0.00400007 
0.00141713 -0.0294896 0.00399855 0.0168509 -0.0275139 0.00399843 0.0136552 -0.0250221 0.00400196 
0.013014 -0.0206369 0.00400207 0.0166239 -0.0223475 0.004182 0.019909 -0.0246207 0.00399993 
0.0101783 -0.0232902 0.00495924 0.0225865 -0.027591 0.0039981 0.0241356 -0.0239038 0.0039989 
0.0270158 -0.0211148 0.00399997 0.0272397 -0.0263031 0.00477536 0.0301626 -0.0235426 0.00445564 
0.0378044 -0.0242739 0.0039996 0.0340608 -0.022704 0.00401428 0.0312126 -0.0273752 0.0039993 
0.0352181 -0.0273338 0.00400019 -0.043561 -0.0112416 0.00399951 -0.0423416 -0.015068 0.00410492 
-0.0386994 -0.0168227 0.00399843 -0.0315371 -0.0144979 0.0039988 -0.0337269 -0.0108073 0.00402199 
-0.0391691 -0.012611 0.00399971 -0.0304619 -0.0183494 0.00399963 -0.0355343 -0.0143799 0.00399813 
-0.0355285 -0.019263 0.00401993 -0.0249466 -0.0197203 0.00399949 -0.0280691 -0.0125053 0.00400846 
-0.0246677 -0.0104019 0.00399877 -0.0235878 -0.0143656 0.00399978 -0.0270346 -0.0163414 0.00446576 
-0.0213728 -0.0179982 0.00450255 -0.0124159 -0.0162881 0.00399834 -0.0119254 -0.0118571 0.00399955 
-0.0182101 -0.0107479 0.00399786 -0.0193613 -0.0145786 0.00399953 -0.0165439 -0.0175099 0.00402754 
-0.0154804 -0.0136634 0.00430998 -0.00306417 -0.019904 0.00399941 -0.0046267 -0.0133123 0.00399859 
-0.00857865 -0.0140474 0.00399938 -0.00177616 -0.0161182 0.00399994 -0.00724421 -0.0102772 0.00399953 
-0.00600037 -0.0171128 0.00404478 0.00202541 -0.0132587 0.00399807 0.0014799 -0.018441 0.00399787 
0.00546894 -0.0181595 0.00400009 0.00899787 -0.0149665 0.0039997 0.00938924 -0.0189478 0.00400418 
0.00580649 -0.0109504 0.00399896 0.0196417 -0.0197293 0.00399939 0.0171557 -0.0132487 0.00399927 
0.012665 -0.0166523 0.00399924 0.0125884 -0.0125816 0.00399977 0.0165997 -0.0171793 0.00448672 
0.0203137 -0.0157426 0.00400071 0.027872 -0.0131427 0.00399782 0.0235944 -0.0190395 0.00402152 
0.0224086 -0.0115795 0.00399952 0.0278137 -0.0171949 0.00399838 0.0243589 -0.0151012 0.00400917 
0.0369412 -0.0199269 0.00399904 0.0312256 -0.0196975 0.00401603 0.0349923 -0.0135465 0.00399905 
0.0313177 -0.0152663 0.00399957 0.0382619 -0.0158389 0.00423516 0.0396337 -0.0120648 0.00413607 
0.0323315 -0.010706 0.00492814 0.0422057 -0.0151776 0.00399943 0.0435945 -0.0110977 0.00402008 
0.0408127 -0.0189264 0.00403038 -0.0410971 -0.00774071 0.00399884 -0.0407157 -0.00330063 0.0040093 
-0.0446201 -0.00584223 0.00399999 -0.0447702 -0.00153908 0.00441873 -0.0315213 -0.00532254 0.00399911 
-0.0368641 -0.00501801 0.00399869 -0.0372982 -0.00899365 0.0039998 -0.0329176 -0.00157489 0.00403573 
-0.0373583 -7.82799e-05 0.00399973 -0.030101 -0.00906086 0.00399903 -0.0231769 -0.00399792 0.00400118 
-0.0275497 -0.0059523 0.00401161 -0.0210237 -0.00787714 0.00406507 -0.0288052 -0.00211804 0.0040011 
-0.0155837 -0.00175452 0.00400071 -0.0129681 -0.00478006 0.00400025 -0.0116749 -0.000746365 0.00399989 
-0.0105907 -0.00808671 0.0039997 -0.0195564 -0.0022927 0.00400361 -0.0145672 -0.00863306 0.0042022 
-0.0174093 -0.00561967 0.00457005 -0.00778274 -0.00167023 0.00400106 -0.00265955 -0.00970817 0.00399918 
-0.00635386 -0.00637826 0.00399857 -0.00404667 -0.00309821 0.00402242 -0.000846378 -0.00551806 0.00399956 
0.00965503 -0.00986342 0.00399885 0.00689425 -0.00697035 0.00399908 0.00133177 -0.00932025 0.00399947 
0.00315321 -0.00553955 0.00399913 0.00117227 -0.00206524 0.00399964 0.00569399 -0.000562986 0.00400433 
0.0104293 -0.0050607 0.00399845 0.0183281 -0.00383967 0.00399902 0.0172058 -0.00767876 0.00399916 
0.0143477 -0.00422385 0.0039988 0.0132252 -0.00806262 0.00399865 0.0123901 -0.000736239 0.00399972 
0.0286848 -0.000474532 0.00399875 0.0276973 -0.00543783 0.00399948 0.024766 -0.00834859 0.00399931 
0.021121 -0.00670297 0.00399987 0.0250593 -0.00228553 0.0040606 0.0285947 -0.00927234 0.00469611 
0.0215669 -0.000319375 0.00400042 0.0317108 -0.00686548 0.0039984 0.0349343 -0.00449748 0.00399951 
0.0370153 -0.00858765 0.00399784 0.0341521 -0.000485918 0.00399837 0.0379281 -0.00180176 0.00399948 
0.0412023 -0.00409718 0.004001 0.0449036 -0.00209932 0.00399959 0.0409616 -0.00807666 0.00439055 
0.0445297 -0.00631453 0.00400001 -0.0448008 0.00268229 0.00399952 -0.0444796 0.00667132 0.00400154 
-0.0413075 0.000657126 0.00400084 -0.0395914 0.00752866 0.00399876 -0.0377082 0.00400043 0.003999 
-0.0343929 0.0062371 0.00399964 -0.0341014 0.00224566 0.0039991 -0.0311988 0.00848341 0.00486391 
-0.0301463 0.00165034 0.00399866 -0.0248981 0.000387687 0.00418298 -0.0233897 0.00923429 0.00400022 
-0.0247707 0.00525782 0.00400009 -0.020893 0.00147804 0.0039989 -0.0272956 0.00837603 0.00399923 
-0.0207461 0.00547482 0.00399925 -0.0193904 0.00923739 0.00399882 -0.0168048 0.00618639 0.00399761 
-0.0144881 0.00209754 0.00399993 -0.0126177 0.00952285 0.00399983 -0.0127851 0.00561779 0.00484577 
-0.0098798 0.00300316 0.00399839 -0.00181256 0.00446114 0.00400809 -0.00602435 0.00193925 0.00399776 
-0.00544111 0.00614919 0.00399818 -0.001984 0.000410935 0.00399991 -0.00030409 0.00877801 0.00400003 
-0.00925779 0.00734598 0.00400029 0.00195725 0.001853 0.00415704 0.00239325 0.00582535 0.00399979 
0.00596494 0.00402591 0.00399851 0.00922174 0.00170462 0.00400282 0.00721981 0.00787366 0.00401167 
0.00362109 0.00963254 0.00399919 0.0184659 0.00247794 0.00399984 0.0186292 0.00647834 0.00400004 
0.0107986 0.00538071 0.00399924 0.0145857 0.00700914 0.00405914 0.0144426 0.00284039 0.00406835 
0.0112492 0.00930919 0.00459723 0.0221241 0.00409643 0.00399819 0.0222913 0.00809246 0.00399967 
0.0253566 0.00174159 0.0039987 0.0257395 0.00580636 0.00399964 0.0290685 0.00355927 0.00400168 
0.0258448 0.00992789 0.00399957 0.0365872 0.00600752 0.00399891 0.0380203 0.00224527 0.00400118 
0.0334143 0.00344596 0.00400002 0.0328401 0.00740504 0.00399926 0.035903 0.00997781 0.00400038 
0.0414949 1.12699e-05 0.00399976 0.0406035 0.00624871 0.00399888 0.0445971 0.00602728 0.00399914 
0.0449405 0.00204276 0.003999 0.0438161 0.00995307 0.00399861 -0.0425861 0.0144326 0.0040001 
-0.0437352 0.0106023 0.0039986 -0.0378247 0.0168865 0.0039989 -0.0398422 0.0115202 0.00399956 
-0.0301314 0.0156664 0.00399941 -0.0322155 0.0122532 0.00399968 -0.033865 0.0169896 0.00454412 
-0.0311103 0.019847 0.0040513 -0.0262465 0.0166123 0.00399808 -0.022252 0.0168102 0.00399911 
-0.0240316 0.0132117 0.00400735 -0.0279338 0.0123244 0.00401586 -0.0200299 0.0132666 0.00402527 
-0.0114308 0.0179621 0.00402347 -0.016301 0.0117865 0.00400361 -0.0113073 0.0133011 0.00399937 
-0.0182548 0.0169432 0.0039994 -0.0145608 0.0155422 0.00462231 -0.0151454 0.019459 0.00400011 
-0.00791933 0.0111757 0.00399851 -0.00403691 0.0102157 0.00400117 -0.00202315 0.0185135 0.00399973 
-0.00395065 0.0142146 0.00401471 -0.00774636 0.0154535 0.00441784 -0.000127456 0.0127733 0.00399878 
-0.00578917 0.0198625 0.00399786 0.00170962 0.016326 0.0039994 0.00816248 0.0117807 0.00399992 
0.00456197 0.0135222 0.00401621 0.00699308 0.0167534 0.00401314 0.00351159 0.0198963 0.00399934 
0.0184795 0.0104754 0.00400022 0.0172111 0.0142691 0.00399899 0.0180992 0.0194008 0.00400015 
0.0146049 0.0173233 0.00399822 0.0112379 0.0146715 0.00399958 0.010879 0.0187913 0.00400153 
0.0284425 0.0184587 0.0040003 0.0224779 0.0120875 0.00399951 0.0209186 0.0157706 0.00399936 
0.0243354 0.0178919 0.00404385 0.0268835 0.0139761 0.00421138 0.0364311 0.0176004 0.00399871 
[...]
POINT_DATA 5999
FIELD FieldData 7
id 1 5999 int
544 514 482 144 333 828 856 1092 1037 
589 203 307 1045 120 924 520 97 862 
379 135 52 145 107 228 53 263 426 
158 1095 408 1008 336 706 476 501 364 
230 992 41 404 246 608 245 247 46 
760 690 397 154 1316 966 557 274 440 
115 434 378 816 623 1019 874 63 946 
294 669 724 11 502 1015 704 546 174 
424 365 469 504 952 684 776 114 276 
149 8 1042 758 614 310 876 54 112 
516 210 401 509 861 136 348 57 659 
349 1107 437 787 344 650 360 281 131 
550 664 374 345 84 311 487 296 429 
99 42 175 113 205 1126 616 168 293 
66 396 1144 317 1494 875 39 117 630 
848 1077 256 350 528 231 461 962 1035 
788 86 142 423 372 1214 1262 853 686 
1503 417 802 134 163 20 783 126 1096 
906 354 1269 731 447 485 1071 612 221 
821 58 584 441 1105 931 903 342 1460 
1481 627 489 1486 427 1027 305 967 1142 
900 322 784 498 410 73 393 935 421 
1032 48 458 108 418 241 914 604 1014 
105 292 1516 12 558 224 766 813 755 
857 463 16 5 971 23 1128 1254 998 
352 77 229 594 78 563 206 1277 346 
334 170 763 886 1106 193 273 375 560 
384 734 517 579 81 1478 286 432 3 
128 712 473 320 159 380 88 155 1073 
182 313 341 522 847 745 1066 586 214 
657 387 915 1024 535 1072 165 592 394 
298 244 836 556 436 868 287 691 519 
260 631 640 191 996 721 79 671 98 
225 80 1040 356 337 266 576 75 910 
944 103 347 1124 361 316 197 212 1016 
954 21 288 104 736 1220 146 660 425 
880 91 715 839 521 160 121 290 76 
152 628 332 406 28 569 529 177 478 
1611 929 1103 235 748 226 428 1368 227 
116 928 1899 705 1084 220 304 851 513 
96 255 388 629 1134 409 118 133 1484 
181 259 299 642 15 140 6 1117 636 
45 289 213 173 769 916 327 1025 475 
129 899 141 497 111 701 395 217 1489 
268 414 215 477 124 474 532 780 162 
909 27 161 454 625 218 866 40 1461 
328 882 1 2618 250 877 455 122 18 
1119 1323 885 67 995 1765 864 178 26 
901 495 430 907 1350 531 19 1213 598 
1044 505 1171 200 100 680 1270 1098 390 
282 1477 997 1392 969 450 551 153 271 
1328 407 1828 1575 1164 1620 647 1995 1299 
566 1861 795 1326 2364 1079 257 242 209 
464 515 194 1286 10 1650 981 1289 2165 
1834 452 1589 1846 65 1774 1882 1602 773 
138 185 400 83 596 233 1446 1232 892 
665 772 883 2065 1498 1999 1878 1411 777 
567 109 1033 338 391 1632 1067 696 1580 
707 1471 1677 852 1688 1176 605 47 1358 
968 1387 1792 1284 1434 1608 147 449 1850 
1543 1365 1421 1169 340 800 1485 512 285 
764 411 675 1280 580 443 750 1188 323 
1013 889 2027 1187 662 1341 33 94 119 
254 1005 713 1162 183 488 198 548 574 
493 1785 1416 1017 1275 279 2300 302 402 
1476 49 1506 55 1043 953 1639 1463 1836 
2042 744 2067 1026 2781 2347 199 1166 1418 
1028 1640 711 818 1331 1242 1023 1605 1059 
905 1843 1734 1768 2292 371 633 1285 1676 
1754 1179 534 2285 1789 1855 1159 1283 1210 
2092 1883 1944 844 918 641 937 102 392 
2221 1217 1697 943 1862 1074 1609 2109 1274 
938 1550 1170 1691 2345 1036 1258 858 1412 
248 2136 442 1330 1191 785 1491 1468 69 
872 2296 1182 267 382 779 22 90 1114 
689 617 643 652 471 902 1047 1652 1962 
1224 413 1057 1678 249 921 1327 2328 1178 
1829 223 803 703 741 525 639 824 1113 
578 1389 1064 1398 961 1265 319 1592 2228 
1680 68 125 243 1325 533 1563 854 668 
1407 977 963 1683 1345 2129 655 1844 1561 
1354 106 2066 1955 674 1623 697 1208 1722 
1055 7 1448 1672 9 832 2047 1749 1687 
1594 2209 2113 815 190 201 951 964 808 
747 990 403 986 179 1647 1525 888 1597 
1201 1555 2490 1338 980 38 718 1152 1482 
994 1404 1174 1012 2128 1684 1644 1572 1753 
1240 1701 1076 1083 353 1185 622 833 1177 
1497 1710 726 1377 270 1406 1960 1913 1852 
1628 1413 1183 1979 1288 291 819 859 635 
1508 1931 240 1383 987 1369 2312 1199 1223 
1552 1256 611 806 1308 523 123 518 1775 
43 679 927 658 1319 1132 834 1243 1767 
2278 1493 1347 1417 1811 314 739 590 1180 
754 1276 252 805 692 1355 506 139 1372 
1222 749 1324 894 1948 985 653 2205 1584 
399 1123 615 562 1212 1961 898 1118 222 
1679 25 1385 1329 1860 1250 1537 72 1359 
1772 1333 92 1233 1830 826 202 767 613 
1196 941 318 1500 978 2014 2194 884 1443 
496 369 619 1231 1618 881 1235 1310 1429 
2307 1548 694 1472 2299 1109 1317 581 1101 
545 1130 1133 727 278 1295 508 376 1622 
1099 1822 1587 1081 1536 1374 351 661 445 
500 543 1586 1509 1140 831 869 2104 575 
1003 1839 491 1356 1263 1091 2021 1479 1340 
710 1088 695 1569 830 1876 1728 1428 1030 
1366 1964 1125 479 1529 483 2038 1425 1809 
1692 855 537 1202 1674 1281 1444 1845 1181 
893 1630 1967 812 1279 1492 714 1348 1161 
896 389 1120 1100 1060 1145 1886 1796 1982 
1399 1702 1925 2346 959 1332 1921 842 933 
1426 137 751 1914 1517 1945 1041 1577 1935 
1137 367 1151 796 693 870 1557 1011 1006 
879 2043 1624 673 781 1009 835 756 1334 
24 867 1228 511 1038 873 1221 1353 1122 
1719 2200 1002 1351 775 610 654 890 1111 
1744 982 983 110 1225 1842 789 585 1357 
330 607 499 702 920 1567 1131 1522 2362 
794 1928 1362 1158 2001 2139 1804 1435 1252 
1496 462 677 1512 667 682 280 29 1871 
843 1907 2018 947 237 743 1455 1615 1975 
1821 1361 845 526 840 1300 1395 300 355 
1226 878 942 1480 728 838 717 1260 1720 
1787 1342 1541 370 1168 792 974 309 1238 
587 1320 1148 381 570 1305 606 1518 761 
1895 1750 1593 127 297 678 719 362 189 
1054 1089 188 431 148 565 1707 555 1381 
814 1046 1129 171 934 956 975 1831 527 
730 368 1010 1487 1139 723 993 1445 253 
31 1306 1031 377 564 1391 984 1778 503 
1400 1112 1812 1977 1197 1104 1080 1297 1149 
1301 1673 1613 295 716 101 1439 1576 919 
1294 922 632 2248 232 1450 817 1370 2237 
366 2319 2176 1523 265 1018 742 239 1090 
167 700 1078 1052 2279 2242 1553 1312 2260 
1499 1675 1910 303 827 588 988 32 419 
778 1344 1884 1255 1936 1714 1556 1870 2398 
1826 1337 2034 1997 331 572 1193 70 1086 
1335 1490 1430 1394 737 1972 1879 733 459 
1367 1462 2114 301 36 180 1237 1020 746 
1153 453 676 911 420 2452 1540 1546 1721 
1664 1154 568 64 541 216 326 1085 1150 
930 1311 484 979 164 315 87 809 822 
1535 1743 1402 932 553 283 646 955 130 
186 709 958 648 609 1682 1021 192 940 
708 2115 2148 1469 637 480 448 238 626 
765 1321 561 1069 554 1976 405 74 150 
887 1236 1207 358 1230 1115 524 1583 50 
1271 1384 481 1056 991 656 688 573 2 
51 849 1135 13 740 60 1532 1566 620 
1984 1247 1110 1029 1379 1097 412 600 923 
891 1022 1343 1604 1459 841 1560 435 2010 
2446 2225 2223 2750 2318 949 93 357 472 
771 1346 925 439 1349 790 1449 1617 1726 
559 1257 71 1048 1373 1760 1551 926 1745 
258 1442 62 1004 603 1819 1001 1897 644 
2406 325 774 470 1102 2051 1248 791 683 
957 1246 793 618 1309 1156 284 1625 681 
1510 1195 1669 2203 599 386 272 251 277 
35 725 373 1436 685 846 698 456 1859 
416 2158 2090 960 312 638 1227 1670 738 
820 547 1695 583 1582 965 752 1424 2035 
1467 2219 1565 799 976 329 95 571 1205 
850 34 85 1273 804 1267 363 1163 1423 
1261 17 2198 1655 151 1959 1388 582 1053 
1136 306 61 383 1165 1296 1875 169 2460 
1873 468 1867 1116 2629 1725 339 798 275 
14 1287 196 1534 2055 624 1172 2764 308 
1755 2030 1923 1703 204 89 1641 1298 1571 
2007 1160 2049 1868 1475 1410 1303 4 2023 
1795 2284 2127 264 166 973 1068 591 811 
649 1000 538 1167 486 2146 184 261 1631 
1514 917 2474 1610 30 829 321 324 438 
1504 666 1108 759 490 645 1591 1651 577 
1724 176 1627 651 1453 1645 507 433 195 
415 59 143 157 1249 466 801 1336 359 
1713 989 1579 786 1752 1307 1764 234 999 
1173 1147 593 1266 1530 908 207 904 132 
552 1290 510 729 269 762 56 1495 156 
670 1239 1364 530 422 621 451 1209 542 
1816 1390 1980 2384 2081 1922 1657 343 446 
1189 1542 768 1570 1143 735 1790 2690 1717 
2680 2122 2843 2554 913 602 3284 1245 2196 
2046 2641 2257 2100 3086 3465 2528 2999 1386 
601 1638 2289 1259 1598 3160 2845 3808 3155 
3564 2713 2254 2633 1906 2720 2686 1433 1278 
2349 2508 797 1957 2073 1194 1869 699 2195 
782 2847 2247 2303 1581 2102 2250 2512 492 
2977 2341 2621 1547 2464 2275 1856 3348 2245 
1603 2987 3013 2421 1783 2417 1661 2208 3098 
2862 3529 1690 1705 219 2157 1649 2527 2121 
2612 2106 2526 1681 1590 2084 1626 2098 2840 
3413 2433 2968 3636 2958 1718 2031 457 1175 
1420 1488 2003 2825 1146 2351 2383 1800 1414 
2959 2833 2975 2761 1614 1519 1533 2472 2455 
2187 2684 2624 3174 2418 3271 2448 2378 1251 
2295 1981 3008 2377 2075 2355 2932 2517 2606 
3464 2545 3215 3734 2871 3187 3650 1756 2332 
2735 1186 687 2416 1952 1058 2044 1937 465 
2560 2611 2689 2538 2675 1802 2443 1865 2806 
1564 1949 1733 2143 1771 2391 1382 2646 2314 
2493 2601 1991 2135 2041 1458 3193 2483 2145 
1633 1470 2185 1538 1779 2869 2008 1746 2746 
2613 2963 3425 3411 3391 3851 2150 1943 1696 
1437 2009 2427 2305 2812 2291 2767 1619 2396 
3027 3297 3303 2516 2276 2191 1908 970 1654 
2470 3082 2510 2661 2532 1983 1376 1727 2486 
2368 2183 1456 1919 1483 1953 1686 1824 2511 
2015 1978 2468 2522 2765 2111 2953 3079 2048 
1866 2402 3249 3553 2161 1659 540 1780 1699 
2408 1693 2562 1989 2964 1716 3175 2071 2338 
2423 2515 2415 2280 3015 2053 1403 2013 1954 
37 2173 2329 2181 2298 3024 2943 3124 1737 
2105 2450 1711 2025 1817 3063 2776 1093 2271 
1378 2429 2859 2639 2610 2743 1968 1184 1858 
2004 2667 1607 2061 2886 1065 1887 1773 2491 
1700 2385 2359 2576 3252 2389 2779 2557 2430 
2226 2057 2177 2142 2282 722 3156 2816 2668 
2363 3375 2708 2387 3247 2151 1562 2304 2714 
3094 1662 1794 2794 3173 2399 2103 2457 2674 
3072 2093 1595 1814 1881 807 2728 1408 2190 
1253 1988 2916 2182 2944 2870 3040 1061 1203 
211 1070 1966 939 2050 1668 1671 2600 1264 
2804 2333 2120 1889 1840 1272 2091 1763 1141 
1405 2594 2666 2549 2671 2409 3158 2520 2846 
2687 2432 3211 3690 2534 2519 2277 2301 2652 
1087 2317 2179 2440 2745 2420 2005 1965 1987 
1958 1685 2426 1642 1663 1219 1198 2709 2370 
2322 2361 1531 1293 2565 1905 1863 1658 2116 
2579 2083 2202 1397 1893 2366 1730 2665 1805 
1924 1539 2935 3339 2939 1896 2348 1505 1215 
1835 1759 1776 2774 2163 1969 2141 2688 2773 
3258 2206 2373 2082 2482 3029 1890 2787 3250 
1848 863 1318 1268 2548 1902 2796 1793 2712 
1723 2861 2875 1807 3455 2251 2772 3039 2444 
1916 1127 1643 2006 1363 1396 1917 1993 1452 
1736 1200 1815 1994 1877 2989 2678 2407 1380 
1513 1315 2478 1155 1507 2577 2172 1636 1704 
2392 1568 2521 1558 2786 2950 2207 2297 1588 
1888 1454 1216 1927 2531 1637 2130 2326 2595 
2737 2573 2820 3012 2676 3214 2863 2323 2112 
1049 865 1634 1838 1206 1694 2449 2607 2215 
2357 2603 1786 2978 1545 3003 2059 3189 2405 
2204 2159 770 2240 1094 1447 2256 1833 1920 
2118 2193 2192 2885 2125 1573 2210 2395 1629 
753 2086 1832 2584 1660 1689 1732 1941 2699 
1900 2798 2220 3257 1901 536 172 1803 1813 
2466 1653 2422 2770 2940 2814 2451 2036 1616 
2290 3499 1735 1946 3149 2488 3506 3278 2037 
1940 2052 860 2852 1769 1440 2453 2024 2537 
1502 2441 2232 1885 1762 2068 1990 2473 1431 
2827 1938 2677 3246 2572 3121 2899 2169 2379 
2258 1992 871 1808 2154 2762 2026 2079 2077 
2424 2439 2752 2222 2647 2070 2504 2325 2716 
2425 2546 1600 2140 945 1909 1825 1051 1729 
2356 1739 1585 2564 2849 2632 3574 2476 3112 
2335 2589 2458 1599 1292 2830 2094 2630 2132 
2657 2217 2969 2164 2844 3071 3179 3308 1578 
1521 1466 1229 1970 1432 2124 2095 2500 1646 
1851 2649 1039 1820 2887 2404 2865 2724 1930 
2854 2753 549 1501 1304 1360 1648 1549 2175 
2503 2636 1798 1956 2442 2218 2725 3196 2625 
2249 2382 1063 2264 2400 2074 1244 1911 1515 
1933 2459 1738 1621 2638 1915 2682 2316 3054 
3485 2802 3273 187 1291 757 2072 1528 1761 
1810 1797 2994 2253 2269 2651 1524 2431 1874 
2445 2462 2017 2934 2985 2615 3006 2604 3390 
2374 1352 1007 2839 2414 2529 1526 1656 2799 
2701 3053 2592 1706 2342 2587 1409 3050 2413 
2789 3700 2890 2471 3213 1419 1998 2123 2367 
2386 2178 3047 2352 2902 2923 2214 2274 1731 
2480 2436 1947 2273 3373 1339 1574 2012 1218 
672 2133 2238 1740 1465 2759 1204 2199 1892 
2543 2244 82 1314 1766 2108 950 1898 2658 
1747 2167 2287 2447 1451 3105 1799 2213 2201 
2961 2016 2608 2162 2908 1302 1241 1415 2324 
1473 2888 2702 2336 2230 2029 1894 2492 2137 
3398 1918 3463 2555 1082 2156 1190 1880 1075 
2340 2924 2456 2321 2751 1872 236 2288 3277 
3304 2045 2730 3756 2627 2375 810 539 1511 
1559 3251 1666 1457 2186 2076 1527 2281 1709 
2261 2982 2654 2153 2933 2655 1847 3432 1963 
1441 1138 2020 2768 2019 2700 2227 1849 2152 
1827 1192 1234 2212 1427 1635 2898 1742 2495 
2744 3138 3070 2734 2681 2605 2660 2134 1665 
2598 1748 2622 2265 2626 1818 2331 2602 2376 
2578 3234 2315 3980 2097 2715 2174 2119 2283 
2160 2259 2837 3031 1853 1939 2900 3017 2810 
2547 3232 3307 2691 3280 3712 2841 2469 2525 
3733 4228 1971 2910 948 2101 2022 2155 1801 
1596 3045 1864 2502 2397 2729 2561 3287 3274 
2496 2184 3225 2310 1934 1841 2039 634 2559 
3010 1912 2583 2089 2063 2078 2644 2727 3301 
3358 3153 3219 2272 444 1375 2040 1698 1712 
2711 2590 2494 2580 2936 2822 2087 3202 2703 
2390 2882 2949 2311 1393 2410 2000 2054 1322 
897 1601 2784 2360 2957 3371 3270 3145 2748 
3116 3818 2591 2475 972 1121 494 460 2138 
1757 1544 2903 2188 2381 2988 2401 2080 3292 
1784 2663 3212 2380 2766 2876 2243 2032 2064 
2956 1474 1715 2394 262 2670 2948 2170 3372 
2706 2631 2171 2945 2107 3747 2582 3114 1932 
1612 2236 2434 1791 2234 1788 2033 2513 3400 
2270 2942 2872 2593 3460 2563 2294 3293 3081 
3939 2403 2211 597 2197 2180 2411 2099 2575 
2350 2586 3201 3171 3266 3120 1401 1758 2813 
1903 1926 2992 1034 3004 2758 3442 1050 823 
3444 1313 1891 2497 2302 1770 2229 2369 2692 
3561 2131 3341 2255 3435 3752 2085 2110 1708 
1422 1282 825 2147 2523 2235 2412 2778 2585 
3406 2246 2909 2144 3401 2637 3268 2058 1554 
2060 2662 2372 2126 2501 3172 2002 3738 2266 
1062 1951 2542 1973 1823 2856 1837 2937 3176 
2574 2530 3591 3783 2327 1211 2569 3162 2970 
3487 3089 2514 335 2056 2868 2775 2518 3002 
2771 3255 2866 3580 3509 3288 2911 2938 2069 
3106 3493 2685 2742 3804 2836 2879 3025 3142 
3289 3955 3713 3722 3446 3279 3792 2718 4166 
3282 1996 3060 3703 4216 2507 3056 3958 4464 
1777 2918 3331 3902 3540 2588 2801 3235 2623 
3845 3639 4200 2864 4279 4060 4618 4497 3607 
3972 4124 3404 2851 3319 2262 2096 3822 3471 
3677 2891 2783 4129 3790 3077 3032 2634 3440 
3778 3058 3276 3718 4100 2435 2308 3707 3362 
3334 3844 3194 3302 3405 3632 3195 3985 3727 
3547 3977 4149 3670 2506 3033 3682 2487 3256 
3099 3315 4002 3472 2371 3361 3763 3433 3831 
3913 4326 4388 4139 2955 4310 3207 3095 3378 
2930 3761 3165 3766 3152 4248 3967 3379 4066 
3618 3735 4416 4072 4270 4918 4642 3894 2842 
2855 4051 2499 2747 2467 2616 3768 3350 4439 
3623 4211 3800 3675 2967 3711 3083 4415 2809 
3311 2553 2339 2568 2669 2533 2877 1950 2596 
3537 3500 3048 3437 3811 3578 3708 4086 3868 
3717 3883 4456 2645 2239 2330 3469 3125 2556 
2597 3313 2740 3067 3847 2973 3478 4170 3111 
2929 3037 4255 2834 4647 2189 4389 3833 4637 
3450 2946 3715 4813 4371 4169 3122 3492 2795 
2966 3723 3920 3325 2904 3662 4000 3449 3523 
3052 4480 3993 3512 3286 2498 3539 2505 3360 
3221 3346 2438 2628 2821 3186 4056 2721 3983 
3676 2832 3516 4007 4946 4775 4521 4286 4797 
2739 2824 2808 2673 3078 2088 3522 3599 3041 
2907 3188 3103 3527 3907 3794 2980 4093 3771 
2848 2717 3721 3699 2659 3572 3028 2365 3769 
3226 3751 4317 3898 3353 3714 3806 3347 3412 
4198 3990 5425 4161 4003 2648 4202 3828 2216 
3199 2896 3365 3534 3370 3096 3298 4559 4068 
2976 2777 2656 3238 3789 2867 3774 4444 3528 
3451 2829 3799 2805 2268 4089 3743 3476 3615 
3477 3826 3753 4065 3482 3409 3556 3642 3754 
3462 4891 2880 2858 3614 3345 2983 2231 3309 
3000 3169 3260 3594 3415 3813 3317 3518 4403 
3231 4130 3338 2581 3005 2477 1781 3651 2168 
2354 3388 2696 3136 3931 3166 3634 3468 4504 
3101 3242 1942 3180 2694 2693 2838 2788 2984 
2857 2927 3020 4259 3829 4019 3624 3344 3681 
3773 2540 2736 3772 3306 3679 3143 3183 3418 
3848 3457 3402 3974 4134 3640 3987 3672 3323 
3204 3208 2461 2895 3090 3616 3979 3244 3695 
2698 3730 3259 4525 4291 3253 4387 3951 4127 
4742 3924 3542 2241 2732 3508 2954 1741 3590 
3504 3825 4232 2726 4253 3897 4120 3705 3861 
3849 3011 4374 3167 2757 3181 3557 4113 2860 
2769 3392 3706 4545 3377 3092 3474 3185 2286 
3227 2558 4281 3655 3788 3445 3368 1667 3611 
3881 4075 2544 3568 3921 3571 4699 4590 2664 
4833 3620 3548 2995 3001 3100 3427 3649 4306 
4133 4046 4597 3150 3892 1806 3140 3466 3157 
3746 4154 3222 4103 3422 3973 3819 4084 3596 
2922 3890 2897 2915 2894 3767 3563 2993 3236 
3237 3399 3926 3191 4099 3856 3652 4031 3453 
2741 2704 2263 2484 2683 2819 3748 3927 3952 
4125 2823 3108 4688 4184 2536 2309 2481 3326 
3327 2567 2541 3941 3545 2998 2617 2914 3229 
3638 2707 3685 3644 4262 3598 3139 1985 3129 
2986 3066 2293 3163 3109 3107 3428 3272 3030 
3680 3424 3837 4506 4753 3613 3586 3127 3569 
2614 3336 3097 3948 3075 2947 2571 3925 3810 
4237 4570 4295 3550 3786 3241 3104 2749 2343 
2835 2539 3333 3498 3393 4454 3408 3356 4112 
3622 3484 3744 4105 3592 4315 2881 3363 3316 
2850 3858 2780 3935 3762 3431 4335 3588 3891 
3200 2951 3633 3757 3877 3981 4233 3324 4069 
4207 4394 4465 4617 5247 5179 2883 3387 3692 
3694 3023 3864 3936 4402 3061 2941 2344 2653 
2912 3530 3007 2928 3230 3558 3044 3283 2306 
2722 3665 4128 4156 3210 2828 3470 2733 3016 
3084 2358 2756 3663 4217 2760 3946 4114 3332 
3220 2393 2465 2738 2552 2642 2991 2570 2971 
3161 2599 3796 2965 3022 3197 2807 3205 4024 
3609 3502 3443 3867 3351 2313 3009 2337 2990 
1857 2320 3617 2815 2920 3501 4020 3619 3128 
3520 4468 3689 2620 2524 3602 3135 3668 2817 
2893 2926 2334 3601 3544 3130 3198 4176 2974 
3184 3439 2931 2919 2797 3486 4083 3305 2972 
3164 3673 4365 3117 4165 4531 3018 4899 3608 
3687 3380 4235 3312 3666 3582 3795 3088 4053 
3776 4573 3872 2979 2011 2763 3505 3842 2906 
3177 3560 3366 3085 2785 3429 3014 3874 2643 
3552 4081 3686 4137 3479 4062 3750 3850 4349 
4369 3513 3489 3093 3448 3480 4309 3243 4077 
3300 3702 3775 3239 2960 3359 3110 4479 3575 
3447 4614 3996 4347 3337 2803 2697 3087 3827 
3945 3950 4193 3991 3816 3395 3749 3805 4472 
4311 3855 4018 4811 3631 3610 4338 4116 3779 
3719 3159 3600 4736 4102 2535 3403 3123 3871 
3835 3419 2792 3777 2428 3643 3653 2826 3720 
3245 3593 3383 3541 3637 4364 1854 2723 2609 
2884 3091 1974 3295 3491 2463 4187 2997 4163 
3233 3043 3343 3494 2233 2925 3329 3314 1904 
3299 3975 2889 4425 3262 3661 3019 4201 4486 
3488 4256 4412 3852 2437 2679 3741 3760 3074 
3394 2353 3832 3533 4288 4320 3420 3514 3656 
4204 2962 2705 3146 3151 3182 2224 3904 2754 
3068 3178 3785 3900 2853 3660 4058 4215 4203 
3554 3223 3042 3133 3999 4146 3261 3584 3915 
2672 3170 3546 2731 3318 2800 3737 4174 3732 
4250 4219 3731 3965 4258 3865 3846 3645 3426 
4272 4591 3190 2635 3803 3224 3296 4108 3627 
3930 3968 3793 3629 4152 3876 3716 3051 2981 
4047 4598 3693 4341 4999 5224 2062 3893 3559 
2952 2619 2917 3745 4097 3065 3036 3626 3407 
2550 3878 3962 4157 4551 3436 3330 3369 3836 
4017 3267 2551 3049 3354 4041 3969 3597 3917 
3697 3291 3782 3064 2921 4131 4073 2650 2485 
2874 3929 3216 4078 2719 3688 3725 4234 3367 
3248 3736 3269 3901 3240 3531 4107 4055 3916 
4192 4589 3021 3587 3678 4377 3340 2831 2892 
2388 3397 3119 3704 3290 3352 3519 3787 3389 
3141 3515 2901 3382 3131 3461 3780 3603 3671 
3034 3507 3495 2913 3154 4252 3421 3132 3691 
4391 3802 3384 3658 4273 3062 3937 3059 3357 
2791 3069 3562 3521 3321 4505 3798 3535 4336 
4044 4274 3566 4727 3869 4943 3073 3895 3263 
4035 3565 4194 3254 3342 3430 4578 3517 4300 
3322 4023 4135 4926 5232 3684 3646 2489 3683 
4096 3192 3355 4118 2905 4316 4212 4009 4801 
3635 4428 4224 4040 2811 2793 1520 3467 3823 
3843 3934 4459 4087 3080 3503 2878 4305 3203 
4292 3664 3942 3765 4254 3396 2479 3115 3884 
2028 3026 4346 4091 3076 4043 3709 3543 4447 
3604 3982 3667 3386 3038 3217 4079 3454 3885 
3285 3912 2695 3701 4602 4275 5152 3320 3410 
3759 3606 4500 4426 3583 4314 4223 3511 3994 
4902 5115 3538 3525 3641 3581 3573 3310 3964 
4119 4264 4657 4764 3551 3630 4455 3046 3807 
5330 4526 5334 5355 4907 6019 3657 4385 4612 
4302 4039 3834 3118 3335 4788 4082 3961 4734 
4267 4766 5421 5090 3919 5177 4579 5503 3862 
4367 3758 4098 4168 4709 4457 4433 4510 4592 
5237 5223 5220 5432 3654 3532 3148 4420 4584 
5727 4636 4392 4422 5934 4276 5163 4751 5122 
4297 3791 3147 4257 4360 3933 4358 4894 3567 
4779 4782 5202 3349 3764 4318 4398 5394 5147 
5954 4675 4390 4818 4738 5772 4728 5312 4321 