# vtk DataFile Version 4.2
Generated by LIGGGHTS
ASCII
DATASET POLYDATA
POINTS 5999 float
-0.0183901 -0.0410033 0.00281399 0.00787153 -0.0442309 0.00396149 0.014186 -0.0418949 0.00389497 
0.00597675 -0.0393327 0.00386519 0.00303358 -0.0365826 0.00389403 0.0101336 -0.0391543 0.00383367 
0.0139517 -0.0374882 0.00395329 -0.0400356 -0.0203556 0.00309436 0.0166764 -0.027465 0.0036097 
0.0197914 -0.0202545 0.00389295 0.0241188 -0.0242074 0.00365839 -0.043772 -0.010167 0.00372989 
0.0268072 -0.0131011 0.00381919 0.022807 -0.0126627 0.00392407 0.0377401 -0.0167292 0.00393176 
0.0418726 -0.0162228 0.00305244 0.0347406 -0.00410208 0.00365484 0.0317413 -0.00679154 0.00392509 
0.0370932 -0.00808887 0.00390894 0.0377388 -0.00143145 0.00385661 0.0411996 -0.00354199 0.003402 
-0.0244519 0.00643148 0.00385722 0.0448709 0.00219476 0.00377219 0.0437563 0.0101596 0.00389845 
-0.0261107 0.0366292 0.0037278 -0.00934094 0.036776 0.00381155 -0.0119139 0.0432213 0.00380268 
0.000694456 0.0449708 0.00383063 -0.0148505 -0.0423623 0.0045495 -0.010947 -0.0436305 0.00430801 
-0.0198983 -0.0403141 0.00748529 -0.0163758 -0.0418699 0.00858959 -0.0125989 -0.0431563 0.00896587 
-0.0101526 -0.0401391 0.00801133 -0.0187863 -0.0408775 0.0116361 -0.0150113 -0.0423342 0.0125668 
-0.0112074 -0.0435904 0.0127516 -0.00703293 -0.0444486 0.00412599 -0.00310279 -0.0437374 0.00440395 
-0.00729423 -0.0406071 0.00521922 -0.00352621 -0.0404139 0.0066042 -0.00887271 -0.0441156 0.00777854 
-0.00488126 -0.0447289 0.00790953 -0.00647819 -0.0412213 0.00920589 -0.00132835 -0.0449567 0.00973343 
-0.00293204 -0.0415242 0.011064 -0.00743927 -0.0443671 0.0115245 -0.00886733 -0.040354 0.012449 
-0.00378957 -0.044849 0.0131608 0.000686377 -0.0449861 0.00404689 0.00408553 -0.0428689 0.00403135 
0.00120004 -0.0400951 0.00446276 0.00815351 -0.0410765 0.0069457 0.00396849 -0.040977 0.00758331 
3.32034e-05 -0.0416116 0.00799533 0.00628059 -0.0445581 0.00764225 0.00228843 -0.044911 0.0078004 
0.00642705 -0.0414335 0.0107214 0.00947447 -0.04399 0.010032 0.00425593 -0.0447395 0.0113463 
0.000980586 -0.0412322 0.011865 0.000643388 -0.0449875 0.0132195 0.0076851 -0.0443037 0.0137201 
0.0112056 -0.0435665 0.00607663 0.0164759 -0.0417696 0.00726094 0.0133132 -0.0429256 0.00942636 
0.0167369 -0.041756 0.0112529 0.0101759 -0.0400209 0.0103459 0.0199844 -0.0403124 0.00879048 
0.0119952 -0.0433464 0.0131839 -0.0312184 -0.0320506 0.00432888 -0.0325471 -0.0310622 0.00804908 
-0.0318267 -0.0317924 0.0121409 -0.0217553 -0.0392008 0.00408435 -0.024984 -0.0370257 0.00517264 
-0.0250764 -0.0331223 0.00425401 -0.0215667 -0.0351116 0.00422447 -0.0215604 -0.0311358 0.00472235 
-0.0285028 -0.034786 0.00550661 -0.0273781 -0.0312075 0.00692683 -0.0200865 -0.0363053 0.00776072 
-0.0235246 -0.0338148 0.00791546 -0.026687 -0.0362062 0.00880426 -0.0233269 -0.0384598 0.00869618 
-0.0297798 -0.0337062 0.0092832 -0.0261467 -0.0323459 0.0105742 -0.0222592 -0.0317964 0.0114337 
-0.02386 -0.0355044 0.0115464 -0.0282991 -0.0349435 0.0128207 -0.022231 -0.0390964 0.0126454 
-0.0282314 -0.0310351 0.0137515 -0.0181313 -0.0372064 0.00437036 -0.0117179 -0.0397042 0.00435609 
-0.014619 -0.0352057 0.00430377 -0.0180494 -0.0331635 0.00462224 -0.0145701 -0.0311877 0.00469761 
-0.0106308 -0.0317511 0.00427644 -0.0150806 -0.0387312 0.00646919 -0.0118114 -0.0364534 0.00690133 
-0.0124329 -0.0325926 0.00778432 -0.0164634 -0.0301226 0.00810943 -0.0198101 -0.0323216 0.00813678 
-0.0160879 -0.0340908 0.00848537 -0.0170261 -0.0376991 0.00993656 -0.0133821 -0.0394166 0.0103063 
-0.0127336 -0.0353233 0.0106986 -0.0141864 -0.0313627 0.0111663 -0.0181629 -0.0313759 0.0116585 
-0.0198886 -0.0350142 0.0116241 -0.0160805 -0.0346133 0.0127823 -0.0155517 -0.0385 0.013581 
-0.010417 -0.0368451 0.0135912 -0.0115941 -0.0328168 0.013858 -0.00666137 -0.03111 0.00423807 
-0.00872858 -0.0368963 0.00431616 -0.00267067 -0.0307671 0.00438384 -0.00173299 -0.0372601 0.00480335 
-0.00436334 -0.0342641 0.00536471 -0.00805257 -0.0338617 0.00686593 -0.00584215 -0.0372905 0.00754368 
-0.000679233 -0.030165 0.00783889 -0.00467487 -0.0306913 0.00785161 -0.00146979 -0.0340724 0.00854971 
-0.00237845 -0.0378718 0.00949222 -0.00908895 -0.0367304 0.00981874 -0.00563139 -0.0341442 0.0100486 
-0.00945437 -0.0327905 0.0104647 -0.00286742 -0.0315562 0.0113451 -0.00660244 -0.0301135 0.011378 
-0.0057457 -0.0379318 0.0116565 -0.00220255 -0.0383932 0.0134546 -0.00382969 -0.0347399 0.0135715 
-0.00773671 -0.0338898 0.0139152 0.00409004 -0.03268 0.00437339 0.00794814 -0.0315371 0.00447046 
0.00698418 -0.0354582 0.00411117 7.33249e-05 -0.0336941 0.004595 0.00518622 -0.0371685 0.00725638 
0.00927866 -0.0369518 0.00709367 0.00248088 -0.0339721 0.00782295 0.00338982 -0.0300654 0.00770845 
0.00124961 -0.0377956 0.00777095 0.0065392 -0.0334382 0.00800374 0.00110004 -0.0319134 0.0109657 
0.00562253 -0.0308067 0.0109457 0.00735516 -0.0367153 0.0106199 0.00372452 -0.0384858 0.010877 
0.00889399 -0.0330873 0.0113164 0.000333028 -0.0357788 0.0117178 0.00412898 -0.0344908 0.0114351 
0.0174767 -0.0394313 0.00406654 0.016385 -0.031442 0.00417744 0.0123796 -0.0310362 0.00433155 
0.0109736 -0.0347887 0.00416121 0.0175413 -0.0352738 0.00432862 0.0142498 -0.0340549 0.00634514 
0.0125325 -0.0397971 0.00704561 0.0184432 -0.0325451 0.00751945 0.0159678 -0.0377732 0.00739819 
0.0197178 -0.0363546 0.0075129 0.0103043 -0.0319294 0.00769446 0.0119778 -0.035071 0.00954257 
0.0159358 -0.0345509 0.00996614 0.0135014 -0.0313714 0.0100633 0.0138319 -0.0384059 0.0107563 
0.0178311 -0.0378878 0.011149 0.0173715 -0.0308635 0.0110055 0.0106622 -0.0368795 0.0128682 
0.0186367 -0.0343716 0.0129438 0.0134625 -0.0339942 0.0131153 0.0204136 -0.0313102 0.00426394 
0.0243312 -0.0322326 0.00433562 0.0216194 -0.035296 0.00397968 0.0281089 -0.0345621 0.00447125 
0.0250404 -0.0373375 0.00451283 0.0215249 -0.0394182 0.00472086 0.0279073 -0.0303212 0.00435191 
0.022889 -0.0302538 0.00750006 0.0231414 -0.0342745 0.00765259 0.0268095 -0.0361362 0.00792837 
0.0266202 -0.0320702 0.00806211 0.0234862 -0.0383545 0.00819623 0.0211027 -0.032239 0.0105127 
0.0288076 -0.0344464 0.0109724 0.0216532 -0.0361958 0.011043 0.0247788 -0.0336389 0.0112635 
0.0279838 -0.0306138 0.0118314 0.0207252 -0.0399221 0.0130835 0.0250017 -0.0372397 0.0130097 
0.0200402 -0.0303902 0.0139481 0.0310755 -0.032529 0.00632238 0.031699 -0.0317538 0.0102736 
0.0307593 -0.0328199 0.0141608 -0.0306284 -0.0250095 0.00404762 -0.0331096 -0.0284843 0.00412376 
-0.0364708 -0.0263006 0.00424404 -0.0332684 -0.0209273 0.00468323 -0.0369942 -0.0223883 0.00493 
-0.033755 -0.024432 0.00656241 -0.0309793 -0.027267 0.00739436 -0.0351447 -0.0280468 0.0076016 
-0.0395505 -0.0214064 0.00792382 -0.0374871 -0.0248546 0.00825134 -0.0354625 -0.0211846 0.00856343 
-0.0314725 -0.0217754 0.00853578 -0.0338685 -0.024278 0.0105588 -0.0328243 -0.0281347 0.0108614 
-0.0384814 -0.0232904 0.0118171 -0.035494 -0.0207329 0.0125584 -0.0316161 -0.0218105 0.0127719 
-0.0363149 -0.0265181 0.0128139 -0.0314246 -0.0260392 0.0140254 -0.0293176 -0.0212241 0.00413227 
-0.0253315 -0.0208334 0.00417786 -0.0215046 -0.0271538 0.0043123 -0.0289977 -0.028708 0.00422823 
-0.0220913 -0.0231821 0.00428055 -0.0256299 -0.0251321 0.00453915 -0.0250055 -0.0291039 0.00445163 
-0.0280416 -0.0234474 0.00725129 -0.0238112 -0.0298164 0.00820877 -0.0269138 -0.0272911 0.00771892 
-0.0231671 -0.0256613 0.00768777 -0.0243996 -0.0218627 0.00793712 -0.0201106 -0.028311 0.00789782 
-0.0291556 -0.02959 0.0101369 -0.0299169 -0.0249249 0.0104665 -0.0258654 -0.0245939 0.0104828 
-0.028173 -0.0213288 0.0107683 -0.0220686 -0.02341 0.0109406 -0.0223522 -0.0275162 0.0111396 
-0.024407 -0.0202351 0.0116161 -0.0277075 -0.0271466 0.0129632 -0.0211735 -0.0207268 0.01397 
-0.0245602 -0.0294447 0.0138707 -0.0244551 -0.0249995 0.0142313 -0.0282139 -0.023361 0.0142332 
-0.0205735 -0.0294475 0.0142043 -0.0204828 -0.0254517 0.0140175 -0.0188464 -0.0208091 0.00417968 
-0.0147239 -0.0268286 0.00434705 -0.0182654 -0.0248038 0.00431709 -0.0114668 -0.0244549 0.00432483 
-0.0151258 -0.0222994 0.00450455 -0.0180263 -0.0291322 0.00451619 -0.0112594 -0.0204377 0.00450532 
-0.0123366 -0.0286442 0.00703452 -0.0159451 -0.0248399 0.00760366 -0.0197665 -0.0229995 0.00755723 
-0.0126534 -0.0225639 0.00765255 -0.0105789 -0.0256179 0.00919829 -0.0144098 -0.027434 0.0102444 
-0.0186772 -0.0255655 0.0104422 -0.0184873 -0.0216207 0.0111074 -0.0108806 -0.0291097 0.0111373 
-0.0150477 -0.0236447 0.0113906 -0.0115627 -0.0216769 0.0114046 -0.0120062 -0.0257251 0.0129492 
-0.0170161 -0.0278692 0.013267 -0.00934607 -0.0279151 0.00438348 -0.00463973 -0.0237044 0.00441169 
-0.00724793 -0.0206425 0.00455007 -0.000667064 -0.0231678 0.00447168 -0.00151734 -0.0270692 0.00540976 
-0.0054991 -0.0274729 0.00545614 -0.00804602 -0.0241174 0.00647093 -0.00100771 -0.0208764 0.00773741 
-0.00856342 -0.029724 0.00790935 -0.00521468 -0.0211584 0.00831417 -0.00287624 -0.0243995 0.00807832 
-0.00917778 -0.0206297 0.00808412 -0.00628093 -0.0264438 0.00924827 -0.00262337 -0.0276935 0.0103348 
-0.00788093 -0.0231763 0.0109137 -0.00121289 -0.0202563 0.0116844 -0.00237406 -0.02407 0.012045 
-0.0051585 -0.0205682 0.0122747 -0.00812677 -0.0266979 0.012809 -0.000480708 -0.027195 0.0136786 
-0.00443407 -0.0277562 0.013927 0.00606027 -0.024816 0.00418766 0.00912736 -0.0274327 0.00406528 
0.00317889 -0.022058 0.00450845 0.00510379 -0.0287146 0.00430226 0.00222143 -0.0259442 0.00448404 
0.00125716 -0.0298313 0.00430687 0.0096972 -0.0237083 0.00543611 0.00628038 -0.0215864 0.00700253 
0.00743064 -0.0290393 0.00778439 0.00113362 -0.0242501 0.00799632 0.00460595 -0.0262312 0.0082062 
0.00997402 -0.0209418 0.00842866 0.00946888 -0.0250064 0.0092516 0.00137333 -0.0276231 0.010157 
0.00606584 -0.0233568 0.0105869 0.00232998 -0.0220227 0.0111004 0.0069387 -0.0271043 0.0116957 
0.00859811 -0.0207089 0.0122021 0.00346973 -0.0254534 0.0128186 0.00287939 -0.0293588 0.0134789 
0.0131691 -0.0256595 0.00436167 0.0127926 -0.0214091 0.00428709 0.0165647 -0.0227086 0.00399901 
[...]
POINT_DATA 5999
FIELD FieldData 7
id 1 5999 int
544 1092 307 408 476 203 246 1316 114 
396 310 861 117 848 962 86 73 410 
393 421 1032 766 320 159 705 1134 475 
111 514 482 477 215 124 414 474 532 
780 144 333 828 27 454 161 625 218 
866 40 1461 328 856 1037 589 877 250 
18 455 122 885 1119 1323 67 995 1765 
901 495 430 1350 907 1792 531 1045 19 
1213 862 924 120 97 520 598 1044 271 
505 680 1171 100 1270 390 1098 1477 282 
997 52 107 135 145 379 228 551 450 
407 1506 153 1328 1575 1164 1828 1995 1620 
647 1861 795 1299 566 263 53 1095 158 
426 257 242 515 194 209 10 1286 981 
1650 452 1289 1834 1589 65 1846 501 706 
336 1008 138 773 596 400 185 83 892 
1232 233 1446 665 2165 772 230 992 364 
41 404 777 567 338 109 47 1033 391 
1067 1632 696 707 1580 1471 852 1677 608 
46 247 760 245 690 397 1176 1358 605 
1387 968 1284 1608 1434 147 449 1850 1543 
1365 154 340 1485 115 966 557 274 440 
512 285 1280 675 580 764 443 750 1188 
1013 323 889 2027 662 1019 344 378 434 
816 623 874 33 200 1005 713 94 119 
254 1162 488 183 198 548 1563 574 493 
1416 279 1017 2300 1785 294 669 946 11 
724 63 502 302 49 402 1476 55 1043 
953 1639 1463 2042 1836 744 2067 704 546 
1015 174 424 199 1166 1418 464 1640 1028 
711 818 1331 1242 1647 1023 1605 1059 2292 
905 469 365 504 952 684 776 758 371 
633 1676 1285 2221 1754 1179 534 2285 1789 
1855 1159 1944 276 149 8 844 918 641 
392 102 937 943 1697 1862 1074 1406 1042 
1217 1609 938 1274 2109 1550 614 876 630 
112 54 1036 858 1412 248 2136 442 1330 
1191 1491 785 69 872 1468 2296 1182 516 
210 509 401 350 528 382 267 1114 90 
779 22 689 617 643 518 652 471 800 
1047 1652 423 739 136 413 249 921 1327 
1678 1178 1829 437 349 787 348 1107 659 
57 223 525 803 703 741 639 824 1064 
1389 1113 578 1398 319 961 1265 1592 131 
360 281 550 650 68 125 533 1325 243 
668 854 1407 1683 963 977 1345 2129 1561 
1844 655 311 664 84 374 345 487 674 
1623 1208 1722 1055 697 7 1672 1448 9 
2047 832 1594 1749 296 429 99 113 42 
815 190 951 201 808 964 403 747 990 
986 179 1525 888 1201 1555 1597 616 66 
1126 168 205 293 1338 38 980 718 1152 
1482 994 1404 1174 1012 2128 1684 1644 1572 
1240 1753 1144 1494 317 875 353 1185 622 
833 1177 1497 1710 726 270 1377 1913 1960 
1628 1852 2312 39 1077 256 1083 635 291 
1288 859 1508 819 1931 1383 240 987 1369 
1199 1223 1630 611 461 1035 231 788 523 
123 679 1775 43 927 658 1132 1319 834 
1243 2278 1767 1347 1417 1811 142 314 590 
1180 754 1276 252 805 372 1214 1262 853 
1057 1355 692 139 1372 2328 1324 1222 749 
506 653 2205 1503 802 686 417 92 1584 
1123 399 1212 562 1961 1679 1118 898 1196 
1329 1385 985 1860 25 163 1096 20 783 
126 72 1537 1359 1772 1233 1830 826 202 
613 767 881 1500 978 318 1071 731 447 
485 354 906 1333 619 884 496 1443 1231 
1310 1235 1429 1548 2307 1472 694 1317 581 
175 221 821 58 584 612 1101 1133 545 
727 278 1130 1295 1618 376 1622 508 1099 
1822 1081 1536 1374 1105 931 903 342 445 
543 500 1586 831 1140 1509 2104 869 575 
1003 491 1839 1091 1356 1263 2021 489 427 
627 441 1481 1486 1027 710 1088 1569 1876 
830 1728 695 1366 1030 1964 1125 479 1529 
483 2038 967 784 322 1142 900 1692 855 
537 1674 1202 1281 1845 1181 1444 893 1967 
1279 812 1492 1161 935 896 389 933 1120 
1100 1145 1060 1886 1982 1493 1702 1399 1925 
2346 959 1332 458 48 108 842 751 137 
1945 1041 1914 1517 1391 1577 1935 241 367 
914 418 1151 693 796 1011 870 1557 894 
1948 1006 879 2043 134 604 1014 292 105 
1009 1334 24 615 511 1228 756 222 873 
1221 1038 1353 835 1122 1719 558 781 12 
813 857 224 755 742 1351 775 610 890 
654 1744 982 1111 1225 983 941 110 1842 
1357 585 1269 16 5 463 23 971 330 
607 702 369 920 499 1131 1567 1522 1928 
794 1362 2362 2001 1158 2139 1804 1435 998 
1254 1128 77 352 594 462 1512 667 677 
682 1871 2018 947 843 1907 237 743 1975 
1615 1460 229 206 346 1277 78 563 845 
840 526 1395 280 1300 300 355 1226 878 
942 1480 838 728 717 1455 1260 1720 170 
886 763 1106 273 193 1168 370 678 1238 
309 587 1428 792 1320 1148 570 1305 381 
606 305 498 375 384 734 560 517 127 
297 719 189 362 1054 188 565 431 1089 
148 1707 555 934 1478 81 432 286 956 
171 730 975 527 368 1010 1487 1796 1831 
1139 993 723 1445 253 128 712 473 377 
564 1426 984 1778 503 1112 1977 1812 88 
380 1197 1080 1149 1450 1301 1673 1104 673 
155 1073 313 1613 341 295 1516 101 919 
1294 1439 1576 922 2248 632 232 817 366 
1370 2176 2237 182 586 847 745 1066 716 
265 239 1523 1018 867 1090 167 1052 1078 
2279 2319 2242 789 1312 1553 1499 1024 535 
387 915 214 657 949 827 303 988 419 
32 588 778 1344 1255 1884 700 1936 1826 
1870 1714 592 394 836 165 244 298 331 
1086 1193 572 70 1490 29 1430 1335 737 
1879 1972 459 733 334 436 287 519 868 
691 1237 301 36 1020 746 1153 676 420 
2114 453 911 2452 1154 631 640 191 260 
721 996 64 326 216 541 1150 180 974 
1085 1311 979 930 484 164 809 315 87 
1402 1535 98 579 671 80 79 225 283 
646 186 955 130 709 958 609 648 1976 
1682 940 1021 192 708 910 356 3 1040 
266 576 337 480 626 448 765 238 1321 
561 554 1069 1271 405 887 150 74 1236 
944 524 75 1583 50 1400 1384 481 1207 
1297 522 361 1124 103 197 347 316 656 
849 573 51 2 13 740 1532 60 1566 
620 1984 288 954 104 21 1016 1097 212 
412 923 891 1022 600 688 1135 1459 841 
1604 435 559 1560 2010 2225 2446 2318 1072 
736 1220 146 660 472 93 357 771 1346 
439 925 1343 1349 1617 1449 1726 790 1257 
71 1373 715 556 91 839 880 425 62 
1442 258 1004 603 1394 1819 1001 1897 774 
2406 325 1367 1102 2051 521 76 160 290 
121 152 926 1248 1246 791 957 683 793 
618 1309 1156 284 1540 681 644 1510 1934 
628 332 28 569 406 386 599 35 272 
277 251 725 1436 373 685 846 698 1625 
1859 416 2158 960 456 177 1103 235 478 
1611 929 312 748 1227 1670 738 820 638 
583 547 1695 965 752 1582 2035 116 428 
226 1368 227 799 95 329 976 1205 571 
850 85 34 1273 804 1267 1752 363 991 
928 1655 151 1899 1084 220 582 1053 1136 
306 61 383 1165 1296 1875 169 2460 1764 
1873 1388 468 1867 255 96 851 304 513 
388 1725 339 275 798 14 1287 196 624 
2055 1172 1534 2764 308 89 118 409 629 
1703 133 204 1745 1298 1571 2007 1641 1160 
1868 1410 1475 2049 1303 4 1484 181 259 
642 299 264 973 166 1068 811 649 591 
184 1000 2146 486 1167 538 1631 261 1514 
1195 917 140 1117 529 15 6 636 45 
321 438 324 666 30 1504 829 1108 490 
645 1651 1542 759 1591 1724 651 173 289 
213 769 916 507 433 195 143 415 59 
157 1249 577 801 466 1336 1713 327 786 
1307 129 1025 1173 999 234 593 1147 899 
141 497 207 904 132 1290 552 729 510 
56 269 1495 762 156 701 395 530 422 
451 1209 621 542 1816 1390 1980 2081 1922 
217 268 1489 343 446 1189 768 1570 1143 
162 909 1790 735 2690 1717 2680 2122 882 
2618 1 913 602 1245 3284 2196 2641 2046 
601 2257 2100 3086 3465 178 26 864 1386 
2289 1638 1259 1598 3160 2633 2845 3808 3564 
1906 2254 2720 2686 3464 1433 2195 2508 1392 
969 797 1194 2073 1957 1564 1869 699 782 
2303 2247 1581 2847 2102 2250 2963 1326 2364 
1079 2621 2464 1547 1649 2275 1856 2245 1603 
2987 3013 1783 2421 2526 2417 1661 2208 1774 
1602 1882 1690 1705 219 2527 2157 2612 2121 
1590 2106 1681 2084 1626 2840 2098 2968 883 
1999 1498 1878 1718 2031 457 1175 1488 1420 
2003 2825 1146 1411 2351 2383 1800 2959 2833 
2975 1688 1519 1614 1533 2472 2455 2187 2624 
2684 2418 2378 3174 2953 1421 1251 1169 1258 
1981 2295 3008 2377 2075 2355 2932 2517 2606 
2545 3215 3734 2332 2338 1756 2735 1187 411 
1341 1186 2416 1058 687 1952 2044 1278 1937 
465 2560 2611 2349 2689 2538 1802 2675 2135 
1275 2143 1949 1733 1771 2391 2646 1382 2314 
1746 2493 1991 2601 2041 1458 3193 1026 2781 
2347 2145 1633 1470 2185 1779 3348 2869 2008 
2613 2746 3425 3411 3391 1843 1734 1768 1943 
1538 2150 1437 1696 2427 2305 2009 1253 1619 
2291 2812 2767 2396 3297 3027 3303 1283 2065 
2092 1210 1883 2191 1654 1908 970 2470 3082 
2661 2532 2510 1983 1376 1727 1414 2276 2183 
2368 2120 1170 1691 2345 1919 1483 1456 1405 
1953 1686 2511 2015 1978 2765 2522 2468 2111 
3079 2048 2161 1780 1659 540 2408 1699 1693 
2562 1989 2964 1716 3175 1224 2423 2515 2415 
2280 902 1962 2053 1958 1403 1954 37 2013 
2329 2173 2298 2181 2943 3024 3124 2105 1737 
2776 1093 1607 2271 1378 2429 2859 2228 1680 
2004 1184 2743 1968 1858 2667 2061 2886 1065 
1887 1773 722 2491 2385 2359 1700 3252 2576 
106 1354 1955 2066 2557 1848 2430 2779 2226 
2057 2142 2282 2177 3156 2151 2816 2668 2708 
2363 3375 2387 2209 2113 1687 2304 1562 2714 
1794 2728 1662 3173 2794 2399 1917 3094 2103 
2674 2457 3072 2093 1587 1595 2490 1814 1881 
807 1408 1636 2190 1988 2916 2944 2182 2870 
3040 1701 1076 1061 211 1979 1203 1966 1070 
939 1671 1668 2600 2050 1264 2804 2333 1840 
1413 1183 1272 2091 1141 1763 2594 1824 2549 
2666 2671 2409 2520 2846 3158 2687 2432 1256 
1552 806 2277 1308 2301 2652 1087 2317 2179 
2440 2071 2745 2420 1965 2005 1987 1685 2426 
1642 2565 1663 1219 1198 2361 2709 2370 2322 
1531 1293 1863 1905 1658 2116 1803 3063 2083 
2579 2202 1397 1893 2366 1730 2665 1539 1924 
2935 3339 1896 1250 1505 1215 1835 1759 1776 
2774 2163 2141 2688 1969 2773 3258 2206 2082 
2373 3029 2482 1890 2014 2194 1318 863 1268 
2348 2548 1902 2796 1793 2712 1723 2861 1431 
1807 2875 3455 2772 2251 3039 2299 1109 1127 
1315 1643 1363 1396 2006 1993 1736 1200 1452 
1815 1568 1994 1877 2207 2989 661 1380 351 
1513 1155 2478 1507 2172 2577 1704 2392 1558 
2786 2521 1051 2950 2849 1479 1340 1588 2297 
1888 1216 1927 1454 2531 1637 2112 2130 2326 
2595 2737 2820 3012 2573 2676 2863 1809 1425 
1049 865 1634 1838 1206 2449 2607 1694 2215 
2603 2357 1786 2978 1545 3003 3189 2210 1348 
714 2159 2240 1094 1447 2256 1833 1920 2118 
2699 2193 2192 1921 1629 2395 753 1832 2086 
1732 2584 1660 1689 1941 1900 2220 3257 2798 
1901 1573 1137 536 172 1813 2466 1653 2422 
2770 2940 1624 2451 2036 1616 2290 1805 3499 
1735 2939 1946 3149 3278 3506 1002 2200 2037 
2052 860 1440 1769 2488 2453 2024 2537 1502 
2232 2441 1885 1762 1990 2068 2473 1938 2827 
2677 3246 2572 2899 1252 1496 2379 1992 2258 
1808 2154 2762 871 2026 2079 2077 2439 2424 
2752 2070 2647 2222 2504 2325 1361 1821 2425 
2140 1600 2716 2546 945 2356 1729 1739 1909 
1585 1825 2564 2476 3574 1787 1342 1541 2335 
2589 2458 1599 1292 2094 2830 2630 2132 2657 
2217 2164 2969 2844 3112 1518 761 1895 1750 
1593 1521 1578 1466 1229 2124 2095 1432 2500 
1851 1646 1820 2887 1039 2404 1930 2649 2865 
2724 1381 1046 814 1129 770 549 1501 1304 
1360 1648 1549 2636 2503 1798 1956 2442 2725 
3196 2218 31 1063 1306 1031 2264 2074 2400 
1244 1911 2459 1515 1933 1738 2638 1621 1915 
2682 2316 3054 3251 1291 187 757 2072 1528 
1761 1810 1138 1797 2994 2651 2269 2431 2445 
1874 2462 2017 2985 2934 1940 2852 2615 2260 
1675 1910 1352 1007 2414 2839 1526 2529 2701 
3053 2799 1706 2342 1409 2587 3050 2413 2789 
3700 2890 2398 2034 1556 1997 1419 1998 672 
2367 2123 2386 2178 3047 2902 2923 2352 2214 
2274 1731 2436 1947 1462 1337 1339 2133 1574 
2012 1218 2238 1740 2759 1465 2199 1892 1204 
2543 1546 1721 1664 1314 82 1766 1747 2108 
1898 2658 950 2167 2287 2447 3105 1451 1799 
2213 2201 2016 2608 568 822 932 553 1743 
1302 1241 1415 1970 2324 2336 2702 2888 2230 
2029 2492 236 1894 3398 2115 2148 1469 1082 
2156 1190 1075 1880 2340 2924 2456 2175 2321 
2751 1872 2288 3277 2625 358 1230 1115 2375 
810 539 1559 1511 1666 1457 2076 2186 1527 
1709 2281 2982 2654 2261 1056 1963 1441 2020 
2768 2019 2700 1524 1110 1247 1029 1379 2152 
1849 1827 2598 2212 1192 1234 1427 1635 2898 
1742 2495 2744 3138 2134 2750 2223 2660 1665 
1748 1656 2622 2265 2626 2592 2174 2331 1818 
2602 2376 2578 3980 1048 1551 2119 2160 2283 
2837 2259 3031 1853 1939 2900 2547 2810 3232 
3234 3307 2691 3280 3712 2841 470 2910 948 
2155 2101 2022 1801 1596 2310 3045 2397 2502 
3017 1864 3287 3274 3225 2184 2244 2729 2496 
1971 1669 2039 1841 2203 2583 634 2559 3010 
2063 2089 2494 2561 2078 2727 3153 2644 3301 
2090 2272 444 2040 1375 1698 1712 1912 2711 
1473 2590 2580 2936 2822 3202 2087 2390 2882 
2703 1424 1467 2219 1163 1565 637 2410 1393 
2000 2054 1322 897 1601 2957 2784 2360 3371 
2627 3145 2748 3116 3818 1423 1261 17 2198 
972 494 1121 2138 460 1757 1544 2188 2903 
2988 3270 2401 1784 2080 3292 1959 2380 2766 
1116 2629 2243 2032 2064 2956 1715 1474 2394 
262 2670 2948 2170 3372 2706 2631 2171 1755 
2030 1923 1760 1612 2434 2234 2236 1791 2033 
2513 2942 2872 3400 2270 2593 2563 2023 1795 
2127 2284 2403 2211 1788 2197 2180 2099 2411 
2575 2586 2350 3201 3171 597 1401 2474 1758 
2813 1903 2992 1926 1034 3004 2758 3442 1610 
176 1645 1627 1453 1050 823 2497 1891 1313 
2302 1770 2229 2369 2692 3561 3341 2255 3435 
359 1579 989 2110 1708 1422 1282 825 2147 
2523 2235 2412 2778 2909 2585 3406 2144 3401 
1554 2381 2060 1932 908 1530 1266 2372 2126 
2501 3172 3738 670 1364 1239 1062 2542 1951 
1973 2002 2856 1837 2937 3120 2530 2574 1823 
2384 2327 1657 1211 2569 3162 2970 3176 3487 
3089 2514 335 2056 2131 2843 2554 2775 2518 
2866 2771 3718 3580 2999 2528 2911 2938 3002 
2069 3106 2685 3493 2879 3288 2742 3282 2713 
3155 3025 3142 3955 3289 3722 3713 3446 3279 
2718 3792 1777 1996 3703 4216 2507 3056 3958 
3800 2918 2801 3331 3902 2977 2512 2341 492 
2588 3540 3471 3235 2623 3822 3255 3845 3639 
2864 4129 4060 2634 4618 2862 3098 3529 2851 
2262 3319 2096 3677 2308 2783 2891 3032 3790 
3077 4149 3148 3413 2433 3636 2958 4100 3362 
3707 2435 3844 3334 3194 3723 3405 3302 3632 
3523 3195 3060 2761 2506 3033 3256 3099 2487 
3315 3682 4002 3361 3472 2371 3433 3913 3831 
3763 3618 4326 2448 3271 3095 3207 3378 2930 
3761 3165 3152 4248 3766 3967 3379 4066 3735 
4416 4642 2871 3187 3650 2855 4051 2499 2747 
2467 2616 3768 3350 4439 3623 3894 4211 3675 
2967 4415 2809 3311 2553 1865 2443 2669 2339 
2568 2533 2877 1950 2596 3048 3500 3437 3578 
3708 3811 3868 2645 2556 2330 3469 2239 3125 
2597 3313 4647 3847 2740 3067 2189 4200 4279 
2973 3478 4170 3851 3111 2929 3037 4255 2834 
4389 3833 3662 3450 2946 4637 4813 2516 2795 
3122 3492 2498 3221 3920 2966 3325 2904 3449 
2821 2721 4000 3052 4480 3512 3516 4007 2486 
2673 3539 3286 2505 3360 3346 3041 2628 2438 
3186 4056 3676 2832 3983 4521 4946 4705 3527 
2402 1866 3249 2824 2739 3553 2808 3078 2088 
3522 3599 2842 2907 3898 2717 3103 3188 3794 
3907 3412 4317 3015 3699 2848 2659 3028 3721 
2365 3572 3769 3590 3751 3226 3353 2648 3806 
3714 4198 5425 3347 2025 2450 1711 1817 2216 
3828 2896 3199 3365 4113 3096 2769 3370 3534 
4559 4068 3298 2656 2639 3451 2610 3238 3789 
2867 3743 3774 3556 4086 2806 2389 2829 2805 
2231 2268 3799 3537 3477 3615 3476 3826 3753 
3482 3409 3642 4065 3754 2483 3247 2858 2880 
2983 3614 3345 3309 3000 3462 3169 3260 3813 
3594 3415 3317 3518 4403 1781 3338 2581 3005 
2477 2168 2696 3388 2354 3651 3931 3166 4504 
3101 3634 3468 1942 3180 2694 2693 2838 2788 
2984 2857 2927 3020 3344 4259 3829 3624 4019 
3773 3681 3672 1889 2736 2540 3772 3679 3143 
3418 3183 3457 3848 3402 3306 3974 4134 3640 
3987 3323 3211 3690 2534 2519 3208 2461 3090 
3616 2895 3979 3695 3244 2698 3259 4232 3730 
3897 4525 4291 4387 3336 3924 2732 3542 3508 
2241 1741 2954 3825 3504 2726 4253 3705 4120 
3849 3011 3861 3167 2757 3181 3557 2860 3706 
3392 4281 3092 4545 3185 2286 3227 2558 2850 
3655 1667 3368 3445 3881 2544 4075 3611 3921 
4699 3571 4590 2664 2787 3250 3620 1916 3548 
3001 4089 2995 3100 3427 4306 3649 4133 4597 
2444 3892 1806 3150 3140 3466 3746 4154 3157 
3222 3973 3422 4103 4084 2678 2407 2922 2897 
3890 2915 3767 2894 3563 3237 2993 3136 3236 
3399 3926 3191 4099 3652 3453 2263 2704 2741 
2484 2541 2683 2819 3927 3748 3952 4125 2823 
3108 3214 2323 2536 2309 2481 3326 3327 2567 
3941 3545 3163 2998 2617 2914 3229 3638 2707 
3685 3644 4262 2405 2059 2125 1985 3129 2204 
2986 3066 2293 3428 3272 3107 3109 3030 3837 
3424 3613 3127 4506 2885 3569 2614 3097 3948 
3075 2947 2571 3925 4237 3810 3550 3484 4295 
4570 2749 2343 2835 2539 3333 3498 2972 4454 
3393 3408 4112 3356 3622 3744 4315 2814 2881 
3363 3316 3858 2780 3935 3762 3431 4335 3588 
3891 3633 2951 3757 3981 3877 3568 4233 4069 
3324 4394 4207 4465 4617 2883 3387 3694 3023 
3692 3864 3061 3936 4402 3121 2169 2941 2344 
2912 3530 3007 2653 2928 3819 3230 3243 3558 
2306 2722 3665 3855 4128 2632 2828 3016 2733 
3470 3084 2358 2756 3022 3663 4217 2760 3946 
4114 3179 3071 3308 2738 2465 2393 2570 2642 
2552 2991 2971 3161 2599 3796 2807 2965 3197 
3205 4024 3867 2854 2313 3009 1857 2990 3351 
2337 2320 3617 2815 2920 2997 3501 4020 3619 
3680 3128 2249 3485 2382 2620 2524 2931 3602 
3135 3668 2817 2893 2926 2334 3601 3544 3198 
3130 4176 4083 2802 3273 3439 2919 2797 3486 
3164 3305 4365 3673 4165 3117 3018 4531 4899 
3608 2253 3312 3666 3582 3795 3146 3088 4053 
2011 3505 2763 3842 3177 2906 3560 3006 3390 
3085 2604 2374 2785 3429 3014 3874 3552 2643 
4081 3479 4203 3686 3850 4062 3513 2471 3489 
3448 3480 3093 3300 3702 3239 4309 4137 3775 
3359 2960 3110 3575 4614 4479 2273 3373 3337 
2697 3213 3087 2803 3827 3945 4193 3991 4077 
3950 3816 4472 3749 3805 4018 4811 4311 2480 
3395 4116 4097 2826 3719 4736 3159 3779 4102 
2162 2961 2908 2535 3403 4017 3123 3871 2792 
3419 3835 3777 2428 3653 3720 3383 3245 3541 
3593 3643 2137 3463 1918 2753 2555 1854 2609 
2723 1974 3491 2463 3295 4187 4163 3233 3343 
3043 3304 2045 2730 3756 2233 3494 2925 3314 
3329 3299 2889 3975 4425 3262 4201 3661 3019 
4256 4589 2655 2933 2153 1847 2679 2437 3741 
3760 3074 1904 3394 3352 2353 3832 3533 4486 
4288 4320 3420 3432 2962 2227 2705 3151 3182 
3068 2224 2754 3904 3070 2605 2734 2681 3178 
3785 3900 2853 3660 4058 4215 3554 3223 3042 
3133 4146 3999 2315 2097 2715 3170 2672 3546 
2731 3737 3318 2800 3732 4250 4174 4252 4219 
4591 3865 3965 3846 2525 2469 3733 4228 3190 
2635 3803 3224 4108 3296 3627 3930 3716 3968 
3629 3051 3876 4152 2981 4047 2062 3893 2952 
3745 3065 2619 3559 2917 3626 3036 3793 3407 
2550 3878 4157 3962 3219 3358 3330 3369 3436 
3836 2551 4041 3969 3354 3597 3697 3917 3291 
3782 3064 4131 2884 2949 2311 2650 3267 2874 
2485 3091 3929 3216 4078 2719 3688 2246 2475 
3367 3248 3736 3269 3901 3240 4107 3531 4055 
3916 3021 4192 3340 2591 2663 2831 3212 3397 
2388 2892 3119 3704 3290 3787 3519 3141 3389 
3217 3382 3515 2876 3603 3671 2107 2945 3114 
3747 2582 3034 3507 3495 2913 3154 3454 3421 
3132 4391 3691 3802 3460 2294 3293 3081 3939 
3937 3357 3059 3562 2791 3069 3521 4505 3321 
3798 3535 4336 4044 3566 4602 4274 3266 3073 
3895 3263 3565 4035 4194 3517 3342 3355 4578 
3430 3322 4300 4023 4135 3752 3684 3646 3683 
2489 4096 3049 3192 4118 2905 4316 4009 4212 
3635 4801 2085 2793 3444 1520 2811 3467 3823 
3843 3934 4087 4459 3080 3503 2878 3203 3664 
3942 4292 4305 3268 2058 2637 3396 3115 2479 
3884 3026 2028 4091 4346 3076 3709 4043 3543 
2662 3386 3038 2266 3285 3912 2695 3701 3885 
4275 3591 3783 3410 3320 3759 3606 4500 4426 
4223 3254 3583 4314 3511 3538 3525 3641 3581 
3573 3310 3964 4119 4657 4264 2868 3630 3046 
4455 3807 4526 5330 3509 3657 3532 5136 4584 
2836 3804 3834 4039 3118 3335 4788 4166 4464 
3961 4738 4734 4267 4973 6043 5919 5177 4147 
4497 3972 4124 3404 3862 3758 4367 4168 4098 
4709 4433 5972 4510 4151 3440 3058 4422 3778 
3654 3276 4358 4392 5006 6024 4636 5163 4276 
5520 5237 5934 5727 5758 5234 3985 3727 3547 
3670 3764 4139 3977 4475 4257 4360 3147 4894 
3933 3567 5578 5978 2955 4388 4310 3349 4286 
4390 4398 4318 5017 5312 5394 4733 5570 4270 
4072 4918 5772 4818 4321 4954 5159 4285 4640 
4509 5190 5773 5852 4939 3711 3083 4375 5535 
4038 4027 4609 5349 4539 4997 5137 5329 3875 
5646 4661 5781 5262 3717 3883 4456 4451 4395 
4536 3919 5032 4424 4054 4771 5246 4251 4421 
5911 5526 3607 4188 4460 5621 4418 5523 4241 
4580 5832 5635 5490 3715 4371 4420 4169 4664 
4463 5082 4550 5157 5409 3918 5354 4357 5468 
4626 3993 4632 3264 4284 4496 4567 4543 5340 
4520 4225 3947 3906 4581 4779 5432 4775 4361 
4366 4136 4797 4993 4619 4563 4354 5360 4537 
5364 6002 4809 5414 4706 5797 5390 5843 2980 
3771 4093 3990 4648 4150 4838 4707 4777 4123 
4449 5155 5734 5868 5973 5667 4161 4202 4003 
4519 3853 4290 4783 4453 4680 4667 4654 5582 
5180 4916 3797 5272 2976 2777 4012 3674 5112 
3995 3923 5126 4696 4410 3528 4240 3943 5228 
5451 5056 4891 4646 4001 4957 4071 5946 5994 