# vtk DataFile Version 4.2
Generated by LIGGGHTS
ASCII
DATASET POLYDATA
POINTS 5999 float
-0.0178817 -0.0412986 0.00399968 -0.0141153 -0.0426416 0.00401267 -0.0101212 -0.0428328 0.00402451 
-0.00650341 -0.0445355 0.00399881 -0.00252771 -0.0441182 0.00399972 -0.00676876 -0.0405468 0.00400006 
-0.00297601 -0.040342 0.00525367 0.00876875 -0.0441207 0.00399821 0.00137887 -0.0449655 0.00403218 
0.00490747 -0.0430873 0.00399986 0.00202454 -0.0403161 0.00399857 0.0148915 -0.0420943 0.00399888 
-0.0305767 -0.0329615 0.00400249 -0.0248964 -0.0374625 0.00399864 -0.0214324 -0.0394598 0.004007 
-0.0214912 -0.0311706 0.00399963 -0.0215433 -0.0352544 0.00399954 -0.0249714 -0.0331392 0.00399922 
-0.0145512 -0.0351382 0.00399911 -0.0179859 -0.0372917 0.00399812 -0.0142509 -0.0311312 0.00399825 
-0.0180777 -0.0332532 0.00400514 -0.0119087 -0.0392553 0.0039993 -0.0107295 -0.0330441 0.00400192 
-0.00860756 -0.0369974 0.00399722 -0.00627122 -0.0311164 0.00399927 -0.0023148 -0.0304178 0.00400275 
-0.000670106 -0.0373236 0.00400025 -0.00361781 -0.0342577 0.00401388 0.00723391 -0.0354305 0.00399974 
0.00622035 -0.03931 0.0039983 0.00841002 -0.0316065 0.00400164 0.00324354 -0.0364976 0.00400269 
0.00439223 -0.0326158 0.00400003 0.000308514 -0.033444 0.00400063 0.0103076 -0.0396 0.00399934 
0.0142908 -0.036993 0.00399962 0.018502 -0.0389393 0.00399909 0.016827 -0.0311058 0.00399938 
0.0111324 -0.0345374 0.00399949 0.0177995 -0.0349952 0.00402058 0.0127281 -0.0305369 0.00400296 
0.0256923 -0.0365768 0.00399965 0.0219382 -0.0350256 0.00399864 0.0288937 -0.0341764 0.00400008 
0.0211024 -0.0310654 0.00400024 0.022501 -0.0389876 0.00399956 0.0251296 -0.0326164 0.00406228 
0.0283213 -0.0302082 0.00399861 0.0319049 -0.0317143 0.00494079 -0.0399049 -0.0208267 0.00399931 
-0.0334028 -0.0299904 0.00401743 -0.032692 -0.0218132 0.00399949 -0.0365216 -0.0229856 0.00400499 
-0.036015 -0.0269548 0.00402898 -0.030192 -0.025341 0.00399928 -0.0291473 -0.029201 0.00399935 
-0.0216529 -0.0271754 0.00399797 -0.0284117 -0.0217602 0.00399798 -0.0257261 -0.0251513 0.00407164 
-0.0251453 -0.0291323 0.00400011 -0.0222257 -0.0232173 0.00400104 -0.0247591 -0.020123 0.00399935 
-0.0180076 -0.0292055 0.0039997 -0.0187397 -0.0212504 0.00399929 -0.0143163 -0.0263647 0.00401642 
-0.0181702 -0.0252091 0.00399966 -0.0147429 -0.0218243 0.0040019 -0.0110187 -0.0203226 0.00411387 
-0.0103933 -0.0243029 0.00399866 -0.00388457 -0.0237074 0.00399935 -0.00874721 -0.0279473 0.00399857 
-0.00108385 -0.0265737 0.00400318 -0.0070609 -0.0210323 0.00400535 -0.00487708 -0.0274767 0.00489018 
-8.2417e-06 -0.0227218 0.00399953 0.00392694 -0.0220076 0.00399929 0.00557048 -0.0287894 0.00399819 
0.00672841 -0.0248621 0.0039985 0.00285039 -0.0258588 0.00399925 0.00167213 -0.0296823 0.00399903 
0.0095002 -0.0277548 0.00400208 0.0142614 -0.0249235 0.00399918 0.0175669 -0.0271754 0.00399867 
0.0170966 -0.0221035 0.00402995 0.0132691 -0.0209447 0.00399961 0.0105039 -0.0237471 0.00470191 
0.0204023 -0.0243553 0.00399908 0.024393 -0.0237399 0.00399983 0.0229229 -0.027461 0.00399879 
0.0277597 -0.0210824 0.00400238 0.0267362 -0.0267445 0.00521835 0.0303494 -0.0241324 0.00407581 
0.038172 -0.0236764 0.00399811 0.0358547 -0.0270032 0.00404275 0.0318909 -0.0278242 0.00400351 
0.0342243 -0.0229167 0.00399958 -0.0432222 -0.0108319 0.00399849 -0.0423186 -0.0152092 0.00450846 
-0.0386871 -0.0170176 0.00399913 -0.0318703 -0.014619 0.00399892 -0.0305939 -0.0184088 0.00404108 
-0.0358478 -0.014202 0.00399947 -0.0349863 -0.0185353 0.0039998 -0.0394405 -0.0124393 0.0040008 
-0.033513 -0.0109549 0.00400045 -0.0245182 -0.0106656 0.0039997 -0.0279968 -0.0129651 0.00399973 
-0.0235519 -0.0147344 0.00399966 -0.02695 -0.0168028 0.00441078 -0.0212773 -0.0181654 0.00420868 
-0.0123121 -0.0164975 0.00399779 -0.0120616 -0.0124999 0.00399847 -0.0195561 -0.0145612 0.00399935 
-0.0163868 -0.0179286 0.00399966 -0.0184543 -0.0107164 0.0039999 -0.0156603 -0.0140697 0.00475917 
-0.00280061 -0.019859 0.0039991 -0.00452453 -0.0133354 0.00399893 -0.00710674 -0.0102828 0.00399962 
-0.00158797 -0.0160495 0.00399934 -0.00843304 -0.0141795 0.00399955 -0.00582904 -0.0172162 0.00400471 
0.00516507 -0.0182056 0.00399862 0.00933459 -0.0152496 0.00399927 0.00241809 -0.0127773 0.00399979 
0.00590716 -0.0108241 0.00399887 0.00965302 -0.0192362 0.00399956 0.0012287 -0.018918 0.00399967 
0.0172152 -0.0133552 0.00399877 0.012631 -0.0129681 0.00400082 0.0129673 -0.0169545 0.00400004 
0.0169281 -0.0173718 0.00437206 0.0202226 -0.0196104 0.00399819 0.0278285 -0.0131028 0.00399941 
0.0205101 -0.0156216 0.0040043 0.0221971 -0.011947 0.00399905 0.0280828 -0.0170945 0.00399925 
0.0244986 -0.0153192 0.00399985 0.024197 -0.0192932 0.00435784 0.0368591 -0.0198977 0.00400242 
0.0317584 -0.0196421 0.00406191 0.0314124 -0.0148784 0.00399952 0.0351178 -0.0133414 0.00399966 
0.0393991 -0.0121161 0.00426766 0.0380921 -0.0160215 0.00405415 0.0324835 -0.0105995 0.00524068 
0.0421986 -0.0151928 0.00399899 0.043576 -0.0111917 0.00400214 0.0407627 -0.0190187 0.00400083 
-0.040862 -0.00731447 0.00399975 -0.0406241 -0.00330627 0.00399854 -0.0446063 -0.00587269 0.00402611 
-0.0444053 -0.00187225 0.00439963 -0.0370385 -0.00508226 0.00400051 -0.0372597 -0.00908204 0.00400011 
-0.0314594 -0.00575266 0.00400163 -0.0322735 -0.001835 0.00402377 -0.0372779 -0.000136131 0.00399888 
-0.0298246 -0.00940801 0.00399783 -0.0274766 -0.00616924 0.00400015 -0.0210594 -0.00768131 0.00399992 
-0.0282887 -0.00225342 0.00400268 -0.0230526 -0.00421306 0.00400027 -0.0107829 -0.00871062 0.00399916 
-0.0194797 -0.00239738 0.0039995 -0.0147505 -0.00920746 0.0039988 -0.0154978 -0.00202458 0.00413392 
-0.0134053 -0.00543301 0.00399866 -0.0116418 -0.000966845 0.00399993 -0.0173702 -0.00594045 0.00420728 
-0.0028864 -0.00954004 0.00399964 -0.00607511 -0.00640236 0.00399827 -0.00392753 -0.00302819 0.00399918 
-0.00772482 -0.00178094 0.00413284 -0.000845564 -0.00553522 0.00445308 0.00312742 -0.00547146 0.00399912 
0.00694107 -0.00696035 0.00399945 0.00108822 -0.00900606 0.004 0.00546621 -0.000380187 0.00417294 
0.00147124 -0.00183126 0.00399955 0.00976916 -0.00978773 0.00399955 0.0104914 -0.00511693 0.00399851 
0.0133643 -0.00803824 0.00399656 0.014463 -0.00419221 0.00399976 0.0173505 -0.00772666 0.00399866 
0.0184507 -0.00388268 0.00399901 0.0125697 -0.000668992 0.00399992 0.0163886 -0.000669109 0.00518651 
0.0247212 -0.00884537 0.00399804 0.0285902 -0.00039892 0.00399879 0.0279239 -0.0054362 0.00399912 
0.0214112 -0.0065888 0.0040009 0.0251299 -0.00253965 0.00399986 0.0285977 -0.00927831 0.00487873 
0.0316775 -0.00688451 0.00399879 0.0348868 -0.00449842 0.00399828 0.0367476 -0.00844848 0.00399993 
0.0341302 -0.000469348 0.00401 0.0379002 -0.00184754 0.00399955 0.0312942 -0.00308854 0.00520578 
0.0448258 -0.00242694 0.00399976 0.0411334 -0.00424438 0.00402821 0.0407606 -0.00833248 0.00417562 
0.0444437 -0.00659792 0.00404611 0.0415411 -0.000141591 0.00400235 -0.0448907 0.00243463 0.00399959 
-0.044511 0.00641628 0.00399992 -0.0412106 0.000649897 0.00399963 -0.0381285 0.00777137 0.0039983 
-0.0372824 0.00386272 0.00399961 -0.0346469 0.0097397 0.00399983 -0.0338138 0.00186265 0.00399861 
-0.0336803 0.00585924 0.00400224 -0.0298367 0.00144467 0.00399784 -0.023104 0.00900572 0.00399926 
-0.0277715 0.00888825 0.0039989 -0.0212565 0.00532702 0.00399882 -0.025422 0.00564965 0.00402489 
-0.0208916 0.0013448 0.00399772 -0.0250759 0.000576063 0.00407038 -0.0297245 0.00542171 0.00440486 
-0.01727 0.00564331 0.00399918 -0.0147602 0.00191042 0.00399796 -0.019108 0.00919489 0.00399936 
-0.0130362 0.00551942 0.00399917 -0.0125076 0.00975152 0.00399946 -0.0100647 0.00284307 0.00399918 
-0.0061773 0.00190413 0.00399816 -0.0053344 0.00586504 0.00399868 -0.0011784 0.0047913 0.00400059 
-0.00209882 0.000724099 0.00402212 -0.00923355 0.00675351 0.004119 -0.000209632 0.00888686 0.00399996 
-0.00405279 0.00999554 0.00399925 0.0059291 0.00378518 0.0039985 0.00231135 0.00207855 0.00399971 
0.00262527 0.00606533 0.00399936 0.00929846 0.00163109 0.00399891 0.00667117 0.00771722 0.00400031 
0.0185839 0.0024543 0.00399814 0.0179987 0.00641191 0.00399989 0.0142529 0.00781421 0.00399921 
0.011333 0.00504413 0.00445743 0.0104476 0.00894445 0.00448909 0.0145976 0.00277925 0.00400006 
0.0220732 5.32603e-05 0.0040023 0.0222282 0.00410267 0.00399885 0.0216767 0.00806373 0.00399938 
0.0254489 0.00655488 0.00399931 0.025928 0.00258498 0.00406099 0.0289722 0.00809037 0.00511693 
0.0300266 0.0033633 0.00402037 0.0380564 0.00230522 0.00399773 0.0365408 0.00601426 0.00399864 
0.0326383 0.0069016 0.0040016 0.0359383 0.00996738 0.00399908 0.0445311 0.00636286 0.00399972 
0.0449284 0.0023831 0.00399935 0.0405355 0.00620039 0.00399978 -0.0437864 0.0103498 0.00400004 
-0.0426619 0.0141881 0.00399979 -0.0322071 0.0129087 0.00399954 -0.0397866 0.0114092 0.00399908 
-0.0377236 0.0172291 0.00399914 -0.0362686 0.0133956 0.00399984 -0.0338344 0.0165144 0.00458726 
-0.0298793 0.0163599 0.00402484 -0.0258815 0.0163564 0.00399732 -0.0218838 0.0164588 0.00399975 
-0.0237942 0.0129449 0.00400003 -0.0278795 0.0128896 0.00400145 -0.0278392 0.0198481 0.00399998 
-0.0159101 0.0118542 0.00399927 -0.017892 0.0166984 0.00399947 -0.0150116 0.0194733 0.00399913 
-0.0111875 0.018294 0.0039994 -0.01407 0.0155213 0.00401447 -0.0105277 0.0136676 0.004121 
-0.0196833 0.0131373 0.00433737 -0.00102692 0.012802 0.00399822 -0.00801196 0.0105608 0.00400003 
-0.00764417 0.0164373 0.00399973 -0.00264066 0.0180733 0.00399846 -0.00483201 0.0137827 0.00502329 
0.00100281 0.0162488 0.00400108 0.00376996 0.0191367 0.00399987 0.00428018 0.0139558 0.00399877 
0.00756255 0.0116707 0.00399988 0.00716349 0.0168027 0.00414975 0.00353513 0.0100935 0.00471932 
0.0108709 0.0193429 0.00399793 0.0181702 0.0192076 0.00399752 0.0166093 0.0139537 0.00399957 
0.0144902 0.0176422 0.00399967 0.010593 0.0147142 0.00399806 0.0133034 0.0117025 0.00399996 
0.0184224 0.0103889 0.00401619 0.0203058 0.0156291 0.00399864 0.0220763 0.0120432 0.00399967 
[...]
POINT_DATA 5999
FIELD FieldData 7
id 1 5999 int
544 514 482 144 333 828 27 1092 856 
1037 589 307 1045 924 862 520 97 120 
135 52 379 145 107 228 53 263 1095 
158 426 336 408 706 476 501 1008 203 
246 230 992 41 404 364 245 247 760 
608 690 46 397 154 1316 966 274 440 
557 115 434 378 1019 623 874 816 344 
63 294 669 946 724 502 11 546 704 
424 1015 199 174 504 952 469 684 776 
365 276 114 8 149 758 1042 310 614 
876 54 112 516 509 401 210 861 136 
348 57 1107 437 787 349 659 360 650 
281 131 550 664 374 84 311 345 487 
296 429 175 42 99 113 616 168 205 
66 293 1126 1144 1494 317 875 396 117 
39 848 1077 256 630 350 528 461 231 
1035 962 788 86 142 423 372 1214 1262 
853 1503 417 686 802 134 163 783 126 
1096 20 731 447 485 906 354 1269 1071 
221 821 58 612 584 903 1105 931 1460 
342 441 1481 427 1486 489 627 1027 710 
1142 305 967 900 322 784 410 73 393 
935 421 1161 48 1032 458 108 128 418 
241 914 604 1014 673 292 105 12 224 
755 857 766 813 558 781 16 5 463 
23 971 1128 998 352 1254 77 594 229 
592 206 78 563 1277 346 170 763 1106 
886 273 193 498 375 560 734 384 127 
517 1478 81 432 3 473 320 712 88 
380 313 1073 155 1613 341 182 847 745 
1066 586 954 387 1024 1072 657 535 915 
214 836 165 244 394 298 436 519 287 
868 691 334 721 640 631 191 996 64 
260 98 671 79 579 225 80 1040 266 
356 75 337 576 910 159 944 524 347 
103 1124 316 361 197 522 21 212 104 
288 1016 1097 736 1220 146 660 91 839 
556 715 425 880 160 121 290 76 521 
152 332 628 28 569 406 177 478 748 
1611 1103 235 929 312 1368 428 226 116 
227 928 1899 1084 220 705 255 851 513 
304 96 388 1134 118 409 629 133 1703 
1484 181 259 299 642 140 1117 636 15 
6 529 45 173 289 769 213 916 327 
129 475 1025 141 899 497 207 904 111 
395 530 701 217 1489 268 215 477 124 
474 532 780 162 909 414 161 454 625 
218 866 40 1461 328 882 2618 1 877 
18 455 250 122 1119 885 1323 67 995 
1765 178 26 864 901 495 430 1350 531 
907 19 1213 598 1044 505 1171 200 100 
680 1270 1098 390 282 1477 997 1392 969 
153 551 450 271 407 1328 1575 1164 1828 
1620 647 1995 1861 795 566 1326 2364 1079 
2621 257 242 194 515 464 1299 209 10 
1286 981 1650 1834 452 1289 1589 1846 65 
1774 1690 1602 1882 138 185 596 83 400 
773 233 1446 665 892 2165 772 1232 2065 
883 1498 1878 1999 777 567 109 338 1033 
391 1067 1632 696 1580 707 1471 1677 852 
1411 1688 47 605 968 1358 1176 1387 1792 
1284 1434 1608 147 449 1850 1543 1421 1169 
1251 1365 340 1485 512 285 675 1280 764 
443 580 750 1188 1187 323 1013 2027 889 
411 662 1341 33 713 94 1005 254 488 
198 1162 183 548 1563 574 493 1416 1017 
279 1785 1275 2300 119 302 1476 402 49 
1506 55 1043 953 1639 1463 1836 2042 744 
2067 1026 2781 2347 1166 1028 1418 711 1640 
818 1331 1242 1023 1647 1605 1059 905 1843 
1734 1768 2292 371 1676 633 1285 1179 1754 
534 1789 2285 1855 1159 1283 1210 1944 2092 
1883 918 641 937 102 392 2221 1697 943 
1862 1074 1609 2109 1274 938 1550 1170 1691 
2345 844 1036 858 1412 2136 442 1217 1191 
1491 785 69 1468 872 2296 1182 1258 1330 
267 248 382 22 779 1114 90 689 643 
617 652 471 800 1652 902 1047 1962 1224 
2053 413 249 921 1327 1678 2328 1178 1829 
506 803 223 703 525 741 639 824 1113 
578 1389 1064 1398 961 319 1592 1265 1680 
2228 68 1537 125 533 243 1325 668 854 
1407 977 963 1683 2129 1345 1844 106 1561 
655 1354 1955 2066 674 1623 1208 1722 697 
1055 7 1448 9 1672 832 2047 1749 1687 
1594 2209 2113 815 190 951 201 964 808 
403 747 990 986 179 1525 888 1201 1597 
1555 2490 1587 1338 38 718 1152 980 1482 
994 1404 1174 2128 1012 1684 1644 1572 1240 
1753 1701 1076 1083 353 1185 833 622 1177 
1497 1710 726 270 1377 1960 1913 1628 1852 
1413 1183 1979 1272 1288 291 819 859 635 
1508 1931 1406 240 1383 1369 987 1199 2312 
1223 611 1256 1552 806 523 123 1775 43 
679 927 518 1319 1132 834 1243 1308 2278 
1767 1347 1417 1811 658 1493 314 590 1180 
739 754 1276 252 805 1057 1355 692 139 
1372 1222 749 1324 1948 653 985 2205 1584 
1123 399 615 562 1212 1961 898 1118 222 
1679 25 1385 1329 1860 1250 1505 72 1359 
1772 1333 92 1233 1830 826 202 767 613 
1196 941 318 1500 978 2014 2194 2348 863 
881 654 884 1443 496 369 619 1231 1235 
1310 1429 2307 1548 1472 694 2299 1317 581 
1109 1101 727 1130 545 1133 278 1618 1295 
508 376 1622 1099 1822 1081 1536 1374 661 
351 1380 445 543 500 1586 1140 1509 831 
869 2104 1003 575 1839 491 1356 1091 1263 
2021 1479 1340 2297 1588 1088 1569 695 830 
1728 1876 1428 1366 1030 1125 1964 479 1529 
483 2038 1425 1809 1049 865 1692 855 537 
1202 1674 1281 1444 1845 1181 893 1630 1967 
812 1279 1492 714 1348 2159 1100 896 389 
1120 1145 1060 1886 1982 1399 1702 1925 2346 
959 1332 1921 1573 2210 1831 933 842 137 
751 1914 1945 1041 1517 1577 1935 1137 367 
1151 693 796 1011 870 1557 894 1006 879 
2043 1624 1104 1516 1009 756 1334 24 511 
1228 1038 873 1221 1353 835 1122 1719 2200 
1002 1940 2037 1351 775 610 890 1111 1744 
982 983 110 1225 1842 1357 585 789 2453 
330 607 702 499 920 1567 988 1131 1928 
1522 1362 2362 794 1158 2001 2139 1804 1435 
1496 1252 462 667 682 1512 677 1871 2018 
843 1907 237 947 743 1975 1615 1361 1821 
1455 29 845 280 526 840 1300 1395 300 
355 1226 878 942 1480 728 838 717 1260 
1720 1787 1342 1541 2335 1168 370 1238 309 
792 587 1320 1148 570 381 1305 606 761 
1518 1895 1750 1593 678 297 719 189 362 
1054 188 1089 431 148 565 1707 555 1381 
814 1046 1129 286 934 956 171 975 527 
730 368 1796 1010 1487 1139 723 993 1445 
253 31 1306 1031 1063 377 564 1426 984 
1778 503 1112 1391 1977 1812 1291 187 1197 
1080 1149 1297 1450 1301 1673 295 1294 101 
1439 716 919 1576 922 632 2248 232 817 
1370 366 2319 2237 2176 1110 742 265 239 
1523 1018 1090 867 167 1078 1052 2279 700 
2242 1312 1553 1499 1675 2260 1910 949 303 
827 32 419 588 1344 778 1255 1884 1936 
1826 1870 1556 1714 2398 2034 1997 1337 331 
1193 572 70 1086 1490 1335 1430 1394 737 
2114 1972 1879 733 1367 459 1462 1339 1237 
301 36 1020 746 1153 676 453 420 911 
2452 1540 1546 1721 1154 1664 82 1314 326 
216 974 541 180 1150 1085 87 1311 930 
979 484 809 315 164 568 1535 822 1402 
932 1743 553 646 283 186 955 130 648 
958 609 1682 1976 192 1021 940 1469 708 
2115 2148 480 626 448 765 238 1321 1069 
554 561 405 74 150 887 1236 358 1230 
1115 1207 1583 50 1400 1271 1384 481 1056 
656 51 573 2 849 1135 60 13 740 
1566 1532 620 1984 1247 1029 1379 923 412 
600 688 891 1022 1343 841 1604 1459 435 
1560 559 2010 2225 2446 2318 2134 2750 2660 
2223 93 472 771 357 1346 925 439 1349 
1617 790 1449 1726 2406 1257 71 1048 1373 
1551 1745 1442 258 62 1004 926 603 1819 
1001 1897 774 325 1102 470 1248 791 957 
1246 683 793 618 1309 1156 284 1625 644 
681 1510 1669 1934 2203 386 599 272 35 
277 251 725 1436 373 685 846 698 1859 
416 2158 456 2090 960 1227 709 638 738 
1670 820 583 547 1695 1582 752 1424 2035 
1467 2219 637 1565 976 1163 799 329 95 
571 1205 850 85 34 804 1273 363 1267 
1423 1261 17 2198 991 1655 151 1959 582 
1053 1136 1388 306 61 383 1165 1296 1875 
169 1873 2460 1764 468 1867 1116 2629 1725 
339 275 798 14 1287 196 1534 624 2055 
2049 1172 2764 308 1755 2030 1760 1923 1932 
1298 204 89 2023 1571 1641 2007 1160 1868 
1410 1475 1303 4 2051 2127 2284 1795 2403 
264 973 166 1068 811 591 649 184 538 
2146 1000 486 1167 261 1631 1514 1195 917 
1401 30 666 321 324 438 1504 1108 1542 
645 490 759 1651 1591 1610 1645 1724 176 
1627 651 1453 577 507 143 965 433 195 
415 59 157 1249 466 801 1336 359 1713 
1579 989 786 1752 1307 132 234 999 1173 
593 1147 1530 908 1266 1290 552 729 510 
56 269 762 1495 156 670 1364 1239 422 
451 621 1209 542 1816 1390 1980 2081 2384 
1922 1657 2327 1211 829 343 446 1189 768 
1570 1143 735 1790 1856 2690 1717 2680 2122 
2843 2554 913 602 1245 3284 2196 2641 2046 
2257 3086 2100 3465 2999 2528 2911 1386 601 
2289 1638 1259 1598 3160 2845 3808 3564 3155 
2713 2254 2633 1906 2720 2686 1777 1433 2195 
2349 2508 1278 1957 2073 1194 797 1564 1869 
699 2303 782 2247 1581 2847 2102 2250 2512 
492 2341 2977 2464 1547 2275 3348 2245 1603 
2987 3013 1783 2421 1661 2417 2208 3098 2862 
3529 2963 1705 219 2157 1649 2527 2526 2612 
2121 2106 1681 2084 1590 1626 2098 2840 3413 
2433 2968 3636 2958 1718 2031 1175 457 1420 
1488 2003 2825 1146 2383 2351 1800 2959 2833 
2975 2761 2506 3033 1614 1533 2472 2455 2187 
2684 2624 3174 2418 3271 2378 2448 1519 1981 
3008 2377 2075 2355 2932 2517 2606 3464 2545 
3215 3734 2871 3187 3650 2295 1756 2735 2332 
1186 687 2416 1952 2044 1937 465 2611 2560 
2689 2538 2675 1802 2806 2443 1865 1058 1949 
1733 2143 1771 2391 2646 1382 2314 2493 2601 
1991 2041 2135 1458 3193 2483 2645 2145 1633 
1470 2185 1779 1746 2869 2008 2613 2746 3425 
3411 3391 3851 3094 1538 2150 1943 1696 1437 
2427 2009 2305 2812 2291 1619 2767 3027 2396 
3297 2276 3303 2516 2191 1908 1654 970 2470 
3082 2532 2510 2661 1983 2498 1414 1376 1727 
2486 2183 2368 3286 2120 1456 1483 1919 1953 
1405 1686 2511 2015 2953 1978 2468 2522 2765 
2111 3079 2048 1866 2402 3249 3553 2161 1659 
1780 540 1699 2408 1693 2562 1989 2964 1716 
3175 2338 2423 2515 2415 2280 3015 1403 1954 
2013 37 2329 2173 2181 2298 3024 2943 3124 
1737 2105 2450 2025 1817 1711 3063 2776 1093 
2271 1378 2429 2859 2639 2610 2491 2743 1968 
1184 2004 1858 2667 1607 2061 2886 1887 1065 
1773 2385 1700 2359 2576 3252 2389 3451 2557 
1848 2779 2430 2226 2057 2142 2282 2177 2151 
722 3156 2816 2363 2708 3375 2668 2387 3247 
2880 2858 1562 2304 2714 2006 1794 1662 3173 
2794 2399 2103 2674 2457 3072 1781 2093 1595 
1814 2728 1881 807 1408 2190 1253 1636 1988 
2916 2182 2944 2870 3040 1061 211 1203 1070 
1966 939 1671 1668 2050 2600 1264 1840 2804 
2333 1889 2091 1763 2594 1141 1824 2666 2549 
2671 2409 2520 3158 2846 2687 2432 3211 3690 
2534 2519 3208 2277 2301 2652 1087 2317 2179 
2071 2440 2745 2420 1965 2005 1987 1685 1958 
2426 1642 1663 1219 1198 2370 2709 2322 2361 
1531 1293 1905 2565 1863 1658 2116 2083 2579 
2202 1397 1893 2366 1730 2665 1539 1924 1805 
2935 3339 2939 1896 1835 1215 1759 1776 2774 
2163 1969 2141 2688 2773 3258 2206 2373 2082 
2482 3029 1890 3250 2787 3620 1318 1268 2548 
1902 2796 1793 2712 1723 2861 2875 1807 3455 
2251 2444 2772 3039 1916 1127 1643 1363 1396 
1993 1917 1452 1736 1200 1815 1994 1877 2678 
2989 2407 1513 1315 2478 1155 1507 2172 2577 
1704 2392 1568 2521 2786 1558 2950 2207 3453 
1051 2849 1888 1454 1216 1927 2531 1637 2130 
2326 2595 2737 2573 2820 3012 2676 2863 3214 
2323 2536 2112 1634 1838 1206 1694 2449 2607 
2215 2357 2603 1786 2978 1545 3003 3189 2059 
2405 2204 770 2240 1094 1447 2256 1833 1920 
2118 2193 2192 2885 2125 2395 1629 753 2086 
1832 2584 1660 2699 1689 1732 1941 1900 2220 
2798 3257 1901 2749 536 172 1813 2466 1803 
1653 2422 2770 2940 2814 2451 2036 1616 2290 
3499 1735 1946 3149 3506 3278 2951 2052 860 
2852 1440 1769 2488 2024 2537 2232 1502 2441 
1885 1762 1990 2068 2473 1431 2827 1938 2677 
3246 2572 3121 2899 2169 2941 2379 2258 1992 
2154 871 1808 2762 2026 2077 2079 2439 2424 
2752 2647 2070 2222 2504 2325 2425 2716 2546 
2140 945 1600 1729 1909 2356 1825 1585 1739 
2564 2632 3574 2476 3112 2589 2458 1599 1292 
2830 2094 2630 2132 2217 2969 2657 2164 2844 
3071 3179 3308 2465 1578 1521 1466 1970 1432 
2124 2095 2500 1646 1851 2649 1820 1039 2887 
2404 2865 1930 2724 2854 2753 549 1501 1304 
1360 1648 1549 2636 2503 1798 1956 2442 2725 
2218 3196 2249 2382 3485 2175 2264 2074 2400 
1244 1911 1515 1933 2459 1738 2638 1621 1915 
2682 2316 3054 2802 3273 757 2072 1528 1761 
1810 1797 2994 2253 2651 2269 1524 2431 1874 
2445 2462 2017 2934 2011 2985 2615 3006 2604 
3085 3390 2374 1352 1007 2839 2414 1526 2529 
1656 2799 3053 2701 2592 1706 2342 1409 2587 
3050 2789 2413 3700 2890 2471 3489 3213 1419 
1998 2367 2386 2123 2178 3047 2902 2923 2352 
2214 2274 1731 2436 1947 2480 2273 3373 3337 
2012 2133 1574 672 1218 2238 1740 2759 2199 
1465 1892 1204 2543 2184 1766 2108 1898 2658 
1747 950 2167 2287 2447 3105 1451 1799 2213 
2201 2016 2608 2961 2162 2908 2535 1302 1241 
1415 1229 2324 1473 2702 2336 2888 2230 2029 
1894 2492 3398 2137 3463 1918 2555 1082 2156 
1190 1880 1075 2340 2924 2456 2321 2751 1872 
236 2288 2625 3277 3304 2045 2730 3756 2375 
810 539 1559 1511 1666 1457 2076 2186 1527 
1709 2281 2768 3251 2261 2982 2654 2153 2933 
1847 2655 3432 1963 1441 1138 2020 2019 2700 
2227 2962 1849 2152 1827 2598 1234 1192 2212 
1427 1635 2898 1742 2495 2744 3138 3070 2734 
2605 2681 1665 1748 2622 2265 2626 2174 2331 
1818 2602 2376 2578 2315 2097 3980 2715 4228 
2672 3170 2119 2837 2259 2160 2283 3031 1853 
2900 1939 3307 2810 2547 3232 2691 3234 3280 
3712 2841 2525 2469 3733 3190 2635 2910 948 
1971 2101 2155 2022 1801 1596 2310 2397 1864 
3045 2502 3017 2729 2244 3287 3225 3274 2496 
2062 2561 2039 1841 634 2559 3010 2583 2089 
2063 2494 2078 2727 2644 3153 3301 3219 3358 
2272 444 2040 1698 1375 1712 1912 2711 2590 
2580 2936 2822 2087 3202 2703 2882 2390 2949 
2311 2650 1393 2410 2000 2054 1322 897 1601 
2784 2360 2957 3371 2627 3270 3145 2748 3116 
2591 3818 2475 3367 972 1121 494 460 2138 
1757 1544 2188 2903 2381 2401 2988 2080 3292 
1784 2663 3212 2831 2380 2766 2876 2243 2032 
2064 2956 1715 1474 2394 262 2670 2948 3372 
2170 2706 2631 2171 2945 2107 3747 2582 3114 
1612 2434 2236 2234 1791 2513 2033 3400 2872 
2942 2270 2593 3460 2563 2294 3293 3081 3939 
597 2211 2099 2197 2180 1788 2411 2575 2586 
2350 3201 3120 3171 3266 3073 2474 1758 2813 
1903 1926 2992 1034 3004 2758 3442 3752 1050 
823 1313 1891 2497 2302 1770 2229 2369 2692 
3561 3341 2255 3435 3444 2085 1520 1708 2110 
1422 1282 825 2147 2523 2235 2412 2778 2246 
2909 2585 3406 2144 3401 2637 3268 2058 1554 
2060 2662 2372 2126 2002 2501 3172 3738 1062 
1951 2542 1973 1823 2856 1837 2937 3176 2574 
2530 3591 3783 2569 3162 2970 3487 3089 3538 
2514 335 2056 2131 2868 3630 2775 2518 3255 
2866 2771 3509 3580 2938 3002 3288 2069 3106 
2685 3493 2879 2742 2836 3804 3282 3025 3142 
3289 3955 3446 3834 3713 3722 2718 3279 4166 
3792 4464 1996 3703 4216 2507 3056 3958 2918 
3331 3902 3540 2588 2801 3235 2623 3845 3639 
4200 2864 4060 4497 4618 3972 3607 4124 3404 
3862 4279 2851 3319 2262 2096 3822 3677 3471 
2783 2891 4129 3790 3077 2634 3032 3440 3778 
3276 3058 3718 3654 3148 4100 2435 3707 2308 
3362 3334 3844 3194 3405 3302 3632 3195 4139 
3985 3727 3547 4149 3723 3099 3256 3315 3682 
4002 2487 3764 3361 3472 2371 3433 3913 3763 
3831 4326 4388 2955 4310 3060 3207 3095 3378 
2930 3761 3165 4248 3152 3766 3967 3379 4066 
3618 3735 4416 4642 4270 4072 4918 3599 2842 
2855 4051 2499 2747 2467 2616 3768 3350 3800 
4439 3623 4211 3894 3675 2967 4415 3711 3083 
4375 4038 2809 3311 2553 2669 2568 2533 2877 
2339 1950 2596 3537 3500 3048 3437 4086 3708 
3578 3811 3868 3883 3717 4456 2239 2330 2556 
3469 3125 2597 3313 3847 2740 3067 2973 3478 
4170 4188 2189 3111 2929 3037 4255 2834 4647 
4389 3833 3450 4637 2946 4813 3715 4371 4169 
3122 2795 3492 2966 3920 3325 2904 3662 4000 
3052 3449 3523 4480 3993 3516 3512 3539 2505 
3360 3221 3346 2438 2821 3186 2628 4056 3676 
2721 2832 3983 4007 4946 4521 4775 4705 4361 
4742 2824 2739 2673 2808 3078 2088 2717 3522 
3041 2907 3188 3103 3907 3527 3794 2980 4093 
4797 3771 4648 2848 3721 3699 2659 3572 3028 
2365 3769 3226 3751 4317 3898 3353 3714 3806 
3347 4198 3412 5425 3990 4161 4003 4290 3828 
3365 2216 3199 2896 2648 3534 3370 3096 3298 
4559 2976 2777 4068 2656 3238 3789 2867 3611 
3774 4444 3528 2829 2805 2268 3799 4089 3743 
3477 3615 3476 3826 3753 3556 3482 4065 3409 
3642 4891 3754 4001 3614 2983 2231 3345 3309 
3000 3169 3260 3462 3594 3813 3415 3317 3518 
3231 4403 4130 4560 3338 2581 3005 2477 2168 
2696 3388 3651 2354 3931 3166 4504 3101 3634 
3468 3242 3459 3136 1942 3180 2694 2693 2838 
2788 2984 2857 2927 3020 3829 4259 3624 4019 
3344 3681 3773 4205 2736 2540 3772 3306 3143 
3679 3183 3457 3848 3402 3974 4134 3640 3672 
3323 4466 4328 3418 3987 2461 3090 2895 3616 
3979 3244 3695 2698 3730 3259 4525 4291 3253 
4387 3951 4127 3988 4440 3924 2241 3542 2732 
3508 2954 1741 3590 3825 3504 4232 3897 2726 
4253 3705 4120 3861 3011 4374 3849 3167 2757 
3181 4113 3557 2860 2769 3392 3706 4545 3092 
3377 3474 3185 2286 3227 2558 4281 3655 3788 
1667 3445 3368 3881 4075 2544 3921 4699 3571 
4590 2664 4833 4806 3548 2883 3001 2995 3100 
3427 4306 3649 4133 4046 4597 4754 3886 3892 
3150 1806 3140 3466 3157 3746 4154 3222 4103 
3422 3973 4084 2922 3890 2897 2915 3767 2894 
3563 2993 3236 3237 3399 3926 3191 4031 4099 
3856 4184 2741 2704 2263 2484 2683 3748 2819 
3952 3927 4125 2823 3108 4688 2309 2481 3327 
3326 2567 2541 3941 3545 2998 2617 2914 3229 
3638 2707 3685 3644 3204 4262 3598 3139 1985 
3129 2986 3066 3163 2293 3109 3428 3107 3272 
3030 3680 3837 3424 4506 3127 4753 3586 3569 
3336 2614 3097 3948 3075 2947 3925 3810 4237 
4570 4295 3550 3104 3241 2571 2343 2835 2539 
3333 3498 3393 4454 3408 3786 3484 3356 4112 
3622 3744 4105 3592 2881 3363 3316 3858 2780 
3935 2850 3762 4335 3588 3891 3200 3859 3633 
3757 3981 3877 3568 4233 4069 3324 4394 4207 
4465 4617 5179 5247 4443 3387 3694 3023 3692 
3864 3936 3061 4402 4429 2344 2653 2912 3530 
3007 2928 3230 3243 3819 3558 3283 3596 3044 
4309 2306 2722 3665 3855 4128 3652 3210 3970 
4156 2828 2733 3470 3016 3084 2358 2756 3663 
4217 2760 3946 4114 3332 3220 4246 2393 2738 
2570 2552 2642 2991 2971 3161 2599 3796 3022 
2965 3197 2807 3205 4024 3609 3867 3502 3443 
4386 3576 2313 2337 3351 1857 2990 2320 2815 
3617 2920 3501 4020 3613 3619 3128 3520 4468 
3689 2997 3009 2620 2524 2931 3602 3135 3668 
2817 2926 2893 2334 3601 3544 3130 3198 4176 
2974 3184 3144 3439 2797 2919 4315 3486 3305 
3164 2972 4365 3673 4083 3117 4531 3018 4899 
3608 3687 3380 4235 3776 3312 3088 3666 3431 
3582 3795 4053 4573 3872 2979 3505 2763 3842 
2906 3177 3560 3366 3584 2785 3429 3014 3874 
3552 2643 4081 3686 4203 3479 3850 4062 3750 
3513 4349 4369 3448 3093 3480 3300 3702 3239 
3775 3359 2960 4137 3110 3575 4018 4614 4347 
3447 3996 4479 2697 3087 2803 4077 3827 3945 
4193 3991 3950 3816 3395 4311 4472 3749 3805 
4811 3631 3610 4352 5195 4116 4097 3779 3719 
4736 3159 3600 4102 4673 4158 3589 3403 4017 
3123 3871 3419 2792 3777 3835 2826 2428 3643 
3653 3720 3245 3593 3383 3541 3637 4231 4364 
3739 4639 1854 2609 2723 2884 1974 3295 3491 
2463 4187 4163 3233 3043 3343 3216 3494 2233 
2925 3329 3314 3299 1904 3975 2889 4425 3262 
3661 3019 4201 4486 4256 4412 3488 3852 2679 
2437 3741 3074 3760 4165 3394 2353 3832 3533 
4288 3420 4320 3514 3656 3218 3605 4204 2705 
3151 3182 3068 3146 2224 3904 2754 3441 3178 
3785 3900 2853 3660 4058 4215 3554 3223 3042 
3133 3999 4146 3261 3915 3546 2731 3318 2800 
3737 3732 4252 4250 4174 4219 4591 4258 3965 
3865 3846 3731 3426 3803 3224 3296 4108 3968 
3627 3930 3793 3716 3629 4152 3051 3876 2981 
4047 4598 3693 4341 5224 4999 3893 3745 3559 
2619 2952 3065 2917 3626 3036 3407 2550 3878 
3962 4157 4551 4860 3436 3330 3369 3836 3267 
2551 4041 3354 3969 3597 3917 3697 3291 3782 
4131 3064 2921 4073 3091 2874 2485 3929 4078 
2719 3688 4234 3725 3248 3736 3269 3901 3531 
4107 4055 3916 4192 3587 3021 4589 4377 3678 
4513 3240 3340 3397 2892 2388 3119 3704 3352 
3290 3519 3787 3389 3141 3515 2901 3382 3461 
3780 3131 3603 3671 3034 3507 3495 2913 3154 
3454 3421 3132 3691 4391 3802 3658 3384 4272 
4273 3062 4717 5101 3937 3357 3059 2791 3562 
4727 3069 3521 4505 3798 3321 3535 4336 4044 
3566 4274 4943 3869 3625 4604 3895 3263 4035 
3565 4194 3517 3342 4578 3430 4300 3322 4135 
4023 5232 4926 3254 3684 3646 3683 3049 2489 
4096 3355 3192 2905 4118 4212 4316 4009 4801 
3635 4224 4428 4040 2811 2793 3467 3843 3823 
3934 4459 3080 4087 3503 2878 3203 4305 4292 
3664 3942 3765 4254 4185 4921 3396 2479 3115 
3884 3026 2028 4091 3076 4346 3709 4043 3543 
3604 4447 3982 3667 4079 3386 3038 3217 3885 
2266 3285 3912 2695 3701 4602 4275 5152 3320 
3410 3759 3606 4500 4426 4223 3583 4314 3511 
3994 4902 5115 3525 3641 3581 3573 3310 3964 
4264 4657 4119 4764 3551 4455 3046 3807 5330 
4526 5334 4907 5355 3657 4302 5288 5313 4039 
3118 3335 4788 5186 4942 4082 4381 3961 4734 
5519 4267 5421 4766 5530 4744 3919 4147 5177 
4690 3758 4367 4098 4168 4709 4457 4433 4510 