# vtk DataFile Version 4.2
Generated by LIGGGHTS
ASCII
DATASET POLYDATA
POINTS 6000 float
-0.0112583 -0.0192973 0.0122698 -0.0137061 -0.0176425 0.0126275 -0.0117175 -0.0172401 0.0124405 
-0.00762066 -0.0197877 0.0127166 -0.00727581 -0.0218123 0.0125484 -0.00583989 -0.0231909 0.0122955 
-0.00275728 -0.0212558 0.011808 -0.00537921 -0.020668 0.0127229 -0.00591644 -0.0185078 0.0124845 
-0.00027298 -0.0209335 0.0121712 -0.00141778 -0.0227671 0.0116786 -0.00171224 -0.0194385 0.0120806 
-0.00433914 -0.0172103 0.0127308 0.00659833 -0.0194353 0.0110085 0.00225722 -0.0204273 0.0115782 
0.0030312 -0.018413 0.0118282 0.00160701 -0.023749 0.0120607 0.00447814 -0.0199681 0.011997 
0.00425084 -0.0219505 0.01177 0.00711557 -0.022749 0.0112049 0.00550879 -0.017763 0.0117549 
0.00766284 -0.0207718 0.0120924 0.00856912 -0.018229 0.0116928 0.00924879 -0.0219947 0.0126394 
0.0095325 -0.0198835 0.012721 0.0113684 -0.0191939 0.0118015 0.0131674 -0.0198898 0.012357 
-0.0180616 -0.0136301 0.0119195 -0.0211519 -0.0089775 0.0116069 -0.0179038 -0.010268 0.0121144 
-0.0170457 -0.0120422 0.0126438 -0.0155823 -0.0149162 0.0111838 -0.0100605 -0.0157386 0.0127318 
-0.0117364 -0.0129678 0.0126007 -0.00901399 -0.0140224 0.0123568 -0.0158358 -0.01021 0.011916 
-0.0133893 -0.0108346 0.0117074 -0.0108733 -0.010589 0.0121847 -0.00872278 -0.00969256 0.0121815 
-0.0142668 -0.00873923 0.0123395 -0.00803601 -0.0157627 0.012625 -0.000851229 -0.0163933 0.0122057 
-0.00295593 -0.0157873 0.0124424 -0.00268976 -0.0137954 0.0126758 -0.00497417 -0.0152656 0.0125891 
-0.000746181 -0.0134011 0.0123559 -0.0049328 -0.0131825 0.012376 -0.0059946 -0.0114755 0.0122359 
-0.00249202 -0.00964661 0.0125995 0.00817571 -0.00996381 0.0112965 0.00133112 -0.0135577 0.0123221 
0.00339083 -0.0164233 0.0119046 0.00744942 -0.0157334 0.0122119 0.00697624 -0.0131686 0.0120056 
0.00332985 -0.00921983 0.0125474 0.00125252 -0.00950556 0.0122801 0.00873941 -0.014164 0.0118312 
0.0102201 -0.0104669 0.0123548 0.00871581 -0.0119403 0.0126941 0.0135147 -0.0150351 0.0117863 
0.0139128 -0.0124806 0.0124417 0.00938528 -0.0161168 0.0125505 0.0119678 -0.0117414 0.0121231 
0.015573 -0.0155156 0.0122691 0.0140298 -0.0104425 0.0126337 0.00960917 -0.00845671 0.012672 
0.0153518 -0.00855414 0.0112086 0.013443 -0.00855871 0.011819 0.0186652 -0.0147088 0.0125958 
0.0176954 -0.0129559 0.0124255 0.0171751 -0.0106938 0.0122881 0.0202538 -0.00953539 0.0119835 
0.0173083 -0.00866155 0.0125875 -0.0226589 -0.00725537 0.0115979 -0.0208966 -0.00677988 0.0126652 
-0.021642 -0.00479736 0.0118996 -0.0213483 -0.00262563 0.0116283 -0.0194372 -0.00434336 0.012282 
-0.0216861 -0.000823652 0.012668 -0.0190523 -0.00766224 0.0122934 -0.0234714 -0.00340679 0.0117545 
-0.0197265 -0.00160556 0.0125875 -0.0158891 -0.0014776 0.0124758 -0.012791 -0.00741469 0.0120186 
-0.0135775 -0.00501956 0.0125192 -0.00935143 -0.00520652 0.0122903 -0.0119605 -0.00202657 0.0122363 
-0.00387022 -0.00188765 0.011927 -0.00771543 -0.00376682 0.0121409 -0.00427767 -0.00821972 0.0125592 
-0.00777714 -0.00770455 0.01254 -0.000524503 -0.00391433 0.0126274 -0.00156237 -0.00199307 0.0124923 
0.00695847 -0.00234613 0.0118169 0.000728402 -0.00564163 0.0123309 0.00439352 -0.0061971 0.0116448 
0.00283917 -0.00725006 0.0124743 0.00302183 -0.00435477 0.0121976 0.00512041 -0.00416451 0.0120647 
0.00337114 -0.00210137 0.0126121 0.000597753 -0.00208196 0.0123938 0.00626751 -0.000391546 0.0120249 
0.0141836 -0.0065007 0.0110061 0.0119408 -0.00541556 0.0124256 0.0107912 -0.00363637 0.0124093 
0.0118457 -0.00749657 0.0126947 0.0147078 -0.00349904 0.0120497 0.0134811 -0.0017102 0.0124958 
0.00903682 -0.00113384 0.0121 0.0156544 -0.00120592 0.012648 0.0213008 -0.00181209 0.0107462 
0.0177203 -0.00341886 0.0114196 0.0206494 -0.00362041 0.0116684 0.0177146 -0.000846676 0.0118286 
0.0196836 -0.00577476 0.0124408 0.021355 -0.00703333 0.0120308 -0.0173922 0.00179162 0.0112424 
-0.0235608 0.000322738 0.0118873 -0.0238491 0.00257176 0.0117479 -0.0232662 0.00435782 0.0125058 
-0.0211814 0.00527018 0.0122224 -0.0228737 0.00644445 0.0124541 -0.0204871 0.00134519 0.0121853 
-0.0160527 0.00276721 0.0127104 -0.0155137 0.000791654 0.0124796 -0.014972 0.00485767 0.0123318 
-0.00870556 0.00593553 0.0120544 -0.00657419 0.00356233 0.0118336 -0.0039242 0.00125173 0.0123547 
-0.00666941 0.00120401 0.012211 -0.00225424 -0.000103948 0.0125044 -0.00611445 0.00571543 0.0126028 
-0.00151157 0.00563301 0.012247 -0.00445776 0.00775656 0.0126734 0.00591688 0.0079606 0.0114248 
0.000776857 0.000192858 0.0122043 0.00138318 0.00385365 0.0124789 0.00408344 6.61668e-05 0.0118865 
0.00428262 0.00213817 0.0125214 0.0030204 0.00526222 0.0116489 0.00624824 0.00171171 0.0127115 
0.00829048 0.000891726 0.0125283 0.00130433 0.00635686 0.0121614 0.010525 0.00101626 0.0120025 
0.0144158 0.00189975 0.0123927 0.0126837 0.000267674 0.0124812 0.0143551 0.00608118 0.0126665 
0.0167306 0.00702756 0.0126639 0.0199989 0.00296704 0.0120507 0.0173544 0.00328805 0.0123685 
0.0185429 0.00103623 0.0125258 0.0187916 0.0048437 0.012437 0.0221364 0.00359771 0.0120277 
0.0211058 0.00135224 0.0125229 0.0234525 0.00108256 0.0126667 0.0189074 0.0071066 0.012263 
0.0231333 0.00600081 0.0119868 0.0209102 0.00716952 0.012519 -0.0210252 0.00920234 0.0116502 
-0.0206935 0.0113626 0.0117452 -0.0190335 0.0101268 0.0122005 -0.0172731 0.0112611 0.0116312 
-0.0177066 0.0137792 0.0119177 -0.017806 0.0159172 0.0116589 -0.0114064 0.0122175 0.011453 
-0.0154535 0.0100653 0.0120768 -0.0155996 0.0121018 0.0124 -0.00940932 0.01357 0.012341 
-0.0121843 0.0150578 0.0118873 -0.0104016 0.0158895 0.0125641 -0.00735245 0.0150711 0.0119099 
-0.00157764 0.0122066 0.0125742 -0.00404373 0.0108872 0.0123909 -0.00783394 0.0112565 0.0122976 
-0.00457155 0.0140771 0.0117753 0.000356677 0.0133341 0.0124278 0.000314713 0.0105899 0.0125903 
0.00384432 0.00922248 0.0120499 0.00839465 0.0116598 0.0126448 0.00250661 0.0140984 0.0126303 
0.0100674 0.0129731 0.0120045 0.00957953 0.0087078 0.0123543 0.0105461 0.0151326 0.0126232 
0.0103247 0.0110097 0.012427 0.0130558 0.0157984 0.0126094 0.017515 0.008863 0.0124075 
0.0214782 0.0105703 0.0127209 -0.0162442 0.0174401 0.0119356 -0.0141246 0.0167035 0.0116727 
-0.0126205 0.0179734 0.0126049 -0.00993603 0.0212987 0.0126437 -0.00655094 0.0189586 0.01235 
-0.00265151 0.0234576 0.0124453 0.00237078 0.0204684 0.0124838 0.0142984 0.0186275 0.0119635 
-0.0162781 -0.0170214 0.0194076 -0.0150862 -0.0185641 0.0137681 -0.00913002 -0.0219514 0.0133816 
-0.00957594 -0.0199562 0.0134806 -0.0131699 -0.0196441 0.013088 -0.0112953 -0.0211119 0.0132636 
-0.00985469 -0.0179595 0.012939 -0.00855683 -0.018627 0.0149847 -0.0101655 -0.0193636 0.0160165 
-0.0136512 -0.0190768 0.0151674 -0.0121264 -0.0203775 0.0149862 -0.0105413 -0.0214513 0.0158483 
-0.00866017 -0.0208327 0.0151893 -0.0117096 -0.0183107 0.0150664 -0.0150249 -0.0182911 0.016731 
-0.0134012 -0.0197032 0.0170979 -0.00931166 -0.0219083 0.0174483 -0.00965533 -0.0200922 0.0183011 
-0.00968007 -0.018143 0.017548 -0.0115677 -0.0189401 0.0176897 -0.0113961 -0.0210916 0.0177049 
-0.0108997 -0.0191587 0.0197078 -0.0125925 -0.0202126 0.0198316 -0.0135573 -0.0186669 0.0188239 
-0.0111481 -0.0173223 0.0189451 -0.0148921 -0.0169668 0.0152276 -0.0116352 -0.0170819 0.016868 
-0.00904601 -0.017419 0.0193358 -0.0157226 -0.0168397 0.0129679 -0.00953926 -0.0168723 0.0150685 
-0.013416 -0.0168391 0.0177781 -0.00902023 -0.0219029 0.0208851 -0.010885 -0.0209872 0.0209539 
-0.0143751 -0.0168299 0.0201245 -0.00785435 -0.0177974 0.0130156 -0.00754702 -0.0204465 0.017532 
-0.0080519 -0.0191971 0.0191843 -0.00244888 -0.0236502 0.0134273 -0.00404084 -0.0224313 0.0129682 
-0.0036047 -0.0209729 0.0142887 -0.00363774 -0.0193941 0.0128819 -0.00022319 -0.0181778 0.0128738 
-0.000148758 -0.0237044 0.0130979 -0.0054364 -0.0218976 0.0143322 -0.00240949 -0.0176932 0.0129666 
-0.00742088 -0.0226328 0.0153958 -0.00667895 -0.0205445 0.0151213 -0.00364074 -0.0234978 0.0150745 
-0.0019463 -0.0224245 0.0151807 -0.00387284 -0.0218354 0.0162074 -0.00549218 -0.0232172 0.0159317 
-0.00079011 -0.0171427 0.0147711 -0.00494968 -0.019681 0.0163601 -0.00211845 -0.0192009 0.0146876 
-0.000995908 -0.0205532 0.0160797 -0.00294135 -0.0200543 0.0165375 -0.000591339 -0.023896 0.0156822 
-0.00662799 -0.018612 0.0156785 -0.00441601 -0.0185988 0.0146521 -0.0074099 -0.0225452 0.0182502 
-0.00245801 -0.0237428 0.0168221 -0.0058255 -0.0200358 0.0185731 -0.00580723 -0.0215669 0.0172328 
-0.00157562 -0.0237717 0.0189113 -0.00420653 -0.0226618 0.0180492 -0.00170524 -0.0189819 0.017687 
-0.000975052 -0.0223982 0.0170349 -0.000267085 -0.020337 0.018005 -0.00209437 -0.0217024 0.0186554 
-0.00576707 -0.0232276 0.0191675 -0.00392278 -0.0216251 0.0197325 -0.00106398 -0.0202849 0.0198418 
-0.00363296 -0.019834 0.0184621 -0.00502411 -0.0188309 0.0199778 -0.00288462 -0.0177223 0.018843 
-0.00472828 -0.0178341 0.017863 -0.000508751 -0.0183688 0.0197099 -0.00649262 -0.0179529 0.0189072 
-0.000235357 -0.017586 0.017837 -0.00807371 -0.0173518 0.0165484 -0.00302606 -0.0172352 0.0152582 
-0.00589367 -0.0168931 0.0164037 -0.00131243 -0.0222939 0.0204685 -0.00306465 -0.0232554 0.0208069 
-0.00706077 -0.0221031 0.0203559 -0.00558549 -0.0206883 0.0205028 -0.00259454 -0.0189894 0.0204988 
-0.00584351 -0.0170215 0.0206428 0.000177468 -0.0191591 0.0150313 0.00131165 -0.0217082 0.0131413 
0.0058271 -0.0212085 0.0130215 0.00364757 -0.0236445 0.0137897 0.00539806 -0.0231607 0.0129007 
0.00135184 -0.0196947 0.0134398 0.00620754 -0.0197336 0.0143551 0.00652323 -0.0174932 0.0139064 
0.000822375 -0.0212951 0.0152225 0.00297313 -0.0216685 0.0150167 0.00814417 -0.0209813 0.0154246 
0.00222958 -0.01936 0.0154103 0.00499966 -0.02332 0.0159316 0.00131861 -0.017394 0.0153645 
0.00410326 -0.0199705 0.0159141 0.00514695 -0.0214679 0.0150828 0.00669567 -0.0221744 0.0164723 
0.00117046 -0.0232703 0.0148462 0.00383853 -0.0219735 0.0169072 0.00286259 -0.0236435 0.0159345 
0.00252443 -0.0204111 0.0170983 0.00660185 -0.0202094 0.016961 0.00577392 -0.0181736 0.0162092 
[...]
POINT_DATA 6000
FIELD FieldData 7
id 1 6000 int
1141 846 570 223 224 393 1070 12 366 
68 179 81 1395 279 533 73 608 227 
483 717 1087 298 700 13 219 797 371 
1260 210 1004 441 456 1266 244 67 259 
301 498 1332 521 1095 777 274 522 497 
248 772 545 762 1186 34 664 1441 138 
411 958 725 1718 1205 1105 1539 532 62 
174 171 856 699 1123 215 105 351 95 
604 1106 225 94 493 151 569 142 1169 
102 97 416 459 457 1331 1770 763 1031 
551 1695 973 135 852 959 771 101 860 
315 357 564 1189 82 524 461 773 281 
912 516 1478 594 446 1146 636 266 1502 
508 1426 588 701 817 552 333 295 404 
312 658 387 988 1376 825 1671 673 1427 
1108 359 696 805 58 1250 788 543 681 
783 660 1442 3 1005 111 731 1931 414 
396 1365 824 228 325 1753 793 992 695 
15 629 162 1588 20 1399 574 340 866 
1392 799 611 65 127 529 622 386 1670 
582 482 35 1668 317 389 1008 1370 1072 
749 1099 47 98 184 282 104 837 1360 
83 874 1132 572 1300 1789 708 587 1053 
1455 204 1048 561 49 1704 738 854 391 
896 186 803 2097 562 558 1643 618 1243 
100 14 1015 1155 889 1013 1685 714 289 
584 719 1799 17 1674 550 1416 195 296 
904 148 234 1429 891 1464 624 1739 789 
64 61 630 287 1690 790 214 477 1176 
217 412 944 828 981 1202 957 60 1510 
2 1517 1174 458 1180 1273 1473 349 367 
547 1018 2081 949 443 581 115 556 99 
1081 1255 56 192 37 256 639 297 1504 
525 1540 1188 158 222 687 108 1357 1716 
300 419 199 206 620 48 394 1555 428 
1439 1054 1291 1201 1389 1543 348 2220 1562 
1655 631 986 1012 712 1737 435 1869 1369 
1136 876 326 1428 1052 637 332 26 46 
172 1658 438 691 33 216 117 955 794 
2093 1390 230 1407 273 305 268 129 239 
327 1937 1367 722 1319 293 878 632 285 
901 1317 534 764 941 1047 727 84 888 
1576 1006 1652 1703 378 89 197 735 309 
1751 509 1992 713 383 2028 598 1797 1021 
131 237 663 353 961 983 781 1452 407 
1060 873 741 39 86 947 275 18 155 
1167 152 1110 1120 1413 468 347 294 519 
999 2260 2497 337 160 2160 1246 1884 1515 
242 718 1462 2384 241 369 1575 615 449 
368 1592 557 2118 1932 302 455 785 406 
318 1549 166 683 479 808 724 586 500 
946 885 1164 207 980 373 1638 975 792 
1309 829 190 656 1223 502 815 1158 1538 
1995 1775 734 1000 1017 982 437 1134 1161 
1900 1664 133 1042 1113 1083 661 1719 1327 
408 1082 1323 462 2280 653 579 1853 156 
710 1548 235 1045 59 205 698 132 341 
607 362 253 638 447 1144 703 1557 1148 
352 1074 476 720 2083 680 90 559 375 
863 66 974 779 1843 2157 201 358 654 
977 1016 1800 1398 1237 70 1841 488 1157 
4 1786 1623 1565 1088 879 766 705 1700 
1359 916 1064 1219 1518 728 1063 823 323 
433 646 495 471 989 919 1654 1512 238 
342 867 360 707 855 560 1436 715 1499 
1103 1228 125 1537 177 257 1100 42 1698 
1980 2113 729 1220 1096 1938 910 1297 1368 
1494 1894 902 1104 1190 1925 113 758 123 
578 208 71 415 1285 998 1197 1460 478 
711 78 966 784 953 1645 45 1764 1098 
1621 1263 1947 796 2400 147 307 474 1886 
1207 593 918 546 1608 633 1936 1868 1279 
260 872 344 143 1130 871 850 494 723 
271 1329 1224 372 563 1362 1084 1334 460 
429 816 775 1611 1425 1339 682 750 1030 
1463 1371 617 2341 1421 769 1288 1336 2075 
9 2092 114 2010 690 399 32 1447 726 
655 819 1001 63 176 782 931 418 380 
1233 154 704 465 43 1682 1321 1837 1612 
72 1571 276 510 1077 1802 36 606 576 
1732 1443 299 1041 1274 1091 1917 2017 898 
693 211 518 1035 848 484 1508 2111 1899 
1990 970 507 1767 1193 1568 1275 753 1118 
153 1024 892 994 23 2156 261 1348 895 
286 1354 1293 882 1036 1913 1198 523 218 
203 1345 1526 1415 1618 2298 1862 755 1599 
538 2155 991 1667 1114 403 2429 1244 1815 
2001 2567 928 1472 1639 1326 1080 1325 319 
1743 310 1794 1165 1252 1051 496 692 345 
185 634 567 1256 1379 1589 1137 1417 676 
280 665 355 1086 1479 791 950 1079 843 
1304 940 697 1456 405 194 601 1294 2084 
2331 2052 2483 1129 933 2365 1824 1946 1845 
1353 2088 1699 1262 2255 1062 27 1506 1637 
2479 1961 2557 1634 2106 159 1085 264 906 
512 774 934 841 38 1474 1200 1519 226 
1287 768 54 746 527 270 577 1039 1996 
1394 1720 1520 571 1760 862 1029 251 1308 
730 1919 365 475 452 1591 1501 1601 610 
2087 1985 1544 1629 1341 1019 900 972 1090 
1595 473 1803 1858 1757 1839 1451 767 30 
590 1131 423 245 269 1159 765 1375 1 
77 926 491 531 530 88 390 893 188 
686 181 671 1696 1259 985 921 899 736 
827 554 623 937 555 288 267 935 434 
106 984 675 938 648 1819 1089 685 549 
1212 650 840 1673 1093 814 565 1226 1405 
232 1574 908 40 1793 778 603 1343 1175 
1310 1235 1449 1527 1034 1283 868 1963 1620 
1940 231 1037 595 1107 395 1264 1251 1194 
760 1411 1820 858 1994 627 392 469 678 
1151 616 175 173 451 139 1609 1254 756 
229 146 126 489 16 163 85 1111 1028 
1484 1124 1779 925 1558 956 2269 820 2209 
1344 677 811 1567 1178 165 1044 1166 220 
1434 1397 161 141 887 382 265 1738 515 
1122 1267 1150 93 7 540 834 150 1450 
1385 1566 180 922 350 1384 1787 836 252 
1613 410 649 1311 1163 1135 1731 1765 2210 
1666 831 1929 2153 1665 1206 845 861 932 
1438 2177 481 119 1281 134 1059 335 1702 
1372 2043 964 1842 92 1097 770 467 1851 
667 838 613 1058 136 338 28 2045 1003 
1109 1889 1949 1825 1722 2168 1881 917 2063 
1402 1983 430 2254 1795 2145 2346 1924 1910 
880 659 1653 145 2127 2292 1626 1857 2976 
1335 1616 635 1192 969 1066 513 1580 869 
440 1149 968 942 170 742 2239 420 409 
316 1211 583 674 1286 943 1240 592 1050 
1230 1706 157 645 1710 31 1801 787 798 
844 1691 1748 2624 1959 2107 202 2573 597 
945 361 1497 1822 2100 1408 1712 1752 1784 
1423 1160 1818 1204 1458 2282 1483 450 1181 
486 178 1125 167 187 826 5 1481 51 
120 490 2165 812 1046 870 1926 445 80 
1010 1756 1172 1979 1967 246 2131 1509 22 
1101 987 1272 802 1216 1056 914 1846 29 
2138 2038 2219 1278 191 628 539 1535 954 
599 1400 1662 1569 1138 514 706 1750 426 
1860 1435 21 1586 1640 8 1247 1154 501 
1213 1342 757 795 356 721 272 542 189 
339 402 354 641 1142 118 385 182 213 
1299 322 716 1307 1388 1530 526 1878 1337 
832 1809 1366 1627 1387 1715 1069 537 258 
2262 1203 144 894 1040 1651 1495 116 308 
1993 2405 1187 668 1349 737 1356 669 499 
504 877 400 1214 1217 1420 853 929 1290 
1468 1989 849 1466 936 1773 1117 2532 2504 
1126 1541 377 652 1876 2117 1678 2152 1916 
140 1347 306 752 1477 684 807 520 397 
346 1378 517 621 754 626 164 96 528 
821 1330 2132 580 324 1796 1547 76 2202 
1269 1412 2453 2183 1505 75 1728 1453 1661 
1782 2336 311 915 381 2029 1009 25 1225 
1116 1872 263 1635 487 1836 733 809 376 
1500 149 1162 321 1301 421 277 363 1614 
2449 839 1528 1094 1386 1834 480 1847 1496 
1068 110 448 575 2162 890 24 1582 424 
221 492 233 1445 642 2112 971 996 109 
847 835 439 506 1033 566 600 379 236 
1014 1318 74 875 1446 747 1503 454 818 
200 124 647 688 431 122 1127 511 1615 
1689 951 1381 1249 810 243 313 1630 614 
2417 1561 303 743 651 168 196 1647 1352 
979 6 278 1234 1848 689 1594 254 813 
57 995 1927 1600 107 960 1076 2290 1785 
2335 1945 1027 169 666 1258 1867 751 2098 
544 427 1043 255 865 336 398 112 304 
425 79 1156 343 612 1133 485 52 702 
470 91 1617 1011 1073 1424 2268 2018 2633 
776 2245 1524 1032 2291 1883 1965 2041 2296 
2436 19 240 679 939 198 505 41 786 
1182 780 1322 830 464 907 804 1185 670 
291 2379 1656 2381 1806 2851 2433 328 1179 
990 2040 370 1143 1414 800 466 1265 1316 
10 1261 905 1457 1382 1355 1865 1628 1523 
2059 2411 2022 2389 662 2125 1829 2023 1854 
962 2906 2396 1514 1145 1572 1312 1633 1766 
2163 1147 2006 417 619 2184 1025 364 1680 
2136 965 1605 1022 314 1119 1657 1597 1988 
1733 1684 976 2072 553 1808 2233 1215 1346 
193 2423 2328 11 2078 2148 2144 2542 2513 
2348 1493 1590 1914 2612 1759 1152 1570 2653 
2031 2261 2697 2447 2466 2096 2617 1432 585 
591 1486 1552 1231 2418 1153 1892 2016 1554 
1242 1840 1121 1901 2123 374 1866 1485 1729 
2732 2416 2000 1852 2738 2264 1792 2862 2519 
2076 1238 2543 2267 2025 1636 605 1772 442 
334 1092 1221 1553 2013 1908 833 1827 2141 
331 1380 1023 1313 2216 1139 1978 2238 1102 
1928 130 1810 2616 3275 1705 2413 2393 2402 
857 1078 1128 1026 1075 1057 1498 1747 2204 
2721 2376 2007 2309 2892 1522 3115 2185 884 
247 927 1314 2201 1268 284 320 1513 1253 
913 694 2091 923 55 1844 1232 2250 2190 
2940 2451 1954 2143 453 1838 1953 1997 3016 
2425 3328 1859 2315 1951 432 1020 2609 422 
2350 2531 740 283 2452 1227 1681 1430 2406 
1536 2234 329 2610 1587 2333 2321 2982 3075 
2222 2237 2456 589 2021 1542 2686 2394 1888 
2555 2817 2174 2211 1746 2733 1676 1648 128 
2572 1444 1763 2881 3172 3123 2370 3125 2507 
2559 1625 1488 1903 1245 1999 1973 2068 1289 
3187 2229 886 1741 1922 1677 1471 1964 1210 
2323 2178 2468 1338 2124 2419 2488 842 2247 
1939 2252 1532 2027 1364 1140 2012 2319 1602 
2314 1606 2576 2387 2773 2473 2427 2385 2119 
1476 1038 1584 948 1948 1377 1692 1713 1248 
1049 2008 1918 1813 1065 2601 2049 897 2293 
1363 1208 864 1904 3011 2505 3170 1603 1270 
2651 2574 1241 2270 1475 2960 2020 1007 1749 
1906 2620 1683 2329 2561 2540 2852 2192 2105 
2079 2582 2343 2230 3291 1723 2285 2874 3188 
2443 2139 2711 3592 1950 2533 1968 1725 1489 
2669 2437 2253 1406 2520 2459 1374 2793 2035 
2399 2545 2289 3121 2303 3332 2142 2294 1675 
3536 3319 2842 2461 2224 444 1184 2455 2129 
1577 183 1448 1679 1280 1531 1930 463 384 
1863 1707 2217 2737 1067 2850 2579 2491 2345 
2644 2366 2009 2175 2227 2274 2814 2203 2469 
2578 3356 3224 1222 643 2037 1239 1303 1631 
1529 1295 993 1754 1960 2200 2057 2730 1791 
1061 2159 1781 50 2830 2195 2765 1525 1991 
2502 2060 2033 2337 2259 2581 2498 2675 997 
2014 1171 883 2212 1975 2958 2181 1305 2058 
2114 249 1271 2176 1551 1774 1209 2032 609 
2151 1324 1711 1196 2552 2517 2736 2170 2635 
1912 1669 2774 2525 2584 2623 2692 2401 1282 
2512 2907 3015 2826 2659 2042 2870 2226 1236 
2320 2024 1487 1776 2095 2460 1641 2367 2305 
2822 2086 2273 1195 2182 1516 2706 2580 1694 
1697 2444 1559 2670 2412 2869 2883 2266 1956 
2983 2771 1962 2363 1521 2213 2565 2054 3491 
2317 2359 2547 2811 2316 1550 1726 2039 2599 
2271 2382 2130 3556 2388 1002 1835 2026 1798 
2528 2356 2062 1911 1276 1790 1302 1624 1873 
2819 2357 2700 1404 2330 3105 1826 2036 2322 
2161 2855 2108 2187 2002 3044 2782 2503 1358 
2214 2709 1534 2868 2439 1469 1709 2685 2777 
1284 967 1604 759 745 1298 1470 262 1891 
625 1987 568 1812 644 2355 1721 1977 1277 
1361 2474 1607 1730 2221 2286 2739 2719 3046 
2352 1296 2225 2810 2005 1581 2591 2003 2878 
3315 3138 2318 250 1982 103 1173 920 1619 
87 1229 2605 2067 640 330 2380 2188 822 
739 1821 2734 1874 1849 2554 2186 1328 1199 
2051 1744 1642 1659 2514 1817 1864 1461 1934 
2085 1933 2807 1598 2327 2743 2302 930 2403 
1546 2511 3362 1855 2956 2258 806 2569 3507 
3171 3031 1898 2066 2889 2248 1437 1663 1393 
1055 1856 2191 2277 413 2768 2257 1183 2360 
2577 1465 1972 2048 2283 2627 1955 1783 3205 
2218 2392 2196 2895 2414 2861 2619 1755 1830 
2968 2521 2926 3012 3414 1170 2613 2441 748 
2383 2377 2312 2849 2908 2784 2550 3001 2980 
1896 1112 2251 1745 2244 2508 2844 3419 2797 
1727 2665 2638 2660 3624 2198 2896 2967 3848 
2776 3082 3235 2795 2683 2845 536 1895 121 
503 2055 2571 2877 1306 2334 1969 1974 1257 
2904 1724 963 2398 2778 2311 2205 2990 1644 
2961 1861 3114 2943 2465 2901 3008 2629 2885 
2689 3468 2073 3534 2172 1735 3243 2232 2527 
2894 2654 2806 2137 1191 1952 1646 1708 2206 
2752 2687 1433 2197 2263 2634 1340 2304 1431 
1693 2526 2324 3234 2785 1533 3003 2120 1976 
2047 2228 2471 1941 2510 2843 2446 3255 1944 
1480 1593 909 1422 137 1814 1877 2147 1492 
2243 2834 2424 2742 2515 2674 2194 1585 1491 
1890 1828 859 978 1850 2167 1545 2246 1292 
2761 2179 2011 2240 2703 2272 1804 2535 2500 
2828 3193 1454 1957 1687 2215 761 2482 2802 
3335 2720 2625 3014 1761 2492 2772 3259 2666 
2604 2116 1717 2128 2954 3192 2463 1315 2911 
2553 1650 3021 2281 2879 2390 2714 3628 3424 
3050 2603 2146 2723 2438 2646 3578 3709 2621 
2169 2626 2440 1622 1915 2501 1409 2587 3393 
2476 2815 2818 2353 2099 2632 1831 2480 2408 
1769 2373 2760 2019 2562 2300 3347 2789 2140 
2812 2798 2090 3209 3355 2325 2242 2864 3184 
2787 3141 2899 3333 2231 1736 2080 1780 2522 
1758 1573 1556 2306 2056 1688 1887 3154 1419 
2109 1418 2779 1885 2866 2831 2679 3380 2649 
1734 3521 3353 3041 1762 3369 2925 3471 881 
2409 2484 2478 3038 3019 3725 3520 2652 1981 
1649 1583 1771 2375 2126 1071 53 2494 1403 
1897 2893 2347 2615 2984 2746 1893 1218 2934 
1871 1333 2829 2799 2432 2358 3108 2618 3248 
2570 3131 3478 2307 2608 2867 3080 2583 2458 
2684 2288 2313 2993 2430 2642 1115 3279 3225 
3022 2661 2524 2735 2351 3373 3122 3862 3151 
2682 2308 3949 1350 1579 1875 2284 2699 2486 
2585 1984 2297 2657 2050 3447 3410 2786 2536 
2947 3227 3434 3539 2354 2880 2499 2643 1467 
1383 2103 2164 2865 2004 2074 2640 1742 2548 
2071 2596 2915 2718 3051 3106 3237 2110 1905 
2189 1701 3281 69 1816 1482 2431 2962 2407 
3024 2725 2614 1907 3368 1966 2560 3735 2891 
2887 3480 2781 2939 3738 3094 3002 3157 3007 
2769 4928 4633 3678 3561 3246 1909 2046 2663 
1373 2332 3297 3322 2434 2987 2053 2713 3023 
3017 3784 3020 3120 2740 4098 3252 1998 2872 
3030 3239 3694 3029 2853 3487 3173 2590 3034 
3222 3299 3641 3644 4477 3854 4420 2762 3026 
1578 2667 3475 3211 2791 2756 2594 3590 3198 
3909 2992 3558 3155 3516 3216 3689 2796 2568 
3098 1943 2745 3803 3372 4273 3448 3619 3527 
3230 2529 2973 4148 3797 2564 4173 3860 3548 
3682 596 3911 1942 2115 3168 3104 3346 2748 
2997 2919 3774 4281 4351 4103 1686 3073 3149 
4090 3370 4958 4390 2731 2410 3006 2475 2556 
3925 3585 3066 3251 2688 3145 2236 3573 3376 
4169 3133 3201 4291 3330 2716 4254 3476 2848 
3287 4047 3805 4071 3485 3178 3979 3724 3664 
3129 2680 3801 2622 3757 2442 2728 2916 2805 
1805 2897 2563 3426 2951 3421 3342 3113 3037 
3638 3692 2873 3569 4506 3378 3732 2537 4115 
3464 4205 3929 4089 4031 3293 2863 3013 3256 
3408 4451 3683 4079 3308 3405 3944 4466 4265 
2378 2364 2972 2701 2790 3280 2235 3363 2988 
2946 3283 2566 3458 2069 2487 3371 2065 2386 
2541 3063 2758 3399 2690 3185 2600 2858 3290 
3470 2932 2753 2839 3065 3005 4029 3608 2523 
3384 2965 2989 3411 3714 2637 3102 2928 3798 
2921 3855 4035 3640 3758 3531 2794 4431 3085 
3413 4163 3948 4312 3711 1660 1560 2994 2694 
3357 2539 3035 2750 3189 2628 2344 3156 2592 
3210 3602 2472 3358 3889 2044 3840 2757 4678 
2937 3436 3327 2696 4140 2173 3674 2763 2927 
4353 4230 4224 3833 4042 3882 4805 4240 3698 
4361 4309 4139 3331 2917 1788 548 3341 3150 
2710 3782 2890 3360 3613 2767 3067 2882 3708 
3769 3666 3095 2722 2963 2816 3163 2978 3262 
2747 3846 3551 2678 3397 2369 2860 3025 3706 
4645 3245 4134 3119 4286 2903 4321 3529 3879 
3199 4375 3535 3947 4861 2977 4143 3579 2886 
2588 3195 3118 3250 2166 2957 2970 2809 1563 
2606 2751 2645 3627 3296 2339 3223 3878 3472 
2825 2668 3857 3060 2639 3303 3767 4344 3532 
3505 3359 3232 4490 4044 3568 2935 3852 3461 
3612 3061 3165 2837 2820 2744 1807 2909 3418 
2558 1970 2944 2597 2278 2905 3313 3486 2717 
3519 2759 3264 3217 3707 3305 3650 3442 3746 
3137 2726 4298 3501 3753 4238 3207 3704 3987 
4199 4008 3643 4379 3364 3508 4474 2641 3321 
3423 3557 2495 3759 2457 2450 3677 2101 2971 
2832 3829 2593 2813 3175 2338 2938 2134 1610 
3197 3540 3564 4194 3839 2996 4472 3835 3301 
3497 3317 3890 4591 2986 3880 3807 3032 3582 
4577 3309 3158 4455 3057 4059 4128 4300 3621 
4550 3654 3675 2650 2766 3226 2681 3086 2464 
3215 4243 3329 3081 4053 3077 2241 2930 2362 
2490 1778 3048 2655 1833 3783 4185 3367 3174 
2448 3509 3116 2803 2801 3748 2485 4333 2493 
4225 3244 3417 4038 3946 3391 3112 2827 2974 
3503 3999 3204 3637 2981 3679 3169 3544 3403 
3484 2279 3560 4045 3733 3684 3721 2856 3218 
3691 3310 3450 4409 3506 3906 3482 4412 3483 
2207 3269 2435 1740 1440 1832 1768 2715 3206 
3240 3522 3891 1880 3352 2299 2397 3052 2630 
3441 3555 3338 4025 3055 3130 3515 3404 2150 
2999 3241 3690 2368 4182 2122 2823 3415 2702 
2340 3429 2959 3203 4215 3810 3337 4187 3697 
3636 3276 3214 3018 3096 3153 4404 3514 4216 
4481 4316 4253 4065 3828 3289 3320 3719 2707 
3616 3420 2030 3228 1902 2276 3913 2698 3867 
3049 3200 2775 2509 3263 3438 2534 3159 3148 
3743 3304 3728 3273 2342 4046 4141 3800 3385 
3808 3435 4122 3703 3651 3747 3781 4184 4594 
3054 4641 3952 4354 4778 3899 3834 3978 3982 
3676 2985 3547 3439 3668 4180 4026 3749 3916 
4341 4685 4415 3597 2704 2589 1410 1320 3565 
3097 2783 3056 3383 3089 2835 3615 3087 3180 
3609 2918 3994 3194 4113 4348 4239 3795 3956 
3389 3820 3773 4092 4161 5162 3629 2998 2656 
2804 2135 3416 3183 1870 2295 2310 3091 2876 
3763 3577 2884 3454 2929 3146 2808 4027 3039 
4560 3980 2833 3233 3340 3071 3620 4425 3316 
4670 4418 2445 2840 3059 3351 3407 2755 3715 
3074 4003 4500 3816 3489 3940 4386 3958 3004 
3553 2671 3630 2695 2275 2193 2371 3099 3326 
2467 2077 4593 4691 4204 3892 4226 3965 4326 
4612 3870 4604 4111 4882 3212 4013 3745 4156 
3874 3554 2952 2948 2770 3375 3680 2949 3300 
3318 4274 4528 3723 3809 4245 3702 3136 4218 
4202 3842 3128 3093 4252 3574 3459 3336 3817 
2326 3605 2361 3761 3581 2415 3658 2693 3143 
2859 3533 3181 3785 3396 4449 3789 3523 3920 
3135 4540 3528 4061 2691 3512 5085 3850 4179 
3662 2598 3737 3490 3673 2372 3265 3498 3182 
1920 2900 3584 3718 3959 3764 3387 4465 4009 
2764 3229 2586 3790 3000 3334 2875 3058 3686 
3236 3271 2966 3545 3298 2530 3425 3307 4075 
3796 4567 3995 4706 3669 4093 4357 3932 3634 
3502 2910 4564 3284 2506 2477 2422 3466 2420 
3088 3390 3110 2955 3428 3559 2924 3770 3580 
3977 3208 3893 3772 4108 3717 3400 3406 3202 
2575 3876 3107 2788 3070 3575 2953 1351 2034 
3177 4131 4684 4072 3124 3984 3167 3213 3253 
4033 3915 3726 4276 3500 4153 4607 4096 3550 
4104 2975 3599 2070 2727 2544 2636 3593 4136 
3955 3964 3993 2898 3595 3481 3656 2780 4020 
1882 1596 3079 2936 4515 4450 4985 4831 4823 
3688 3412 3365 3445 3571 3667 3943 4963 4363 
3541 5197 3111 1564 1714 2102 2705 3272 2595 
3324 3607 2658 2462 3062 3618 2969 1879 3196 
2979 3176 1986 541 1921 3950 2395 3117 3526 
4536 4207 3730 2549 4388 3295 4056 3467 3455 
2171 2094 2249 2647 2082 3302 2847 3160 3462 
2754 3401 2470 3109 3894 2677 4222 3078 3922 
3045 3822 3649 2518 2551 1923 3349 2061 3292 
2516 3345 3388 3586 4160 4426 3731 5342 3713 
3348 3926 4430 2920 4408 3152 3736 4356 4757 
4088 4178 4191 4019 4556 3325 4693 4203 3238 
2496 3186 3598 3776 2724 2631 3645 3970 4100 
4711 3815 4124 3625 4546 3179 3076 3249 4197 
4167 2995 3409 2933 3394 3660 3802 3826 3053 
4382 4304 4278 3477 4661 4164 4413 4338 3623 
3975 4017 4232 3142 4562 3069 4400 4049 4696 
4973 3164 4592 3286 2648 3563 4106 3221 3499 
3285 3572 3504 3443 3366 4211 4317 4242 2846 
3460 2950 3433 2913 3898 3453 3525 4340 3701 
3780 3451 5298 4329 3712 4726 3865 3601 3941 
4060 4016 3998 3991 3288 4486 3033 3971 4154 
3457 4200 2800 3885 3294 3132 3905 3343 3350 
2265 3220 3379 4553 4116 2089 2888 4334 3907 
4133 4337 3921 4569 3659 3771 3511 3446 4130 
2902 2538 3496 4260 3844 2922 2607 2964 4516 
3354 4067 3231 3858 4227 4402 3100 3727 3670 
3639 3791 3583 3869 4411 3756 3671 3695 3914 
4320 4667 4584 3974 3937 3473 4279 3729 3631 
4084 3386 3311 2349 2428 3562 3452 3398 4453 
2741 3518 4125 2991 3190 3589 3493 2672 4377 
3825 4190 3754 3927 4609 3871 4228 3969 4707 
3596 3841 4708 3083 3027 3191 3494 3402 2941 
2391 4332 4248 3594 2104 2064 2923 2154 1823 
3681 4969 3090 3652 3492 4541 3762 2708 3524 
3064 2481 4032 2223 3604 3863 4176 3836 4561 
3632 3437 3918 4514 3960 4076 4145 3811 3254 
4063 3873 2912 4188 3924 3611 3957 4147 3606 
3546 3395 3962 4610 3101 3812 4198 4937 5037 
4901 4405 3463 4213 4118 3740 4545 4436 3861 
3382 4006 3127 3047 3799 3614 3655 3084 3449 
3567 3766 3361 3242 4162 4268 3566 4643 4531 
3469 4012 3672 3009 2374 3043 4599 4657 3068 
3430 3479 4580 4692 4158 4463 3576 4947 4342 
3661 3945 2158 3431 2729 3134 3787 2121 1672 
1935 2421 3775 3261 4301 2854 4399 4314 3716 
3549 3166 3543 3741 3274 3859 2821 4424 3626 
4112 4234 3072 4487 3777 4313 4217 3513 4039 
4221 4458 4270 3381 4267 4043 5318 5529 3617 
3722 3939 4094 4135 4195 4385 5644 4784 4189 
4080 5962 5423 5874 5156 5640 5524 5586 4866 
4971 5152 4259 5093 4818 3374 4885 5219 5333 
5564 5840 5822 5022 4854 4648 4557 3986 3934 
3734 4272 3699 4789 5545 5499 5019 5735 4275 
5484 5897 5440 5814 5613 4614 4002 4508 4630 
4733 5553 5459 4210 4394 3887 4433 4292 4803 