# vtk DataFile Version 4.2
Generated by LIGGGHTS
ASCII
DATASET POLYDATA
POINTS 6000 float
-0.013445 -0.017498 0.0142274 -0.0134709 -0.0196547 0.0135373 -0.0165006 -0.0172551 0.0173482 
-0.0109038 -0.0189995 0.0146163 -0.0151498 -0.0185336 0.0144053 -0.0120942 -0.0206095 0.0147389 
-0.0103223 -0.0214637 0.0143482 -0.00956137 -0.0172758 0.0145935 -0.0115539 -0.0170689 0.0147445 
-0.0162871 -0.0168607 0.0141883 -0.00994987 -0.0202243 0.0161068 -0.0122118 -0.0184427 0.0160857 
-0.0145642 -0.0173374 0.0168416 -0.0124802 -0.0203552 0.0167051 -0.00919118 -0.0220071 0.0166163 
-0.0140927 -0.0192238 0.0163288 -0.00917249 -0.0185522 0.016885 -0.0114599 -0.0170593 0.0173919 
-0.0109437 -0.0192609 0.0177373 -0.0108305 -0.0213477 0.0175821 -0.01316 -0.0178293 0.0182134 
-0.0131858 -0.0198013 0.0185912 -0.0101309 -0.0177715 0.0188498 -0.00963203 -0.019636 0.0193929 
-0.0098796 -0.0216051 0.0199101 -0.0148721 -0.0187131 0.0189639 -0.0116958 -0.0188629 0.0195639 
-0.0116966 -0.0208603 0.0194026 -0.0162427 -0.017515 0.0198936 -0.0091981 -0.018406 0.0209231 
-0.0130453 -0.0199391 0.0205946 -0.0149362 -0.0186928 0.0211979 -0.0133666 -0.0179355 0.0202153 
-0.010778 -0.0196572 0.0211562 -0.0103548 -0.0215452 0.0218595 -0.0121467 -0.0183347 0.0219203 
-0.00851071 -0.0222756 0.0214791 -0.00835917 -0.0168948 0.0185368 -0.00860857 -0.0203152 0.0210719 
-0.00883489 -0.0193922 0.0146106 -0.00868919 -0.0203845 0.0177215 -0.00852431 -0.0222752 0.0185672 
-0.0145752 -0.0167168 0.0191258 -0.0141244 -0.016969 0.02184 -0.00663428 -0.0227276 0.0138363 
-0.00469441 -0.0233768 0.0137992 -0.00257452 -0.0237418 0.0139639 -0.00840735 -0.022021 0.0145445 
-0.0076172 -0.0177362 0.0144646 -0.00341798 -0.022067 0.0146741 -0.00594195 -0.0188466 0.0145174 
-0.0053435 -0.021366 0.0147671 -0.00249679 -0.0168175 0.0147207 -0.00397541 -0.0199092 0.014533 
-0.00418571 -0.0178908 0.0144821 -0.00710933 -0.0204332 0.0149458 -0.00177554 -0.0209193 0.0147701 
-0.00206699 -0.0188286 0.0149247 -0.00589212 -0.0167253 0.014503 -0.000551363 -0.0172238 0.0149898 
-0.00711995 -0.0192072 0.016566 -0.0073484 -0.0227054 0.0161391 -0.00541333 -0.0232803 0.016414 
-0.00344168 -0.0236046 0.0159542 -0.00515993 -0.0196979 0.0161711 -0.00566984 -0.0177666 0.0162815 
-0.00681228 -0.0211081 0.0172803 -0.00284822 -0.021953 0.0169631 -0.0034265 -0.018614 0.0163838 
-0.0048056 -0.0214779 0.017064 -0.0018055 -0.0175721 0.016948 -0.00220951 -0.0200758 0.0172437 
-0.00135447 -0.022649 0.0158248 -0.00636803 -0.0171678 0.0181494 -0.00788174 -0.0188286 0.0187513 
-0.00661148 -0.0230298 0.0180695 -0.00604061 -0.0195228 0.0183466 -0.00408554 -0.0198717 0.0180131 
-0.00291298 -0.0169443 0.0186693 -0.00451066 -0.0179149 0.0179267 -0.00403994 -0.0234904 0.0179931 
-0.00374913 -0.0215905 0.0189836 -0.00575412 -0.02149 0.0190245 -0.00756674 -0.0207073 0.0193689 
-0.00182534 -0.0220866 0.0187176 -0.00200354 -0.0238003 0.0173711 -0.00155924 -0.0189047 0.018742 
-0.00249498 -0.0203297 0.0199102 -0.00712336 -0.0228382 0.0201071 -0.00739019 -0.0174595 0.020205 
-0.00352827 -0.0186598 0.0195059 -0.00689894 -0.019338 0.0206919 -0.00514227 -0.0232937 0.0196741 
-0.00251881 -0.0221567 0.0207305 -0.00502188 -0.0199212 0.020218 -0.00551319 -0.0180272 0.0197431 
-0.00381471 -0.0235471 0.0214016 -0.00448842 -0.0217382 0.0208777 -0.00642447 -0.0212509 0.0211025 
-0.00430882 -0.0183971 0.0214389 -0.00342047 -0.0201585 0.0217874 -0.00636762 -0.0178297 0.021909 
-0.00260526 -0.023746 0.0195178 -0.00194213 -0.0181184 0.0206202 -0.00578646 -0.0232192 0.0216069 
-0.00151124 -0.0207858 0.0217896 -0.000913763 -0.0170125 0.018678 -0.00131415 -0.0239137 0.0210807 
-0.000518983 -0.0208973 0.0164522 -0.000704684 -0.023916 0.0189181 -0.00056288 -0.0220977 0.0202716 
-0.000589133 -0.0239169 0.0143775 -0.000435074 -0.0188977 0.0163384 -0.000497653 -0.0201287 0.0199228 
-0.00766177 -0.0168563 0.0164209 0.00187149 -0.0217112 0.0142264 0.00278584 -0.0172773 0.0142069 
0.00748286 -0.0226707 0.0141121 -1.38365e-05 -0.0199772 0.0146817 0.0024802 -0.0197423 0.0144183 
-0.000118974 -0.0219602 0.0143418 0.00138422 -0.0237959 0.0147583 0.00339959 -0.0237029 0.014578 
0.00424179 -0.0187444 0.0145719 0.00108948 -0.018307 0.0145237 0.00413249 -0.0208596 0.0145975 
0.00538201 -0.0232098 0.0145292 0.0060758 -0.0213329 0.0146196 0.00614321 -0.0180337 0.0146387 
1.85756e-05 -0.0238856 0.0166113 0.00309702 -0.0221266 0.0157898 0.000960398 -0.0222148 0.0160275 
0.00293872 -0.018278 0.0162522 0.00134282 -0.0198012 0.0161445 0.00427752 -0.0235329 0.0167731 
0.0011217 -0.0177966 0.0169413 0.00227858 -0.0237608 0.0166089 0.00369674 -0.0200401 0.0168334 
0.00489501 -0.0216299 0.0165257 0.00542404 -0.0197816 0.0158235 0.00634507 -0.0229939 0.0163214 
0.00684097 -0.0210513 0.0164756 0.00732664 -0.0191013 0.0158571 0.0021444 -0.0212215 0.0173048 
-3.80213e-05 -0.022306 0.0178393 0.000551428 -0.0204362 0.0182389 0.000426384 -0.018522 0.018807 
0.00126624 -0.0238192 0.0183482 0.00219783 -0.0191846 0.0180487 0.00370405 -0.0221203 0.0181771 
0.00308102 -0.0237223 0.0192039 0.00532497 -0.0232587 0.0184553 0.00580879 -0.0213179 0.0183008 
0.00141855 -0.0220085 0.0191933 0.00324671 -0.0205243 0.0192934 0.000631716 -0.0237865 0.0204707 
0.00148127 -0.0202397 0.0201881 0.0019149 -0.0182733 0.0201476 0.00298409 -0.0221463 0.0204387 
2.92953e-05 -0.0184121 0.0208028 0.00107054 -0.0218104 0.0213924 0.0048472 -0.0215088 0.0200507 
0.00453464 -0.0234907 0.0206433 0.00643983 -0.0229648 0.020139 0.00676528 -0.020989 0.020279 
0.00237807 -0.0237491 0.0214825 0.0048675 -0.0202569 0.021656 0.00288386 -0.0205174 0.0216085 
0.00579108 -0.0220282 0.0217886 0.0072269 -0.022737 0.0181112 0.00167315 -0.0168896 0.0187194 
0.00246408 -0.0168474 0.0214493 0.00793821 -0.0205452 0.0144379 0.00798042 -0.0171485 0.0146475 
0.00771247 -0.0206798 0.0182422 0.00935833 -0.0219792 0.0143935 0.00972393 -0.0196463 0.0144052 
0.0111369 -0.021077 0.0145605 0.0121481 -0.0193141 0.0145266 0.0138831 -0.0195326 0.0156032 
0.0096891 -0.0178528 0.0154205 0.0153985 -0.0183874 0.0149269 0.0134938 -0.0178302 0.014495 
0.0114987 -0.0174211 0.0145729 0.00827985 -0.0224331 0.0161221 0.00876078 -0.0204566 0.0162636 
0.0122243 -0.0205152 0.0161417 0.0104761 -0.0214341 0.0166521 0.0105311 -0.0194482 0.0162911 
0.0123242 -0.018577 0.0166279 0.00888551 -0.0186356 0.0170946 0.00913219 -0.0221369 0.0179558 
0.00967181 -0.0202128 0.0180473 0.0132732 -0.0199619 0.0177566 0.0115524 -0.0208736 0.0182434 
0.0107176 -0.0179959 0.0176713 0.0147986 -0.018786 0.0172168 0.00945806 -0.0185421 0.0191278 
0.0101788 -0.0216003 0.0195841 0.00831133 -0.0223451 0.019793 0.00864832 -0.0203789 0.0199921 
0.0109115 -0.01975 0.0197834 0.0128618 -0.0201816 0.0199524 0.0122459 -0.018609 0.0188115 
0.0144156 -0.0191385 0.0192454 0.0131842 -0.0181359 0.0205279 0.0110423 -0.0177863 0.0201819 
0.00944763 -0.0219659 0.0214186 0.0117408 -0.019117 0.0215063 0.0112277 -0.0210468 0.0212772 
0.00980352 -0.0196507 0.0214635 0.0136679 -0.0196725 0.0217217 0.00916828 -0.0176129 0.0209201 
0.0152022 -0.0185452 0.0210027 0.015903 -0.0179041 0.0187196 0.0138103 -0.017429 0.0183661 
0.0162364 -0.0175643 0.0165517 0.0135144 -0.0169874 0.0163931 0.016602 -0.0171825 0.020539 
-0.0183715 -0.0152201 0.0142316 -0.020885 -0.0115367 0.0143906 -0.0196043 -0.0136644 0.0145196 
-0.0175485 -0.0102139 0.0146846 -0.0169258 -0.0120901 0.0143458 -0.0188937 -0.0117209 0.0144625 
-0.0172662 -0.0138323 0.0152723 -0.0196816 -0.00994946 0.0150399 -0.0218811 -0.00977791 0.0144906 
-0.0203002 -0.0125295 0.0160307 -0.018686 -0.0148416 0.0163933 -0.0192553 -0.0108512 0.0167794 
-0.0183126 -0.0126281 0.0164853 -0.0174152 -0.0162631 0.0157383 -0.0213471 -0.0107617 0.0162153 
-0.0166909 -0.0099449 0.016813 -0.0203233 -0.0091565 0.0168662 -0.0175322 -0.0135531 0.0181921 
-0.0175042 -0.016193 0.0187365 -0.0207171 -0.0118166 0.0178572 -0.0173491 -0.0114977 0.017906 
-0.0196731 -0.0135604 0.0176311 -0.0189988 -0.0121313 0.0188587 -0.0196899 -0.0102632 0.0186518 
-0.0217428 -0.0101193 0.0182424 -0.0184267 -0.00917557 0.0175156 -0.020772 -0.0115904 0.020003 
-0.0188268 -0.0147725 0.0192278 -0.0177033 -0.012926 0.0201723 -0.0167456 -0.0146575 0.0198345 
-0.019817 -0.0133306 0.0202398 -0.0174571 -0.0162358 0.0208568 -0.019008 -0.0117233 0.0211195 
-0.0167597 -0.0113776 0.0212011 -0.0179361 -0.0106804 0.0197328 -0.0198103 -0.00993323 0.0207309 
-0.0167454 -0.00937114 0.0206783 -0.0188916 -0.0147364 0.0213489 -0.016684 -0.0145839 0.0218392 
-0.0217645 -0.00984732 0.0202923 -0.0222216 -0.00892447 0.0162761 -0.0186305 -0.00878708 0.0195341 
-0.016157 -0.0148441 0.0139451 -0.00965604 -0.0166366 0.0165611 -0.0143759 -0.0157282 0.0143888 
-0.0114749 -0.0131003 0.0143814 -0.00971548 -0.0151657 0.0146095 -0.0132608 -0.0122168 0.0146357 
-0.00947008 -0.013143 0.0141768 -0.0134633 -0.0101262 0.0144986 -0.0150589 -0.0113368 0.0144108 
-0.0149089 -0.013361 0.0144683 -0.00824328 -0.0110973 0.0144638 -0.0117228 -0.0151125 0.0143455 
-0.0100419 -0.00984235 0.0144972 -0.0116606 -0.0110188 0.0148067 -0.0102224 -0.0120626 0.0157363 
-0.0131999 -0.014205 0.0153907 -0.0118369 -0.00903366 0.0150368 -0.0160641 -0.00886902 0.0146727 
-0.0160592 -0.0117462 0.0161614 -0.0154966 -0.015684 0.0161338 -0.0102047 -0.0140089 0.0162089 
-0.0133107 -0.0111272 0.0163352 -0.00904183 -0.0106942 0.0166582 -0.0129171 -0.0162965 0.0160472 
-0.0156978 -0.0136756 0.0165522 -0.011849 -0.0129468 0.0166571 -0.0116447 -0.0149534 0.0172659 
-0.013801 -0.0129902 0.0171079 -0.0139724 -0.0150281 0.0172906 -0.0121965 -0.00995896 0.0175256 
-0.0149056 -0.00998556 0.0158778 -0.0160583 -0.0150347 0.0179777 -0.0161475 -0.0101896 0.018897 
-0.0108603 -0.0114469 0.0175451 -0.0105363 -0.0135698 0.0185477 -0.010252 -0.00956213 0.017846 
-0.00923101 -0.0151718 0.0178774 -0.00916659 -0.0125169 0.0175007 -0.0147988 -0.0110439 0.0176871 
-0.0108098 -0.0158644 0.0188963 -0.0158028 -0.0125658 0.0185964 -0.00994602 -0.0110272 0.0193243 
-0.0124365 -0.0118503 0.0187128 -0.0126108 -0.013864 0.0187252 -0.0127966 -0.0158928 0.0186636 
[...]
POINT_DATA 6000
FIELD FieldData 7
id 1 6000 int
837 630 1260 587 561 14 49 393 224 
1265 547 1155 1047 803 2040 1797 1685 368 
854 1015 468 104 1143 1243 10 1457 466 
1128 2204 1414 2022 370 1829 905 800 662 
1572 100 1025 944 981 364 1314 1953 1455 
68 1655 789 1789 556 367 296 158 1416 
108 349 719 179 195 980 83 217 2220 
73 477 1473 148 1680 2081 1633 957 624 
1605 1704 1643 1119 790 1152 1273 1766 828 
2184 1018 1013 2233 214 458 976 1988 1174 
2328 2136 619 1701 1145 1690 1215 1628 1597 
1022 2542 152 1808 2163 3693 2697 1869 314 
443 585 2617 1737 1504 1552 896 533 639 
305 412 227 631 1176 222 192 1081 591 
37 297 714 608 428 2078 287 1202 1153 
99 687 289 1914 525 17 1543 717 1147 
2261 1733 435 206 1439 1201 2123 33 1319 
193 1486 2653 2447 1121 1729 1892 2016 1554 
1840 1357 4792 1854 332 2612 293 1555 2418 
2456 1242 419 722 986 1540 326 955 1810 
117 605 876 1136 1188 216 4285 438 4351 
2013 172 1231 794 1553 637 46 331 4375 
4502 2076 2616 3104 3275 1102 2997 3911 1221 
3149 4103 2935 4281 2977 3346 3765 2673 596 
3168 230 2115 727 1130 1048 1106 260 569 
84 588 1212 1169 817 271 888 618 197 
1278 701 1021 2396 1574 941 1576 1426 494 
1006 1890 1747 990 1652 1498 378 69 857 
1222 231 682 2092 1075 337 1329 40 750 
391 2160 204 632 2497 1017 441 961 1714 
874 12 534 383 713 353 508 151 372 
210 708 285 764 223 1167 94 562 1141 
1703 320 242 1154 309 685 347 1120 275 
407 2097 1611 1246 225 1575 72 999 1253 
1224 1421 2159 1844 86 563 1462 1592 519 
873 1992 276 1077 1091 884 913 1508 1336 
557 1513 510 160 1991 775 131 901 576 
598 241 663 741 1300 1053 1070 186 1360 
904 1464 584 373 61 1158 67 1132 500 
712 781 889 558 1549 1095 1045 785 498 
1110 570 207 318 64 1517 850 497 724 
1739 885 1180 2 1674 1012 1309 949 156 
48 738 572 656 1266 1060 1510 710 2423 
891 1951 1369 792 947 1799 1884 523 417 
974 302 437 18 39 2006 975 1083 1995 
244 700 946 123 56 300 1429 1716 620 
2113 581 348 219 234 279 298 1658 1087 
81 550 1054 797 115 129 1518 1428 879 
1367 1064 1103 2960 394 1937 2093 1698 1562 
1723 1228 199 352 1978 1363 1223 758 1964 
1291 715 1813 1948 734 1475 2329 1407 1476 
1906 1436 483 3592 1557 1255 867 1908 256 
1938 1827 239 1092 13 323 1038 989 578 
3250 273 707 174 2793 2293 1096 3170 2192 
3188 1390 1100 1139 26 360 268 1772 1248 
1313 1904 1584 5048 1603 3706 2238 878 327 
1263 334 3073 1692 2413 2443 1928 2020 1241 
3262 2978 2747 257 2711 910 1368 2601 768 
1380 2105 2141 342 833 1063 371 691 2852 
1098 2669 784 105 1023 45 1052 1197 2142 
966 71 1007 1374 953 2606 1645 593 1950 
2399 1725 1968 1947 307 1406 1936 3397 2166 
3536 78 2751 77 106 1460 590 711 546 
531 1226 595 909 1640 1203 493 1793 1400 
565 908 816 1662 8 4536 4358 5020 429 
1673 1034 1569 723 1963 628 2931 1107 1307 
1435 840 232 735 1288 814 603 868 1753 
629 1527 599 161 541 1463 1310 778 1235 
1940 769 1138 395 2341 250 706 1343 1750 
1585 1370 87 1707 1371 617 1820 978 640 
1199 1814 2147 1860 3526 2674 894 2171 1564 
1651 2470 1422 1994 142 456 1317 21 426 
552 1089 549 650 15 392 399 143 810 
716 4001 832 1986 1084 793 514 344 501 
102 1004 154 846 954 2061 511 1502 97 
333 1586 539 380 1535 1274 1452 237 1405 
191 1609 176 1443 521 1028 1334 872 1388 
141 704 992 418 2010 1233 871 155 1280 
295 627 1588 931 606 688 795 32 1184 
416 1434 459 782 655 139 859 2194 162 
4207 616 301 259 455 607 1332 258 825 
479 1001 611 551 451 1031 385 772 1040 
1349 522 988 615 829 404 1447 678 753 
211 540 1671 834 166 265 973 469 673 
721 175 366 545 819 1151 808 457 7 
683 763 248 150 1108 220 205 983 690 
958 465 235 410 16 1770 173 375 1275 
312 449 1024 994 1913 481 153 1787 756 
1051 1331 369 1323 852 718 387 1080 932 
777 526 1219 532 1395 362 658 495 345 
1718 253 1205 805 692 351 604 762 132 
30 646 171 359 1980 315 238 4 447 
638 856 774 274 357 564 634 681 959 
1105 433 34 664 59 725 897 1441 613 
92 863 860 341 101 1118 159 1539 461 
1377 2083 1186 113 676 411 138 823 1074 
1506 1479 1086 2045 524 1189 1085 906 771 
38 90 1494 62 471 1851 1786 720 567 
838 516 919 88 1764 215 1458 594 1104 
415 187 731 636 1868 95 934 226 773 
674 998 82 841 478 270 1039 571 1285 
935 728 1654 396 245 921 202 1159 942 
177 1220 42 1207 491 812 855 281 1537 
473 1720 1925 1211 1240 1801 390 1019 157 
1259 1 512 844 1713 1308 746 699 1501 
2282 452 3121 1959 1341 1520 1090 937 1394 
1624 730 1748 54 1483 1528 1408 3 686 
1131 474 530 423 826 765 188 181 208 
1125 267 440 446 1005 414 938 623 269 
671 434 1580 1696 1445 1272 2131 51 490 
266 767 1886 120 987 486 445 1752 80 
1926 246 29 2165 1191 1046 675 1101 1172 
1979 1509 2219 2324 1010 2197 3234 2752 22 
555 147 1967 2038 2138 870 1891 1693 2263 
1216 1893 1846 2687 379 802 236 2904 2011 
2595 4470 4880 3853 5931 1921 5068 2424 4671 
3467 6014 6070 5904 5775 5556 5774 20 1593 
5773 1247 2549 4497 3090 818 3083 5486 3248 
647 6001 5833 1492 4443 3422 5850 2658 5334 
4628 5793 4639 5293 5508 122 5281 4056 454 
3295 4843 3117 5824 5324 5901 4335 3062 4160 
4388 4055 3997 5805 5464 6017 5891 4191 4473 
6064 5567 5287 5623 5353 5799 1530 2720 5766 
189 5740 693 2215 1072 4697 2169 124 5610 
5011 3131 3349 1615 1715 3713 144 4036 1127 
542 1495 4748 4426 3538 3152 2802 614 5568 
695 431 5018 4073 2104 1069 4222 2625 2167 
3642 5047 5563 322 1454 5430 5027 3078 1957 
2535 3894 5292 3838 2179 4539 537 866 2481 
499 4248 3524 2154 1468 1126 2799 308 504 
1352 1561 2923 3546 737 340 3027 1689 749 
2358 1945 2608 134 1356 652 65 1299 1399 
515 1809 1217 2532 119 751 2504 200 3652 
1099 3108 799 1647 3259 849 4019 4430 2098 
1290 3191 2307 2500 1387 543 2262 335 1717 
845 1989 116 2152 3401 1420 929 2847 165 
2492 2516 668 1627 2117 2954 2621 2249 303 
651 529 1123 752 520 1477 264 196 669 
127 696 912 968 1670 482 47 1117 386 
58 135 635 1392 140 622 346 580 743 
754 1058 1330 1066 684 1347 869 1594 164 
1250 770 306 821 853 1427 1214 626 1269 
807 813 880 1412 583 969 2772 1059 1547 
1782 528 1109 659 1097 1876 1728 1915 1192 
110 1146 783 321 233 448 1481 311 1635 
1149 1286 263 582 397 427 1027 824 1442 
450 1822 389 517 1225 1386 424 513 111 
597 25 1116 376 660 1784 943 1668 733 
381 178 1872 1614 439 1796 1050 1162 1496 
1847 96 798 915 1952 1735 621 2449 149 
1691 31 1094 1897 2029 1706 2107 1556 1710 
945 1661 1453 282 492 1301 918 167 566 
1365 325 5 1318 642 1009 1181 1478 2306 
1834 1008 506 914 228 809 1179 996 1014 
464 1981 2478 1056 361 600 487 971 480 
24 847 109 2831 2112 2071 670 835 839 
1403 2494 2228 1033 1340 1573 1582 2120 1503 
747 875 1446 1771 1533 2652 1734 1649 53 
1583 3400 2471 3114 2109 3019 2499 2433 5616 
3837 4137 5599 3440 4356 4484 5977 5155 1879 
5139 5143 951 4659 5951 6008 5709 5779 4571 
4209 5271 5082 5966 5052 5957 4367 5722 5339 
6000 4965 4557 5663 5677 5466 6031 4850 2708 
5604 5999 4735 5171 5261 5757 4277 5708 4332 
5825 3492 5980 3517 3478 3594 4969 5571 5119 
4860 4616 5492 6002 5910 3345 5670 4912 5719 
6003 5714 4887 5938 5178 5398 5976 5235 4157 
5967 5836 5660 6058 5701 3388 3881 5213 5521 
5847 5288 5252 4720 5335 4299 5839 6024 6007 
5932 5424 5432 4727 4617 4310 5520 5420 5994 
6040 5803 5674 5535 4769 5100 4851 4819 5177 
4037 2920 3996 4787 168 2618 5360 4368 4101 
2417 4198 5692 5185 4303 3494 4107 5246 5619 
6020 1249 4545 4014 5400 5223 2430 3064 5236 
2941 4525 1871 4063 5138 5612 6065 3649 4991 
5741 4675 5301 5474 3681 5527 4917 5311 5046 
5585 3186 4110 4910 5435 4759 3736 4150 4924 
4172 2064 4602 6022 2995 4833 3836 5736 5523 
278 6 2642 1333 3080 666 1076 1630 544 
1350 960 3382 1867 2829 4422 254 1848 313 
2583 3402 2391 2313 1234 1927 2291 3606 2486 
2684 107 5703 1381 2867 3225 2735 2099 2351 
2912 2335 4489 4118 5394 1600 3862 3960 2661 
2789 5158 4610 3863 2223 2281 470 3373 4436 
2308 3918 304 689 2536 3447 52 1579 1133 
865 2268 1617 939 1424 3254 1785 2245 3410 
76 2041 1836 979 1931 79 1011 485 1378 
786 2164 1965 2297 343 57 35 184 702 
575 19 2296 2633 2436 612 804 291 41 
2379 1883 2993 1524 1068 2354 2865 2103 2522 
2018 1984 2786 2880 881 3655 1185 3134 1032 
221 2596 74 398 240 421 1500 317 198 
1043 907 505 363 679 2080 425 2643 277 
1322 2640 2915 2375 1182 830 2851 780 2004 
1467 1656 1806 112 2381 890 3051 2074 3106 
2729 776 5600 5861 5498 5928 5684 5411 5993 
3762 5650 4446 4461 5713 4417 4214 5808 5359 
4895 5002 5515 6048 5792 6050 5730 5245 5241 
6068 5806 5608 5731 5813 5948 5923 5469 4852 
5410 5875 5975 5627 5468 5015 5118 4213 5248 
3591 5816 5491 5869 2432 4974 4541 5066 4166 
4117 3962 5760 5886 5403 4246 3819 2570 5630 
5699 5351 3778 5704 5767 5460 4950 4907 5828 
5818 5707 5075 5896 5667 5522 5389 5383 5414 
6051 4972 6049 5300 5624 5206 5514 5712 5189 
5984 4346 4585 5458 5222 3981 5207 5587 5449 
5879 5888 4732 4997 4432 5961 5936 4383 3542 
4393 4846 5110 4698 4723 4261 4176 4519 3742 
5344 4032 5195 5392 5721 4903 5348 5959 5204 
5800 5381 5786 5280 5844 3377 243 6018 4058 
5998 3101 5006 4407 4580 4369 4874 4494 5763 
3740 5140 4701 5168 3635 3845 5307 4330 5166 
6045 3812 3537 5379 4561 336 98 5557 3949 
995 3632 3924 2458 2682 3861 1258 3463 3873 
3611 1156 5764 169 5037 2524 255 2290 4323 
3395 3672 3022 328 3043 2288 4147 4070 3957 
91 3566 4463 4937 3434 3122 3794 1057 2389 
1316 1865 1382 1523 1482 1355 2189 2411 1261 
2987 3548 2148 2906 3016 4233 128 3944 1905 
1514 4648 1570 4066 5034 4517 5662 2988 3733 
4457 5232 3835 4296 2801 5074 3092 4185 5350 
5954 5991 3123 4695 4064 3809 3005 11 553 
1312 2046 2332 5559 962 2072 2144 2234 2962 
3735 60 2663 965 4647 1859 2431 2541 2059 
2725 3290 589 2683 3584 5194 3020 5117 3017 
1997 1909 1888 2614 4412 4934 5375 4361 4394 
1493 3281 2732 3988 1778 4840 5399 2928 4474 
3784 5562 3297 1686 3597 6063 4294 3338 3486 
4886 3951 2190 5093 3676 4958 3805 4433 5831 
1542 4477 3159 4183 2005 3065 5915 5061 3317 
5395 3432 4892 3322 1432 4420 2348 2264 1866 
1942 3774 4236 3002 1636 4784 3289 2459 374 
1389 2416 2519 3370 1792 4983 1227 2378 3291 
2031 4829 4868 2450 4591 2862 2000 2267 1578 
4025 2475 2701 2568 2490 3102 2513 4385 5771 
2738 4506 2822 2999 4520 3376 2592 3590 4282 
3464 2872 4811 4173 4098 5217 5640 1444 3703 
3658 2323 2555 3465 3714 2839 4254 3613 2963 
2474 3902 1140 1943 4121 2393 3359 3966 2919 
4271 4712 4808 3535 4861 4390 3897 4730 3444 
4687 3788 2886 3529 1788 1346 2891 2564 4090 
3461 3908 3472 3230 3268 3425 5661 5043 2645 
4673 2442 5978 4655 5001 1939 4916 2970 3857 
4083 2533 3303 3622 2457 2345 2007 2129 1362 
460 114 2075 1679 2721 453 3638 2203 1026 
2376 384 2491 2309 5443 1863 89 2028 3091 
2951 5778 4322 4955 2814 183 1030 2850 2744 
3133 6056 2644 4169 4658 2386 509 2009 2656 
1751 2185 923 1932 1041 1531 284 2250 1078 
2023 463 3930 1954 1295 1917 1525 2940 2111 
1515 2680 2366 3336 5555 2734 1194 3785 3129 
1732 1529 2765 1805 5373 1577 3596 2622 2464 
5841 3328 2201 1122 2971 3474 3482 299 2946 
507 3224 2686 2057 2212 5820 2143 2337 4218 
3677 5370 2973 3210 1960 2581 50 643 680 
55 1684 406 1638 1538 2384 927 1413 694 
2280 133 1144 1000 2091 422 66 579 2118 
1164 502 653 1590 283 2452 1775 1664 982 
5021 1134 1548 2260 815 294 218 1681 1113 
1536 329 2406 1900 1719 2315 2321 432 1042 
1232 2610 2425 661 740 203 247 1430 2229 
3357 3075 2350 2609 2058 249 1568 4283 1198 
3667 1161 1587 1648 1256 1526 3851 991 1870 
609 2372 5639 1345 4224 1082 1327 864 1759 
2157 2252 3187 1843 2237 779 2540 1208 1999 
1901 201 1016 3198 358 1499 2773 3011 488 
1852 1157 1800 2025 842 1471 1841 1020 1488 
1297 2270 2651 1657 1237 1398 2488 1238 2628 
654 1918 886 1922 2756 1741 1894 2155 697 
1289 977 1049 705 2559 1487 1210 1973 2531 
2226 1270 2419 3801 1364 1304 1625 1129 4796 
5302 2917 2528 1359 2576 1606 2860 1560 2700 
2285 2715 2119 1512 2620 3331 1065 125 2882 
3150 2402 729 2561 2008 2678 3126 548 2710 
1683 1608 2253 1996 1601 2520 3928 1749 3332 
2049 3627 2343 2722 948 4490 648 2582 3118 
2545 4287 4805 4381 2139 3878 2230 1276 2810 
3195 2505 2574 2767 5437 3311 3831 1873 3420 
3360 2187 1302 3532 1858 1375 3917 1190 2087 
1621 1705 3319 633 130 2588 2400 1489 1819 
985 893 2339 3223 796 745 926 1812 1279 
1284 2437 2289 1835 736 2303 2591 5385 2589 
2809 3060 1298 4354 2739 3888 2221 2039 2286 
5776 3390 967 1604 1361 2224 1093 1175 1449 
1828 1342 2243 2082 1982 1425 2274 1339 1480 
1037 760 1804 2834 2514 137 1213 1491 1251 
330 2188 1173 1229 1930 2175 2742 2186 5012 
2804 2455 4896 822 1619 3800 5384 5544 4429 
2554 2731 4918 103 3340 5843 3980 5056 1849 
3146 3324 3071 2462 3455 2272 2929 757 146 
1612 402 574 726 1254 925 1283 356 43 
1682 1620 970 1239 1044 811 63 182 1142 
2246 1779 382 1411 229 1484 1878 36 1738 
848 2605 2209 1035 1397 1150 1993 641 858 
163 1744 820 956 1802 2380 1567 1837 126 
887 1303 993 677 1292 930 2269 2051 1124 
1767 2730 1817 5657 2085 1642 1898 806 3302 
2482 462 93 1293 272 703 1348 649 1385 
1571 180 1111 892 23 1311 350 1438 1354 
1193 2156 190 1148 1036 559 1166 118 2429 
1376 1731 489 518 85 261 408 1566 339 
895 586 2210 1618 1372 2151 1437 766 1321 
755 286 1384 1326 922 928 836 1856 1344 
1558 1472 2248 1599 310 898 997 1663 1325 
2298 403 2017 1178 1393 2153 252 1862 1267 
538 319 1244 484 1639 1114 1765 1163 1794 
1824 2577 1783 1666 1135 409 1889 791 1519 
496 560 1565 788 698 1695 527 1919 467 
355 916 1417 70 27 1474 1881 1137 1544 
1949 1842 1450 1595 665 185 280 476 1623 
1029 1379 405 2088 831 1700 882 1262 194 
1589 950 601 2145 940 1230 2052 843 1079 
933 1456 1795 1200 2483 1699 1088 1055 2567 
2084 2106 1294 1760 1516 2024 2255 1845 2377 
2254 2460 1062 1776 2331 1961 413 2388 2976 
2613 610 420 338 964 902 645 475 1895 
787 1591 1451 1985 1757 251 1629 365 1287 
1818 503 900 1790 1002 577 1987 170 2205 
1977 2108 1257 536 1803 121 2352 2782 3070 
4007 862 972 2961 2322 1826 2334 3008 1839 
1911 1358 3920 2778 2073 2571 2161 3049 2706 
1798 2503 4415 3688 2214 1861 5502 2654 1974 
554 1756 1646 3943 1433 1071 759 288 984 
262 1708 2526 2206 3046 2510 899 1721 1296 
1277 2785 1470 3342 3180 827 2634 3190 3942 
2527 3629 3199 4113 4225 2047 644 5418 4708 
2901 4949 2898 5611 3427 4161 5700 2934 3488 
4495 3978 5152 4676 2446 1976 4045 2704 2855 
4577 4607 4505 4108 4722 3167 2775 4136 4704 
3307 5104 1730 2672 4480 1966 1832 1644 4485 
5930 3607 5882 5472 4421 5987 5131 5926 5231 
5946 1877 1823 3792 5635 5581 4674 5073 5266 
2102 5539 5576 5554 5794 5125 5229 5815 2969 
2395 2705 3763 5214 4651 5690 3618 5239 3176 
5569 5744 3272 5846 2979 5734 3620 4768 5442 
3938 4700 5429 5725 3258 5804 5377 3883 4961 
6052 4801 5900 6028 4728 5326 4902 4909 5095 
4408 4848 213 3822 5150 3045 2647 1187 761 
5196 6038 3193 2240 4807 3477 4319 2551 5029 
3462 1850 3922 2569 4757 3160 3348 3892 4679 
4522 4758 4534 1545 3507 3109 3926 3171 5310 
5494 3292 3014 4105 2518 5163 4425 5446 4003 
5986 4862 5631 3238 3870 4452 5551 2828 377 
2405 400 1613 1337 2094 2043 1923 2177 1281 
2146 1761 936 2677 2761 1541 1466 1678 1315 
2463 5154 2666 3053 3623 2553 1665 2703 1650 
354 3578 2626 2604 4400 1206 3179 4661 2128 
3970 4696 3335 1830 1366 3021 1687 3050 2438 
2191 4278 2956 3192 4164 2968 1864 2257 4592 
3975 2218 2390 3300 2360 1755 1972 2619 2631 
2723 2861 3181 2768 2414 2496 2889 4256 4197 
4872 145 1003 877 2501 2132 861 1773 3424 
316 28 2453 2127 2202 1409 667 1983 1929 
2879 2300 1622 2336 430 2784 2760 1402 2116 
2183 324 2911 1335 2168 2353 2818 2063 136 
1616 1831 2480 1924 1505 2140 2476 1702 1722 
2562 2815 2312 2408 2019 748 2440 2587 2797 
3285 3499 1910 3419 3598 2896 4242 2899 3453 
1916 963 1204 2100 2055 75 1758 1497 1736 
1875 1423 2137 2866 1653 1780 3725 2573 917 
1419 2162 2056 2632 1160 1688 1306 2172 2624 
592 2925 3220 2398 3353 4334 1885 742 3520 
1887 1969 3534 3343 3154 1418 1724 1712 3347 
2848 3100 3355 3294 2239 3132 2231 2943 3088 
2953 2575 2311 2924 4260 2888 5060 3089 4804 
2877 3184 2509 2530 3844 3583 5574 3369 4453 
2070 4133 2347 3003 2746 3521 3243 2465 4221 
5743 2629 3905 2126 2893 2679 3379 3893 2538 
3471 3380 2265 2615 1218 1762 4112 4372 3041 
2779 3386 3921 3720 4627 5238 5262 3496 3764 
3237 4320 3722 2727 5267 3795 4116 5756 2984 
3907 3858 3927 3639 4569 1672 5253 3511 3473 
3038 4809 4438 3406 4279 2420 2349 3350 2800 
3438 3544 1581 3306 3468 2885 4971 4441 4092 
4455 3767 3879 5109 5103 2788 4749 3730 5141 
4201 5419 5537 4900 5788 5199 5356 4152 5919 
4976 5538 5758 4343 5105 5622 3648 5039 5685 
5737 3696 4920 5040 4894 4890 5135 5821 4834 
4360 5656 5644 5116 5358 5080 5860 5439 3783 
5872 4739 6009 4023 2921 4959 4428 5130 5536 
4677 5724 4459 5308 5939 5817 5409 5638 5728 
5590 5208 5256 5470 5090 4028 6026 4119 4229 
5519 5028 5227 5669 5877 6023 5565 5501 5592 
4922 4341 5996 4203 4595 6006 5321 5578 4681 
5475 6060 5909 5878 5224 5017 4702 4747 4742 
5929 5856 4235 4814 5676 4549 5534 4995 5618 
5678 5858 5276 5137 5290 5144 5025 4844 4398 
3903 5482 3971 6015 5282 4779 4816 5586 6029 
4401 5964 5059 6016 5216 5739 4952 3219 3603 
4598 4938 3731 5845 4939 5745 5870 5099 5647 
5405 3249 4338 3963 4719 4568 4986 4546 4901 
5390 5342 4665 5471 4049 4977 4178 4186 4946 
5960 4827 4512 5198 4232 4389 4365 4954 3954 
4925 5906 5903 2603 5933 5349 6053 3142 4669 
3457 4403 4684 4668 5542 5637 3872 4350 4562 
3628 5230 3076 5387 5718 5243 4170 4263 3525 
4891 3069 5651 3776 4552 5167 5201 4973 4849 
2985 3164 4889 4382 5615 3239 5371 5822 5126 
4746 3120 5895 2714 3279 4167 4100 4514 2947 
4158 4656 4413 4188 4726 3151 3539 3047 2933 
3865 3709 4711 3572 4531 3127 3563 2724 3430 
4657 4021 3504 3826 2950 2812 4599 4017 3941 
4318 3660 3898 3393 2798 4692 3409 5393 3392 
3712 5862 5570 4878 4781 5298 4317 3221 3933 
2646 4929 4154 2913 4845 3601 2846 4200 4548 
3366 3288 4427 3032 3433 4348 3443 5132 4547 
4340 3991 5327 1383 2548 2242 3799 3859 3084 
2373 3361 3227 2649 3771 2699 3626 3549 4145 
2325 3567 3242 2484 4006 4486 4268 4313 3446 
1769 4130 4012 3885 3791 4016 4127 2374 2787 
3141 2964 4424 5067 4211 4314 3231 5516 5552 
3449 3998 2854 2426 3994 3460 4752 4293 2806 
2871 4041 4026 4144 4074 4217 4990 5772 1596 
3513 4947 3710 4305 5244 2158 3469 2121 2718 
2409 1742 2657 3659 5062 2110 2421 3274 3775 
3431 4048 2902 3072 3354 3787 3716 3543 4838 
4234 4067 3915 3153 3876 3937 4906 4584 3727 
5408 3587 5688 3814 4806 3852 5541 5331 4399 
4609 3166 5413 5593 3869 5233 5077 4129 5461 
5112 4793 4513 6037 4650 5898 5549 5366 5883 
5153 4770 4788 5425 5079 5864 4635 4043 5968 
4913 5203 3640 4501 5506 5249 5531 5071 3896 
5887 5992 5333 5787 3264 5386 3093 5729 4437 
5913 3054 4316 4208 5588 3173 4355 2295 4743 
5441 5336 4987 5643 5485 5941 4165 5550 3267 
5908 5686 5907 4439 3266 4521 5404 5526 5917 
4575 5094 4756 5320 4387 5312 5548 5863 5717 
4493 5106 5997 4618 4087 5295 4885 6069 4775 
4423 4249 4813 3999 4464 5490 4594 5924 4175 
5101 5573 4734 5415 3247 5181 5289 4406 5440 
5283 5445 4565 3808 3701 4953 4795 2560 2863 
4766 3653 4980 5448 3527 2207 4957 3157 5955 
4306 4945 3751 4163 5564 1746 4444 4072 5354 
5513 4587 4821 5013 5142 5345 5322 5355 3936 
5762 5927 4812 5317 3437 5852 4405 5614 5782 
4120 4523 3684 6055 6039 5694 5422 4856 4837 
4683 5428 5785 4653 5397 5096 5340 5871 5083 
4640 3895 5666 5925 5122 5899 4942 5072 4632 
5226 3479 4690 5120 5010 5802 5200 5575 2966 
5747 5478 4378 5484 3580 4960 4574 3589 2853 
4542 3299 4567 3541 4089 5165 4777 2054 5050 
3610 5969 5330 5382 4151 2050 4076 4582 2284 
1073 3766 2585 1115 3604 3614 3576 3945 5369 
3811 5499 4605 4893 4643 4875 5209 3009 4342 
4699 1816 4810 3158 2821 5362 2910 3931 4717 
2211 2690 2741 4745 3429 2938 5746 2958 5560 
3721 3824 4462 3880 5702 4930 5733 1962 3172 
4941 5026 2563 4765 1745 3334 4764 4349 3283 
2780 4888 3138 3339 2320 2537 3012 3846 4999 
3773 4989 3558 3015 5583 4050 2932 3977 5942 
5436 1485 9 3569 3588 5682 5495 5940 2890 
3582 1660 4374 4760 4716 3356 4392 3165 4153 
3806 4182 5378 4059 5884 5091 4533 3378 3694 
2655 3068 3843 3509 2170 4331 3982 5981 5294 
5525 4853 3956 4450 2816 5582 2994 2225 1532 
5579 3189 4020 3177 4857 3087 3570 3651 2909 
2556 2584 3315 4205 3671 2407 4321 2750 5023 