# vtk DataFile Version 4.2
Generated by LIGGGHTS
ASCII
DATASET POLYDATA
POINTS 6000 float
-0.00920595 -0.0218129 0.0107149 -0.0136872 -0.0191561 0.0110835 -0.0115181 -0.0205647 0.0112873 
-0.00861253 -0.018836 0.01155 -0.0124372 -0.0171649 0.0117502 -0.0155833 -0.0182263 0.0122686 
-0.0102185 -0.0166643 0.0120065 -0.0104689 -0.0189659 0.0124679 -0.0075113 -0.0171346 0.0117978 
-0.00655465 -0.0207575 0.0112895 -0.00467994 -0.0187671 0.0121211 -0.00138046 -0.0190418 0.0120949 
-0.0030935 -0.0173228 0.0125018 -0.0029228 -0.0235221 0.0119195 -0.00422035 -0.0218588 0.0118794 
-0.00309812 -0.0201304 0.0123535 -0.00195348 -0.0217827 0.0122712 -0.00642643 -0.022845 0.0120423 
0.000552132 -0.0223053 0.0113811 0.000677793 -0.0197669 0.0120105 0.00149078 -0.0167043 0.0123251 
0.00279478 -0.023729 0.0124939 0.00266401 -0.0199079 0.0124929 0.00832745 -0.0204377 0.0124811 
0.0059779 -0.0230013 0.0121488 0.00315365 -0.0178971 0.0125487 0.0042924 -0.0217564 0.0123666 
0.00635451 -0.0210157 0.0123744 0.0051362 -0.0174623 0.0125525 0.00682673 -0.0189736 0.0124601 
0.00489537 -0.019521 0.01248 0.00859958 -0.0178812 0.0125927 0.0100534 -0.0193173 0.0125914 
0.0105748 -0.0171804 0.012682 -0.0221656 -0.00888953 0.0116727 -0.0195225 -0.013666 0.0118902 
-0.0206798 -0.011581 0.0119546 -0.0202479 -0.00951247 0.01199 -0.0183696 -0.0114925 0.0121868 
-0.0175483 -0.0135493 0.0122736 -0.0112367 -0.0126459 0.0114716 -0.0159564 -0.0158424 0.0118602 
-0.012941 -0.0145671 0.0118958 -0.0166651 -0.0103604 0.012583 -0.00990682 -0.00912983 0.0124948 
-0.0118322 -0.0102149 0.0119678 -0.0141927 -0.010212 0.0119489 -0.0148393 -0.0139415 0.0120581 
-0.0160095 -0.0083378 0.0125837 -0.00980531 -0.0112128 0.0123455 -0.0156027 -0.012061 0.0119481 
-0.0132608 -0.0121997 0.0119246 -0.00804149 -0.0151978 0.0114551 -0.00771881 -0.0118627 0.0116965 
-0.00255593 -0.0151117 0.0122819 -0.00659089 -0.00973586 0.0120863 -0.00377571 -0.00982051 0.0119241 
-0.00547549 -0.0115556 0.0121392 -0.00636001 -0.0136934 0.0124084 -0.00468655 -0.0149492 0.0120332 
-0.00109623 -0.0135066 0.0125548 -0.000123243 -0.00911421 0.0125718 -0.00342464 -0.0131834 0.0121556 
-0.00131982 -0.0111951 0.0122061 -0.000272268 -0.0153303 0.0124625 0.00699546 -0.0165502 0.0127309 
0.000806895 -0.0109184 0.0124989 0.00121915 -0.0129254 0.0126684 0.00385966 -0.0158979 0.012369 
0.00319739 -0.0134058 0.0123133 0.0038572 -0.00830346 0.012645 0.00222052 -0.00948845 0.0125024 
0.00536068 -0.0120194 0.012612 0.00459055 -0.0101673 0.0127123 0.00786688 -0.0125842 0.0124598 
0.0148122 -0.0163967 0.0127618 0.00895376 -0.0159027 0.0126636 0.0187055 -0.0149022 0.0127216 
-0.0176064 -0.00702689 0.0123043 -0.0228699 -0.00701683 0.012037 -0.019618 -0.00697606 0.0122841 
-0.0211442 -0.00176915 0.0126316 -0.0172729 -0.000565254 0.0125904 -0.0200616 -3.06029e-05 0.012622 
-0.0186261 -0.00522177 0.0124077 -0.0198131 -0.0035818 0.0126582 -0.0218363 -0.00364562 0.0124489 
-0.0234929 -0.00256613 0.0120171 -0.0233278 -0.00496399 0.012242 -0.0238519 -0.00068285 0.0126776 
-0.0171516 -0.00258744 0.0125425 -0.011654 -0.00796467 0.0121764 -0.00871524 -0.00761049 0.011935 
-0.0156184 -0.00633854 0.012472 -0.0108441 -0.00591243 0.0123296 -0.0121059 -0.0043616 0.0126633 
-0.0152139 -0.00306012 0.0123492 -0.0140585 -0.00470839 0.0123794 -0.0166308 -0.00451799 0.0124527 
-0.00849209 -0.00228831 0.0125213 -0.00853508 -0.00430634 0.0123483 -0.0127896 -0.00240849 0.0127033 
-0.000424707 -0.00711469 0.012638 -0.00711601 -0.00630024 0.0119471 -0.00644296 -0.00446171 0.0124382 
-0.00408285 -0.00449571 0.0124086 -0.00157332 -0.00391545 0.0125594 -0.00214546 -0.00607614 0.0122759 
0.000464633 -0.00530303 0.0125956 0.000384763 -0.0033081 0.0127328 0.00163983 -0.00753773 0.0126291 
-0.0220905 0.000337775 0.012431 -0.0200112 0.00303894 0.0127124 -0.0154254 0.000315335 0.0125726 
-0.0116486 0.000243813 0.0126638 -0.00858154 0.00461921 0.0127403 -0.00559243 0.00391484 0.0126878 
0.022002 0.00337332 0.012341 -0.0109938 0.00937143 0.0126531 -0.00178242 0.0153284 0.012696 
-5.62874e-05 0.0163333 0.0125134 0.000972696 0.0138993 0.0125877 0.00781765 0.0155862 0.0125611 
0.00185481 0.0157378 0.0126461 0.0015454 0.0119846 0.0126801 0.0208464 0.0115942 0.0127326 
0.0192698 0.0128882 0.0125972 0.0187593 0.0148726 0.0124892 -0.0115504 0.020874 0.0126588 
-0.00313776 0.0171266 0.01266 -0.00337418 0.0236985 0.0124173 -0.0013134 0.0179759 0.0123525 
-0.00134163 0.0201426 0.0124561 0.00128036 0.02178 0.0121899 0.00718096 0.0187009 0.0126636 
0.00266054 0.023716 0.0125489 0.00889016 0.0221171 0.0127434 -0.0166201 -0.0171002 0.0135692 
-0.0129003 -0.018042 0.013671 -0.012773 -0.020135 0.0129098 -0.0102253 -0.0214386 0.0130484 
-0.0149875 -0.0185056 0.0142314 -0.0106557 -0.0176426 0.0140328 -0.0133943 -0.0169611 0.0152989 
-0.0112398 -0.0202327 0.0143623 -0.00859791 -0.0175754 0.0134701 -0.016186 -0.0173455 0.0155503 
-0.0133034 -0.0197158 0.0149204 -0.0093158 -0.021953 0.0151613 -0.0117526 -0.0186608 0.015832 
-0.00903305 -0.0193244 0.0145191 -0.0083617 -0.0174385 0.0156046 -0.0107604 -0.0175199 0.017157 
-0.00858549 -0.0203472 0.0162363 -0.0112494 -0.0211858 0.0161873 -0.0146835 -0.0187656 0.0162303 
-0.0131601 -0.0176501 0.0171939 -0.0128908 -0.020001 0.0168834 -0.00859436 -0.0185742 0.017265 
-0.0159158 -0.0177948 0.0175098 -0.0104356 -0.01953 0.0171329 -0.00976043 -0.021786 0.01745 
-0.014122 -0.0191678 0.0182529 -0.011464 -0.0210008 0.0182396 -0.0119745 -0.0188741 0.0183322 
-0.0140287 -0.0167149 0.0189062 -0.00977131 -0.0179483 0.0188465 -0.00981261 -0.0200084 0.018977 
-0.0116185 -0.017024 0.0191907 -0.00903184 -0.022078 0.0192956 -0.0157407 -0.0179523 0.0196393 
-0.0130034 -0.0198699 0.0197867 -0.0111495 -0.0187034 0.0201951 -0.0130524 -0.0179767 0.0205981 
-0.0107693 -0.0213532 0.0203854 -0.00862151 -0.0206312 0.0206781 -0.0080138 -0.0203609 0.012882 
-0.00791612 -0.022352 0.0135188 -0.000507869 -0.0173414 0.0129902 -0.00539541 -0.0207649 0.0130824 
-0.000869254 -0.0235234 0.0128408 -0.00440725 -0.0177239 0.0142831 -0.00659278 -0.0184612 0.0131245 
-0.00228772 -0.0185677 0.0139173 -0.00203941 -0.0206936 0.0139806 -0.000246384 -0.019724 0.0141074 
-0.00799519 -0.0224679 0.016686 -0.00495352 -0.0233254 0.013546 -0.00279349 -0.0226113 0.0139945 
-0.00364871 -0.0196959 0.0149734 -0.000822219 -0.021919 0.0151087 -0.0065113 -0.0169459 0.0148548 
-0.00479646 -0.0216847 0.0149487 -0.00162332 -0.0193831 0.0156436 -0.00247967 -0.0174752 0.0156188 
-0.00675455 -0.0197904 0.0147208 -0.00789419 -0.0208181 0.01817 -0.00648602 -0.0230569 0.014874 
-0.00180898 -0.0238282 0.0153464 -0.00294044 -0.021479 0.0157228 -0.0038121 -0.0234334 0.0155233 
-0.000724574 -0.0174026 0.0166953 -0.0058041 -0.0231789 0.0167818 -0.00126791 -0.0205512 0.0172497 
-0.0064637 -0.0212138 0.0161542 -0.00549552 -0.0185081 0.0158962 -0.0046008 -0.0202969 0.0166941 
-0.00102675 -0.0239338 0.0172532 -0.00304097 -0.0189 0.0169937 -0.00400506 -0.0221778 0.017282 
-0.00428743 -0.0168927 0.0163359 -0.00119635 -0.0187663 0.0181502 -0.00668039 -0.0194635 0.0172963 
-0.00346357 -0.020367 0.0183396 -0.00496964 -0.0180832 0.0178874 -0.0068897 -0.0175035 0.0177391 
-0.00130794 -0.0222581 0.0183448 -0.00572908 -0.021466 0.0180202 -0.00283827 -0.023633 0.0181309 
-0.00497709 -0.0232949 0.0186521 -0.00292844 -0.0180481 0.0188506 -0.00710211 -0.0228421 0.0185862 
-0.00106967 -0.0204468 0.0192549 -0.00573955 -0.0197211 0.0190725 -0.00802916 -0.0190537 0.0191818 
-0.0078885 -0.0167725 0.0194593 -0.00270088 -0.0217982 0.0197179 -0.00469682 -0.0216609 0.0197824 
-0.00150613 -0.0237416 0.019824 -0.0061227 -0.0177671 0.0195966 -0.00678763 -0.0213003 0.0198288 
-0.000981177 -0.0182108 0.0200857 -0.00278606 -0.0197184 0.0201254 -0.00428572 -0.0177645 0.0204369 
-0.00360712 -0.0235396 0.0201174 -0.00611809 -0.0231231 0.0203175 0.000113365 -0.0178979 0.0148565 
0.000177294 -0.0219926 0.0169905 0.000189306 -0.0219896 0.0197328 0.000473451 -0.0238438 0.0149468 
0.000329422 -0.0198928 0.0160543 0.000528574 -0.0216418 0.0133495 0.000433521 -0.0238385 0.0188558 
0.00070605 -0.0166587 0.0179204 0.000682824 -0.020343 0.0180711 0.000769965 -0.0182902 0.0190904 
0.00781894 -0.0225009 0.0127807 0.00100651 -0.0238335 0.0168983 0.00142172 -0.0184934 0.013384 
0.00254864 -0.0237268 0.0145568 0.00254403 -0.021883 0.0133534 0.00448706 -0.0234853 0.0135786 
0.0038138 -0.0199645 0.0143483 0.00537252 -0.0215504 0.0141277 0.00427958 -0.0179611 0.0143211 
0.00576517 -0.0193956 0.0144226 0.00724921 -0.0208451 0.0142138 0.00624053 -0.0173268 0.0144227 
0.00689997 -0.0228144 0.0145832 0.00767896 -0.0187188 0.0143691 0.00820142 -0.0167888 0.0143083 
0.00150139 -0.0221111 0.0152793 0.00132939 -0.0168038 0.0160168 0.00139766 -0.0185945 0.0171431 
0.00172956 -0.0203221 0.01434 0.00223272 -0.0185275 0.0152186 0.00363492 -0.0221004 0.0150187 
0.00518777 -0.0233033 0.0155116 0.00341722 -0.0170259 0.0158811 0.00628241 -0.0214624 0.0160009 
0.00736064 -0.0176551 0.0160981 0.00335352 -0.0236845 0.0164116 0.00283406 -0.0205282 0.0160272 
0.00217207 -0.0221175 0.0171652 0.00534572 -0.0180242 0.0160898 0.00487094 -0.0200328 0.0161162 
0.00707236 -0.0196405 0.0162694 0.00339028 -0.0187605 0.01689 0.0045159 -0.0219513 0.0168235 
0.00613224 -0.0230325 0.01729 0.0080246 -0.0225149 0.016574 0.00281449 -0.0171077 0.0178673 
0.00687531 -0.021253 0.017908 0.00636952 -0.0175374 0.0178335 0.00399009 -0.0203651 0.0179318 
0.00446001 -0.0181315 0.0184717 0.00438628 -0.0235384 0.0181338 0.00582374 -0.0195354 0.0178439 
0.0077974 -0.0189137 0.0181062 0.00685941 -0.0228384 0.01916 0.00238579 -0.0237255 0.0183473 
0.00265534 -0.0190897 0.018867 0.00518682 -0.0216664 0.0189046 0.00320454 -0.0219219 0.0189464 
0.00611345 -0.0185338 0.0195888 0.00720945 -0.0209906 0.0199598 0.00471307 -0.0168053 0.0199744 
0.00424728 -0.0201743 0.0199153 0.00796326 -0.019122 0.0200944 0.00510854 -0.0233391 0.0200262 
0.00146912 -0.0203202 0.0199833 0.00276359 -0.017559 0.0201928 0.00183557 -0.0233514 0.0202511 
[...]
POINT_DATA 6000
FIELD FieldData 7
id 1 6000 int
837 508 874 223 901 1260 846 632 67 
353 224 195 1300 1455 587 83 1789 708 
296 12 1070 68 719 714 608 904 234 
289 287 179 624 73 533 99 539 1212 
817 1753 552 569 1004 441 1317 685 690 
143 142 961 231 301 151 399 850 479 
1266 1332 762 772 455 663 366 607 497 
248 500 81 274 1395 1429 550 59 34 
638 205 532 326 300 605 992 628 793 
3467 2194 2104 15 894 1651 647 1154 2424 
20 97 392 404 693 616 141 333 695 
258 265 189 1024 451 678 211 988 1001 
1770 658 808 818 4056 1069 810 144 866 
1478 4248 3918 1234 254 169 979 47 74 
317 198 2432 1381 3463 278 995 1258 57 
4561 1156 1426 1169 1047 618 888 562 727 
1167 741 197 941 1048 84 407 1120 468 
1155 104 378 1021 1576 2160 735 1797 800 
1026 1128 1703 89 368 1314 1421 1457 2028 
309 320 337 2204 913 1141 534 1095 393 
1416 570 1132 572 1180 1473 803 49 1053 
738 1704 781 204 1643 558 100 466 561 
391 896 1015 949 186 1174 854 2497 1143 
547 152 1685 39 1145 2097 1414 1884 1246 
1025 905 2040 1265 1951 1261 2136 1592 1253 
519 1316 1382 10 694 1829 965 1523 55 
2022 370 1017 1013 1597 477 64 1243 364 
656 1690 60 428 14 584 630 889 789 
1674 158 1464 443 412 1081 1655 620 639 
790 891 2 785 1739 148 2220 1158 217 
48 828 957 1018 1504 1176 1202 1273 944 
214 206 1510 349 1517 981 2081 367 1147 
1486 2184 1572 1766 1633 1988 2163 1605 2006 
1680 1733 1119 1312 417 619 1914 585 17 
192 1439 1291 1554 556 986 298 717 305 
13 1552 108 37 115 297 1188 876 256 
227 222 1543 1540 525 1054 1737 687 435 
1555 438 637 348 483 33 332 1201 1357 
591 293 1231 1153 1242 1319 117 1751 1329 
549 1106 588 701 595 1226 840 1130 260 
1574 372 1569 1793 908 1662 232 1673 723 
1093 814 1400 1034 1310 599 706 1963 2341 
603 429 460 1371 1940 868 1283 494 40 
1750 769 1235 1449 1339 1288 94 285 1006 
872 259 493 456 418 416 102 225 154 
521 176 383 1443 347 210 344 563 816 
598 871 704 1089 1452 713 764 32 271 
380 782 1224 775 2010 778 1084 72 43 
565 606 576 1612 241 242 1362 1334 1175 
925 1077 1652 1611 999 1274 682 1779 2075 
1462 1463 510 36 1222 1091 509 1041 1527 
1184 1917 2111 1508 1620 284 1932 1992 2280 
1682 1360 275 1413 1110 131 522 753 545 
498 244 1549 683 457 615 166 237 1060 
892 318 465 655 302 406 86 829 449 
1323 873 1083 155 1233 63 983 947 523 
586 261 1664 1837 160 718 18 1193 369 
1000 408 1571 1515 1575 1719 276 294 2118 
2384 1113 1321 557 218 1198 1732 970 927 
2452 740 2260 2201 1232 1802 946 133 1309 
579 1012 61 462 203 253 1087 646 700 
631 1995 777 207 1441 1275 885 235 1799 
156 725 664 1074 56 958 724 90 980 
373 1045 710 975 375 712 1164 792 703 
559 779 1638 190 974 680 1548 1144 1538 
458 1016 502 734 1327 201 1223 66 1042 
437 1900 358 1681 1369 661 1237 1020 1134 
815 653 1488 1999 1892 432 394 1557 1518 
879 279 123 219 1103 26 1092 1658 199 
867 1221 419 794 1064 352 581 230 2113 
360 797 172 1228 129 1428 1038 1698 2093 
273 1255 722 1603 1367 1937 2238 1716 1363 
715 1869 2418 1843 1562 2293 1692 1407 1723 
758 1906 1978 1475 1813 2329 5048 2443 1241 
864 1398 2413 46 2013 1136 1390 331 239 
3188 578 371 833 268 691 1007 955 1908 
1827 1772 1380 3275 1052 216 2141 1553 1139 
334 1810 3168 596 3911 2393 2997 3346 4103 
2673 4281 3149 2115 1942 2919 1278 1535 1820 
1405 87 2061 954 1203 8 1890 1615 1370 
1586 21 1585 454 1986 1247 2658 542 191 
629 1107 1593 2674 832 2011 909 1714 1435 
2470 1388 426 1138 1860 501 2171 1640 1213 
541 716 4160 3853 4536 5020 2931 1307 2147 
1921 1292 3526 5508 1342 395 514 1422 2462 
1564 978 1199 4497 1037 1480 1877 1491 1484 
295 146 1994 459 162 511 650 574 795 
1502 1028 1447 139 688 1588 322 757 213 
402 356 2535 4426 1809 848 1609 858 726 
641 859 1878 811 1993 1397 161 1434 1738 
1142 382 4207 126 1254 182 1804 2647 1850 
1828 163 820 887 3302 2482 1150 1124 2269 
1744 1303 2518 3014 2514 1642 1031 763 819 
1035 551 931 895 526 469 834 825 1399 
721 229 627 1331 481 175 312 756 7 
220 1151 1080 1387 410 755 928 932 23 
93 180 272 173 1293 354 118 1111 387 
489 16 1044 350 1036 1566 518 1311 85 
339 1344 956 1384 1567 1366 1325 165 1731 
1166 2209 1472 1558 2210 922 1372 1437 2248 
1267 898 319 1599 310 252 1178 677 1114 
1663 991 1856 484 1244 2017 150 698 1913 
286 540 692 447 362 357 153 1118 315 
1841 771 101 1108 138 341 994 411 860 
973 959 1479 1851 496 1786 852 1051 1787 
613 2156 1148 863 1506 185 1086 567 1376 
1348 791 1354 1695 1137 720 476 1385 1417 
27 1450 1565 766 1379 2429 1262 2088 665 
280 403 882 405 1326 1700 70 836 1618 
950 1589 843 2145 1666 194 2052 977 2298 
940 1699 2153 1639 2567 697 1256 4 1096 
355 989 1476 1800 634 1584 132 345 1219 
323 1186 495 433 1205 1980 856 2960 1104 
1248 1718 171 897 1085 327 238 1377 1105 
728 342 676 113 177 919 1925 1539 1654 
823 488 1100 2083 560 855 906 1519 788 
548 1208 2157 1948 1436 62 42 1537 1065 
471 1499 746 1494 768 1713 527 1544 916 
2711 1394 1623 257 1308 1512 902 1501 601 
1919 730 2540 1297 475 654 1474 1157 1996 
365 1313 1102 878 1023 1904 45 1936 910 
3170 1063 1197 215 784 174 1764 1938 1285 
415 1928 1098 2601 707 2852 88 1621 71 
1868 1725 1368 998 966 711 30 208 590 
2793 1968 478 1950 95 2142 105 1460 307 
2533 2399 2402 3250 125 953 1263 78 2020 
3536 2105 1220 2166 1645 1207 1886 546 1374 
2669 3121 474 147 3150 593 2339 729 130 
3117 4388 5931 3083 122 3713 5775 2595 3090 
4073 4036 6070 2549 3538 431 1492 614 5281 
4843 5824 4697 4679 5018 3997 3248 4191 4055 
5766 3295 5926 5568 5850 5833 4470 4473 4671 
5563 5472 5773 5709 5891 5324 5904 6014 3422 
5663 4720 5486 6064 6058 4909 5334 4421 4443 
5012 4137 5805 4358 5815 5556 6017 5779 5567 
5901 1545 2167 1715 2246 3922 1530 5068 1072 
4628 4001 2169 749 124 2215 2240 3171 3152 
537 1127 2625 5430 1299 4019 1495 4222 2500 
2802 1454 2249 2569 5047 4408 2847 3078 3193 
761 4757 3462 2551 3894 3477 5910 4965 3160 
4848 1923 4319 5432 3348 5342 3292 4105 5027 
6038 3822 3507 1187 611 515 1864 385 1671 
1040 1217 499 1468 308 504 1117 1647 2358 
652 65 2098 134 3027 845 1356 1126 3259 
3108 2532 1420 2504 335 2307 1349 1957 1613 
1337 2152 668 849 1627 2179 116 1290 929 
2703 1929 2094 2177 1761 2621 1438 936 2117 
2761 1678 1466 2828 377 2405 1650 2463 1206 
3335 1315 1665 2043 3578 2553 1687 2666 2604 
3021 3053 2626 2360 2191 1830 3623 3050 4696 
2128 649 805 359 127 1250 58 140 622 
1477 520 196 696 669 529 737 673 1392 
543 1059 2045 1989 92 799 1330 821 119 
1058 1214 1347 346 770 1427 853 838 880 
145 400 1097 813 626 1889 1949 1281 659 
164 861 1109 1003 877 667 28 2127 2132 
1773 1842 338 2168 430 1412 2202 2453 1402 
1983 1409 1079 2818 1135 1795 1881 324 136 
964 2784 135 699 461 807 1287 564 774 
1123 264 773 1149 968 513 1442 635 869 
1822 82 912 783 482 440 1189 381 1225 
245 524 841 1784 1066 943 681 798 38 
226 1050 1720 54 1595 969 512 159 674 
1801 583 2107 942 1872 1192 660 316 452 
467 1520 409 281 1341 1691 420 31 1706 
1653 528 157 1019 1710 1094 202 1408 149 
1796 2449 645 1211 1736 1985 1748 1497 592 
1496 170 917 577 2100 1423 918 491 1131 
571 473 351 266 530 1 594 604 765 
731 396 1005 1365 111 1181 1931 228 423 
390 188 623 636 446 1159 1146 389 270 
597 1481 450 1580 5 935 3 1445 492 
686 269 181 516 167 490 325 187 1009 
434 934 1696 938 267 1039 671 1458 414 
1056 51 826 2131 1125 2165 486 1846 178 
914 835 802 379 77 1259 531 987 1046 
1752 921 844 1272 3440 1823 5677 6002 4887 
3730 5793 3492 5155 4446 5957 5980 5353 6001 
5139 5199 1879 3517 3349 5492 951 5977 5774 
4571 3388 5082 3478 6028 5287 5708 5616 4484 
4277 6008 5714 4356 5951 5002 5119 5515 4209 
6031 5359 5861 5976 4860 6048 1099 3045 5670 
4639 4332 2720 5610 1561 3345 3524 2608 2417 
2923 3494 2154 2618 5154 5178 5825 3131 3191 
3649 5740 3652 4430 2920 5011 2941 5223 4748 
5938 3838 4819 2430 5474 4735 4616 3736 5847 
3642 5171 4303 2064 4539 4107 4912 5741 5246 
4110 5527 4172 5520 5939 4675 5521 4525 3219 
5435 5757 4150 5701 4938 4157 5308 5923 5138 
2516 2262 3186 5046 751 1689 3401 2492 340 
5099 4598 3546 2799 2481 1352 2642 3080 313 
1630 200 1871 3064 4545 3382 107 2583 4400 
4014 3606 5394 1717 1600 2351 2335 2146 1541 
3681 2677 4910 4924 3960 3731 3603 4413 4901 
5301 2281 2954 2995 4514 2912 4546 3249 5158 
3424 4602 4167 4178 4100 5647 2879 2603 5405 
4338 4389 743 1945 1547 386 1670 960 544 
651 1027 1076 754 1848 666 1927 684 689 
1867 470 1594 303 1785 3863 1424 2684 2291 
3225 2772 1876 2223 2867 3373 3862 2486 1782 
2099 1916 3151 2116 2183 2714 1579 4188 3393 
2300 2632 2760 2789 1915 1831 3563 1386 1286 
580 945 1635 376 517 397 311 485 2268 
865 582 1668 19 427 343 1116 448 304 
1162 786 1836 35 1378 733 1617 1728 752 
76 612 702 2522 804 621 306 96 2436 
575 1614 1269 1453 2041 75 915 1068 1661 
2851 2865 1524 2004 363 291 1383 1875 2501 
2242 2433 2103 2029 25 1528 824 1008 439 
1500 679 939 263 1301 233 321 221 240 
282 1322 110 830 642 424 1318 505 487 
2643 996 809 971 421 907 464 277 1182 
890 1656 670 480 1179 1806 2381 847 2080 
1582 109 1467 3594 5400 4969 2708 1333 4541 
2570 5204 4787 5236 4101 3762 5248 4246 3962 
4368 4213 4950 4895 3591 5800 4974 4166 3819 
5684 5736 5808 5630 5403 5692 5280 5424 5650 
5075 5411 5928 6065 5261 5869 5828 4422 4198 
5185 5360 4917 243 168 6 4176 2308 3022 
3924 98 2313 2391 2458 2735 1249 3996 4117 
4032 4118 4076 3836 2829 3402 5348 1350 3377 
4058 5764 5612 5703 4063 5959 3873 4610 3742 
4903 5311 5066 5557 5414 3740 5786 5006 3101 
5195 4519 5704 5449 5844 4874 5381 5392 4489 
5344 3279 4323 3812 3845 5760 4436 4494 4939 
5514 52 3632 1133 1965 2288 336 2682 3611 
2297 3949 91 2290 3861 3122 2018 4147 2524 
3395 2993 1011 2585 4937 4405 4657 3566 3957 
3811 3254 3604 2661 3043 3672 4145 3766 2786 
3945 3655 3437 5037 2947 4582 2536 2640 184 
2296 79 1043 398 2379 2245 1073 1032 2633 
3410 425 3447 255 776 112 1883 780 41 
1185 2164 2284 2596 328 2050 1984 2657 3434 
3614 2354 3799 3051 2729 2699 3787 3009 884 
1513 1075 1747 1078 1498 2396 2129 2185 1057 
2007 990 1954 2721 3016 1482 69 3024 2203 
3497 3700 2556 3988 2250 2411 11 1859 1628 
1590 1844 923 2059 2389 662 1865 2906 2940 
1493 2023 2143 2431 2189 1905 2125 3735 1514 
2190 3281 1953 1997 2407 2872 1805 3129 962 
2725 2425 1907 5074 6063 3037 2781 4385 2563 
2891 4506 1355 2928 4420 1152 1684 314 2423 
2233 976 2328 2072 1022 2078 1346 2261 1808 
2234 2542 2738 2148 1854 553 1215 2513 2653 
2144 2046 1701 1432 2456 2962 589 2237 2348 
2697 2378 2987 2617 2447 2332 1909 2663 2972 
3002 1763 1373 3297 2466 2566 2614 2713 3322 
4273 2541 3020 5831 3458 3464 3211 3030 2434 
3570 3738 4098 193 2031 1121 1570 2096 2612 
2123 1389 1840 2016 1866 2519 1729 442 374 
2732 2264 2000 1636 1485 2076 2216 2543 2594 
3216 3909 3797 114 1982 617 640 1173 1343 
2067 250 384 1251 1030 1264 2345 1229 183 
2491 920 103 444 2217 1619 1863 330 3165 
2009 2579 1448 2188 2274 2224 2578 2644 2227 
2175 3418 3707 2455 2905 2820 857 750 1767 
760 507 1336 1425 50 1194 1239 1531 1295 
2376 2092 1960 1280 1529 9 1679 2037 2730 
2159 993 1930 2380 2195 453 1707 1577 2309 
1991 2850 463 2737 2502 2958 1067 2734 1525 
2033 2366 2469 2814 2680 3224 1975 3115 3061 
2495 2744 3540 2892 1568 538 1345 247 2350 
2057 1268 1990 2315 1648 643 2058 299 2176 
2091 283 2200 1754 1912 1587 2174 1838 1631 
2733 2581 2170 2736 2021 128 249 2830 2765 
2525 3328 2212 2337 2498 2686 2641 2813 3421 
2101 3172 3801 3015 3086 2622 5156 2988 3197 
2832 2512 2451 3125 3123 3426 3063 2333 2572 
329 2609 1775 1526 1161 1082 1759 1657 886 
1210 422 1741 982 1853 1289 2155 2229 1430 
1625 2406 1227 1536 2321 1677 1245 1238 1676 
2559 2531 2610 3075 2791 2982 1364 2323 2222 
2027 2124 2555 1542 1140 1324 2314 2178 2667 
2881 1888 1444 2211 2468 2319 3602 2817 2427 
2362 2394 2370 1660 2364 3280 1746 2694 2701 
2539 3357 3470 2507 1471 2247 1852 2416 1901 
2119 1964 2267 842 2252 2192 2651 1922 2419 
2890 4375 1792 2773 3187 1918 3331 1939 2963 
1578 3262 2862 2025 3291 3706 2628 2488 2748 
2139 3155 4173 1338 2756 3198 2592 3067 2745 
2994 3590 1532 3025 3095 3189 3992 2796 1560 
3358 1943 3928 3448 3558 3619 3156 3860 4645 
3073 2616 3104 2977 4121 4712 4285 4351 4861 
4390 2606 3359 3774 2747 4792 4083 5001 4482 
3535 4090 3765 3370 4271 4502 3788 3529 4193 
4629 5169 5628 3897 2935 2554 2243 5581 2272 
1814 2082 137 2834 2969 2705 3455 3071 2754 
2515 2742 3196 3324 2102 1874 822 2186 3272 
3763 3950 3146 1849 3233 2445 2979 3901 2310 
3416 3176 3183 2656 2275 4386 4573 3980 2135 
2929 2876 3091 2605 1899 1411 806 1328 2051 
2085 1122 1817 1461 2258 3362 1546 1898 1934 
1933 2014 4593 2807 3031 1855 739 3074 3099 
1791 2302 3059 1598 2671 2327 2840 883 2755 
2193 3326 2403 3489 930 3351 2371 2467 3004 
2695 2181 3301 2077 3958 3829 3321 3835 1196 
1765 2768 2956 1163 2577 1743 1659 1711 1815 
1209 997 1271 1783 1183 1465 1305 2277 1252 
2401 1774 2048 2151 1282 609 1061 2066 1171 
3205 2283 2743 1955 1781 2114 3175 2511 2675 
2521 2196 3174 3715 2060 2259 2895 2952 3012 
2870 2907 4243 2826 3112 2938 2659 2971 2655 
2490 4053 3509 3081 3204 3423 3226 3329 1778 
2012 2226 1862 1794 1456 2106 1903 1359 1055 
2483 2255 2084 1294 2331 1393 1304 1415 1824 
2254 831 2001 2557 1845 1946 1129 1667 1062 
2365 1634 2377 2320 2024 1165 413 1353 2547 
1961 2367 2032 2517 2095 1551 1776 1236 2692 
1694 2412 2316 1550 2182 2670 2273 2580 2550 
2584 1956 2359 2086 2305 2552 2883 1669 2869 
2444 1726 1559 2811 2266 2771 2623 2635 2042 
2774 2822 2251 2317 2565 2983 2599 1962 2130 
2198 3673 1788 1602 2620 1088 2978 2270 1029 
1591 705 948 3011 1894 1270 2576 2285 1200 
1487 1683 1973 2710 933 1606 1049 2706 3592 
1839 2505 1760 1637 2528 2068 2917 1749 3708 
3769 2561 1516 2479 2343 2574 1276 3360 2388 
1911 1302 2357 2819 2230 2161 1195 1697 2700 
3044 2330 3551 3782 2187 1798 1873 2387 2385 
1902 2874 2709 3666 2008 3126 2751 1601 2588 
1190 1406 3461 3966 2582 1705 3397 1947 926 
2049 3223 2886 1624 2520 1608 3319 2400 648 
2253 2722 1375 1757 633 1284 3303 3532 2882 
4490 2035 2437 1489 1298 1858 3332 2545 3878 
3118 3060 3857 1279 796 3627 745 2461 3444 
2970 3472 3195 3062 3620 5131 5293 3618 2395 
3607 3109 5900 5799 5930 5173 5882 4880 5073 
5052 5539 5141 5987 4459 5576 4534 4335 5623 
5788 5728 3837 4700 5734 5690 5464 5266 5605 
5538 4976 5794 5635 5737 5208 3792 3938 5554 
5220 5946 5309 5994 4651 5846 5446 4728 5229 
5231 4768 5569 5804 3648 4834 4959 5675 4674 
4961 5326 5214 5429 3258 4801 4776 3883 5711 
5239 5511 5323 3586 3630 4807 5986 3553 4425 
5292 3926 4203 5196 4028 4156 4003 3892 5029 
5163 5310 5150 5494 4761 4758 5877 5420 5631 
4522 4862 4771 4452 5856 5551 5858 4595 3870 
4274 4226 3745 4664 4500 5565 4237 4782 5123 
4088 6006 3940 4604 5543 4660 4612 4181 5447 
4855 4326 3816 4111 3989 5878 4218 4212 3212 
3965 4902 4013 2889 5085 4278 3625 1755 3970 
3192 2438 3238 3179 2257 2968 2723 2619 1972 
2218 2631 4164 2390 2627 2770 2496 3300 2861 
3645 2414 4592 3598 3815 2392 3375 3181 2948 
3407 3143 3802 4382 3394 3605 3076 3414 3136 
2926 4556 2326 3135 3817 4693 3325 3533 2949 
3680 2415 5791 3574 5008 4202 4814 4528 3318 
3093 5107 3662 3581 2691 3761 3702 3512 4252 
3723 2911 2336 2063 1505 1722 2312 2408 1924 
1616 2976 1702 2346 1910 2797 2613 748 2440 
3209 2019 2090 2292 1626 2441 3419 1857 2896 
2849 2383 1727 2845 1641 2967 1170 3001 3333 
2908 2980 4106 1896 3848 2638 3000 2795 2660 
2900 3624 1745 2508 1112 2844 2665 3265 2244 
2361 2586 1920 2776 2372 4009 1002 610 2162 
787 2573 1335 1959 862 251 1160 1895 2624 
900 1230 742 2398 1712 1204 1483 1257 2172 
2460 2282 2239 1803 972 1818 503 1969 963 
1724 1629 1825 1974 536 121 2877 2055 2904 
1790 1358 2026 2571 1861 2073 2205 2778 2311 
3114 2334 2214 1306 2943 2503 2108 1977 2629 
2961 3243 1404 2232 1644 2990 767 2263 985 
1604 736 1835 1090 80 445 1926 1240 812 
1819 675 893 106 120 1101 2687 236 1010 
2219 1952 1451 870 1172 246 29 555 1979 
1509 3234 1191 2324 967 899 2087 937 984 
1967 1216 288 2038 554 2197 1340 1277 759 
1987 827 1756 22 1891 262 1646 2752 2138 
1721 1693 1433 2206 1708 2526 1607 1296 1470 
1533 2634 5256 5722 5356 3696 4367 4310 5744 
5339 5398 5966 5604 4417 5993 5967 5599 5100 
5143 4461 5571 5932 5731 5608 4920 4659 5105 
5271 5213 5806 4343 5466 4900 4201 6000 5975 
3881 5898 5883 5758 5999 4037 4650 4557 5656 
5135 4428 5252 5125 5660 5625 5592 5839 6024 
5619 4851 4719 4299 5719 5724 5836 4365 6040 
5409 6007 5745 5017 6053 5674 5519 5669 4972 
5177 5335 5227 5813 4833 5875 6029 5678 5948 
4617 6068 4995 5470 5870 4119 6023 5235 4997 
5817 6037 4977 6060 4727 5288 4677 5475 5025 
6022 5996 5189 5028 4229 5676 5404 4568 5535 
4387 5501 4235 4266 5590 5144 5909 5964 5627 
5366 5153 4512 5918 4513 4889 5638 5863 4681 
5224 5427 5803 5585 5845 3903 4256 5637 4759 
4726 4711 4661 3826 4986 4049 4197 4872 4232 
4668 4261 3628 4665 4017 3660 5471 3975 4669 
3865 3142 4186 3504 5198 4656 4925 3409 4954 
3069 3776 2646 5390 3457 5933 3954 4562 4021 
5570 4403 4350 5387 3872 5201 4263 4878 5137 
5523 5960 3525 4973 3164 4124 4827 5167 4170 
5230 4102 4552 5718 3451 5192 4781 4200 4154 
4813 4946 5243 4304 4845 4340 4891 4540 5145 
5903 4795 4773 5259 4583 4410 4929 4981 5889 
2480 2933 1622 3539 3572 2812 2846 2724 2353 
2476 3709 2140 2815 2899 2373 3347 3221 2798 
2950 3430 4531 3127 2587 3898 2787 5298 3453 
3285 4317 2562 3141 2913 4486 2374 3941 2864 
4211 3499 3433 3712 4016 4427 4242 3366 3288 
3790 3601 4329 3991 2607 3231 3443 5552 5067 
2648 5096 3392 3286 3154 1688 1419 2056 881 
2880 3134 2071 2478 1780 4006 2866 2109 1556 
1758 1769 2649 2325 2484 2074 3355 2915 2306 
1885 3471 3885 2831 2548 1734 1418 2231 1887 
2925 3460 4130 3534 3353 1735 3725 3343 2409 
1897 3905 3626 3431 2779 3521 2964 3771 2465 
2679 3184 3520 4260 3132 3038 3294 1762 3019 
2538 2902 4334 2265 3220 2888 1847 2137 3379 
2471 3921 3446 3844 3369 2991 3671 2924 361 
1071 1893 566 506 24 2375 839 747 1033 
2112 1014 1834 2499 600 2718 875 1981 1771 
1573 1649 2746 2120 1503 2228 1583 2652 1446 
1403 3380 2126 2984 53 3041 2494 2615 1218 
2934 2893 2349 2047 2347 4913 6050 5241 5587 
5792 6003 5383 5699 5118 4723 5984 5498 5522 
4991 4214 5886 3778 5816 4907 5491 5458 4852 
5600 5712 5460 5730 5351 4585 5410 5888 5015 
5713 6049 5245 6051 4732 5485 4846 5667 5707 
5336 4756 5469 5842 5207 4439 3963 5389 4383 
5914 5767 5721 4407 4330 5369 5624 4523 5550 
6020 6018 5300 5110 4701 5896 6045 5142 5166 
5393 5206 5222 5818 5140 5998 5763 5927 5322 
3542 5168 4165 5936 4393 5879 4821 5340 5345 
5317 4369 5379 5941 5917 5526 5762 4812 5428 
4575 4837 5871 5694 5575 5686 4698 5548 5997 
5320 5422 3084 3047 4683 4580 3635 4463 1115 
4158 4012 5785 4070 3449 4653 4605 4643 4599 
4268 3537 3576 4692 4318 5307 5013 3936 4127 
6055 3242 4342 5244 4378 2854 5925 4960 5355 
5852 3998 5969 3068 3479 3661 5862 4120 4162 
4947 4217 5782 3777 4893 3695 3106 3859 3567 
2110 2121 3227 3741 3775 2821 3469 3274 4313 
1672 2158 3361 3166 3237 2421 4301 3716 3549 
3354 1935 3543 3513 4314 4424 2922 4234 3659 
3072 4487 4048 3727 1742 3791 3261 3864 3562 
2946 3376 3066 5974 4715 4983 2937 3705 3476 
1522 5970 4608 5894 3246 2838 4996 5172 4658 
4267 5810 2560 5496 4796 5698 3378 4790 5553 
5209 5840 3006 3569 3013 4984 3982 5251 3678 
1998 3256 4606 5880 4948 5653 3450 4936 3638 
5937 4532 2537 3588 4466 4366 5559 2410 4943 
4896 4601 5935 3803 3293 4724 5639 4828 5328 
4155 5696 5253 3664 5218 5365 3017 3714 3798 
3561 4647 3102 3374 4050 4766 5190 5270 6033 
2065 4029 5621 4789 4091 5183 5055 3851 4205 
5583 4826 5598 3939 4544 5000 3005 4244 5053 
3413 2753 4623 4433 4292 2992 3023 3689 3516 
3475 3699 2568 3646 2740 3252 4817 4927 4908 
4824 4968 2053 4355 4309 4648 5364 2792 2487 
3987 4148 3356 2295 2759 1807 2597 3486 1821 
5881 2236 4298 4745 3746 1970 3480 4397 4560 
3408 4394 4183 4384 4736 3217 2887 6062 3305 
3133 4169 3925 3308 4238 3573 3807 4963 2873 
3137 2278 4379 3986 2457 3880 5778 3753 4474 
3839 5560 3519 3665 4115 5661 5706 4291 3979 
4847 5007 3454 4857 3890 2726 5279 6061 5375 
3510 2593 2863 3201 3650 2690 2916 5019 2728 
3677 2386 2758 2951 2523 4219 4471 2965 3399 