# vtk DataFile Version 4.2
Generated by LIGGGHTS
ASCII
DATASET POLYDATA
POINTS 6000 float
-0.0165661 -0.0170451 0.00845933 -0.00914018 -0.0176136 0.00617685 -0.0161199 -0.017657 0.00610539 
-0.0145082 -0.0188937 0.00639352 -0.0116891 -0.0205707 0.00609004 -0.0119828 -0.0183735 0.00688071 
-0.00975558 -0.0211784 0.00630594 -0.0139792 -0.0170666 0.00704652 -0.0101015 -0.0193718 0.00715247 
-0.0104441 -0.0173623 0.00798263 -0.01295 -0.0198438 0.00785617 -0.0111598 -0.0210168 0.00812103 
-0.00929148 -0.0219694 0.00815913 -0.0126595 -0.0175986 0.00889665 -0.0149266 -0.0185879 0.00853959 
-0.0111358 -0.0191223 0.00892905 -0.00930235 -0.0200576 0.00900042 -0.00907871 -0.0181963 0.01014 
-0.013891 -0.017129 0.0104031 -0.0158367 -0.0179188 0.0103646 -0.0136117 -0.0193214 0.010034 
-0.00997301 -0.0217054 0.0102417 -0.0119443 -0.0206839 0.0102554 -0.0108932 -0.0169561 0.00989792 
-0.00803406 -0.0201297 0.00657408 -0.00825371 -0.0185172 0.00825455 -0.00761773 -0.0223063 0.00481617 
-0.00381677 -0.0234884 0.0061317 -0.00739906 -0.0168488 0.00683355 -0.00646696 -0.0213125 0.00695877 
-0.00587738 -0.0232074 0.00650189 -0.00477432 -0.019666 0.00683784 -0.00442353 -0.0216994 0.00682897 
-0.0033112 -0.0181604 0.00705269 -0.00510823 -0.0173299 0.00667875 -0.00218667 -0.0219678 0.00713098 
-0.00127645 -0.018268 0.00675418 -0.000917253 -0.0203199 0.00691416 -0.00657145 -0.0188016 0.00717056 
-0.00286143 -0.0200871 0.00743861 -0.000854792 -0.0238145 0.00794065 -0.00491373 -0.023221 0.00852127 
4.40626e-05 -0.0190099 0.00808304 -0.0080681 -0.0224116 0.0105224 -0.00738068 -0.0203471 0.00845604 
-0.00726366 -0.0226513 0.00869756 -0.00515061 -0.0186769 0.00857772 -0.00340542 -0.0217791 0.00872392 
-0.000759198 -0.0216391 0.00851694 -0.00321412 -0.0182383 0.00905368 -0.00450699 -0.0167802 0.00855387 
-0.00548376 -0.0211535 0.00869722 -0.00279856 -0.0236857 0.00887523 -0.00127119 -0.0177717 0.0089476 
-0.00675764 -0.0172631 0.00869182 -0.00736565 -0.0171488 0.0105978 -0.00690591 -0.0189414 0.00983422 
-0.00401286 -0.0200149 0.00953786 -0.0016911 -0.019849 0.00904662 -0.00543911 -0.0175078 0.0101841 
-0.00117818 -0.02299 0.00995024 -0.00665309 -0.0209179 0.0103088 -0.00619538 -0.0231067 0.0104264 
-0.0040969 -0.0235003 0.0104613 -0.00276252 -0.021985 0.0106455 -0.0047515 -0.0215941 0.010522 
-0.000124478 -0.0184732 0.0104813 -0.00359907 -0.0167444 0.01043 0.00037086 -0.0221033 0.00689561 
0.000707406 -0.0175766 0.00679478 0.00116045 -0.0202253 0.00693078 0.00442112 -0.0216118 0.0067922 
0.00243734 -0.0220449 0.00690455 0.00370186 -0.0235632 0.00724262 0.00374848 -0.0182198 0.00693414 
0.0056799 -0.0231756 0.00701145 0.00577544 -0.017585 0.00706193 0.00637294 -0.0211086 0.00692445 
0.00769162 -0.0226032 0.00675705 0.00832863 -0.0204241 0.00685799 0.00156318 -0.0237584 0.00747548 
0.00505227 -0.0197611 0.00766063 0.00311974 -0.0201882 0.00733856 0.00695944 -0.0191447 0.00758282 
0.0020035 -0.0186265 0.00791831 0.000185152 -0.0202593 0.0096375 0.000652919 -0.0238551 0.00927887 
0.000655107 -0.0172335 0.00877243 0.000663922 -0.0222689 0.0105086 0.00139072 -0.0220914 0.0086284 
0.00546791 -0.0213546 0.00881698 0.00680766 -0.0228309 0.00862836 0.0035147 -0.0217128 0.00858096 
0.00485173 -0.0233179 0.00889761 0.00467385 -0.0181101 0.00874273 0.0073859 -0.0208186 0.0086243 
0.00263491 -0.0169559 0.0088388 0.0073772 -0.0171009 0.00895599 0.00282488 -0.0236487 0.00903917 
0.00215245 -0.020327 0.00924509 0.0017929 -0.0184326 0.00989959 0.00413433 -0.0199807 0.00942881 
0.00606417 -0.019416 0.00935268 0.00802188 -0.0189687 0.00926858 0.00263596 -0.0219712 0.0103584 
0.00792354 -0.0225572 0.0102677 0.00838688 -0.020613 0.0103476 0.00459636 -0.0216723 0.0106162 
0.00601626 -0.0230868 0.0105515 0.00643203 -0.0208742 0.010684 0.00393047 -0.0236137 0.010711 
0.00371316 -0.0183314 0.0104851 0.00861461 -0.0182149 0.0068772 0.00978614 -0.0218095 0.00680416 
0.0105984 -0.0178969 0.0068953 0.0126558 -0.0182335 0.00677958 0.0163973 -0.0173742 0.00688556 
0.0102749 -0.0198723 0.00689801 0.0123787 -0.0202258 0.00679791 0.01457 -0.0167497 0.00741264 
0.014555 -0.0188496 0.00737803 0.0112195 -0.0210368 0.00826463 0.0088199 -0.0222387 0.00850806 
0.00941254 -0.020278 0.00866285 0.00940466 -0.0176636 0.00864551 0.0121169 -0.0189329 0.00863926 
0.0155323 -0.0181889 0.00899735 0.0113978 -0.0170639 0.00852893 0.0136177 -0.0170824 0.00914035 
0.010086 -0.0216195 0.00998619 0.0104475 -0.0189625 0.00975769 0.0119989 -0.0206325 0.010066 
0.0138544 -0.0195506 0.00945216 0.0164474 -0.0173516 0.0105686 0.0170872 -0.0166981 0.00864021 
-0.0190579 -0.0143996 0.00604761 -0.0175027 -0.0160457 0.00599461 -0.0206217 -0.0119663 0.00712221 
-0.0188184 -0.0108799 0.0068208 -0.0217708 -0.0100181 0.00624555 -0.0187777 -0.00871108 0.00673093 
-0.0169982 -0.00989999 0.00698043 -0.0180853 -0.012764 0.00680622 -0.0195611 -0.0136696 0.00784864 
-0.0201265 -0.00988937 0.00806325 -0.0220796 -0.00921991 0.0081179 -0.0179658 -0.0154943 0.00800587 
-0.0188939 -0.0117625 0.00866491 -0.018099 -0.00961274 0.00869497 -0.0209074 -0.0113877 0.00921218 
-0.0198858 -0.0132099 0.00977782 -0.0192679 -0.0103995 0.0101186 -0.0206151 -0.00855296 0.00947884 
-0.0177515 -0.013349 0.00938608 -0.0172007 -0.0110921 0.00989795 -0.0186618 -0.0149743 0.0101171 
-0.0168861 -0.00868945 0.0100182 -0.0172657 -0.0164499 0.0102898 -0.0216855 -0.0101605 0.0106002 
-0.016596 -0.011941 0.00799755 -0.0164995 -0.0142626 0.00693412 -0.0153607 -0.0157384 0.00604877 
-0.0156589 -0.0125052 0.00594525 -0.0117958 -0.0160876 0.00669119 -0.0149806 -0.0105053 0.00681412 
-0.0136893 -0.0128772 0.00637692 -0.0110526 -0.0104155 0.00689897 -0.00956746 -0.0117095 0.00652759 
-0.0135361 -0.0150603 0.00689834 -0.0117408 -0.0123037 0.00668798 -0.0101534 -0.0137525 0.00670139 
-0.0130068 -0.0107446 0.00658075 -0.00911149 -0.00870239 0.00687698 -0.00974699 -0.0157315 0.0068408 
-0.0151171 -0.00844563 0.00701182 -0.0130469 -0.0088296 0.00722174 -0.0149696 -0.0135699 0.00805067 
-0.0140087 -0.0117276 0.00811243 -0.0120399 -0.0112564 0.00843096 -0.00966081 -0.0100615 0.00830214 
-0.0110234 -0.0148568 0.00820737 -0.00859533 -0.0137422 0.00812627 -0.0111114 -0.00839338 0.00679725 
-0.0115624 -0.00931268 0.0085147 -0.0157982 -0.00973493 0.0086133 -0.0104252 -0.0127928 0.00850341 
-0.0147129 -0.0163014 0.008763 -0.0129606 -0.0139777 0.00848572 -0.00840429 -0.0116628 0.00849705 
-0.0135114 -0.0099023 0.0089627 -0.0163144 -0.014822 0.00922559 -0.0123861 -0.0156777 0.00944118 
-0.00868519 -0.0162506 0.00863298 -0.0158254 -0.01297 0.00980321 -0.00968769 -0.0145476 0.00966922 
-0.0100209 -0.011389 0.00989403 -0.0115716 -0.0136708 0.00989601 -0.0148327 -0.0111266 0.00983669 
-0.0147826 -0.00885884 0.0101991 -0.00843031 -0.0129675 0.010145 -0.0142263 -0.0147003 0.00986797 
-0.0136263 -0.0127607 0.00997858 -0.00929845 -0.00959055 0.0103876 -0.0113162 -0.00918597 0.0105133 
-0.00914948 -0.0162463 0.0105794 -0.0119897 -0.0115574 0.0104458 -0.00787412 -0.012776 0.00649654 
-0.00770259 -0.0103612 0.00679225 -0.00217823 -0.0164694 0.00683893 -0.00752798 -0.0147383 0.00672058 
-0.00567528 -0.0137856 0.00682504 -0.00370272 -0.0133687 0.00700318 -0.00185776 -0.0125201 0.00698807 
-0.00204079 -0.0144829 0.00664777 -0.00466816 -0.0116093 0.00690222 -0.000265079 -0.0158335 0.00706186 
-0.00207642 -0.00949527 0.00721914 -0.00407769 -0.00970832 0.00713352 -0.00384929 -0.0153667 0.00716521 
-0.00592737 -0.0156413 0.00754273 -0.00599357 -0.00982923 0.00770818 -0.00654397 -0.0117555 0.00764035 
-0.000473145 -0.0105179 0.00800068 -0.00294029 -0.0111461 0.00798741 -0.000756626 -0.0138141 0.00807156 
-0.00766453 -0.0148463 0.0099204 -0.00774051 -0.0093627 0.0085803 -0.00465248 -0.0130014 0.00882731 
-0.00256364 -0.0162499 0.00878962 -0.00664282 -0.0137498 0.00859126 -0.00267716 -0.0133416 0.0087308 
-0.00207758 -0.00982307 0.00921939 -0.00472926 -0.0109176 0.00885497 -0.00392501 -0.00904696 0.0090193 
-0.000645581 -0.0157301 0.00902843 -0.00402176 -0.0149065 0.00911562 -0.00764354 -0.0106877 0.0100801 
-0.0058448 -0.0156264 0.00955317 -0.00588668 -0.00945841 0.00969289 -0.00624378 -0.0120624 0.00960478 
-0.00312531 -0.0116525 0.00992348 -0.00215872 -0.0147525 0.0100538 -0.00113515 -0.0121009 0.00903757 
-0.000519206 -0.00857224 0.00956115 -0.000370667 -0.0105192 0.00999725 -0.00366143 -0.0134993 0.0104918 
-0.00571316 -0.0138235 0.0104262 -0.00432618 -0.0102283 0.0106886 -0.00760256 -0.00844905 0.0103602 
0.00013655 -0.0122614 0.006926 0.000175124 -0.00895481 0.00693046 0.00750614 -0.0164141 0.00705133 
0.000794087 -0.0141483 0.00682409 0.00434693 -0.0162015 0.00684649 0.00235061 -0.0163517 0.0069537 
0.00128139 -0.0106231 0.00703981 0.00278894 -0.0143389 0.00679133 0.0021438 -0.0124356 0.0070052 
0.00296234 -0.00953544 0.00690438 0.00537475 -0.0101617 0.00689096 0.00600776 -0.0150723 0.00694868 
0.00744273 -0.0105542 0.00692737 0.00776579 -0.0141035 0.00703557 0.00802934 -0.00853545 0.00746333 
0.00588902 -0.0120826 0.0071353 0.00394711 -0.0116402 0.00735215 0.00462023 -0.0136556 0.00721475 
0.00771867 -0.0122853 0.00791652 0.00128257 -0.0153771 0.00835386 0.000402146 -0.0141512 0.00967187 
0.000518329 -0.0159695 0.0106486 0.00543381 -0.0162693 0.00852906 0.000853421 -0.0119271 0.00876652 
0.00420265 -0.00974946 0.00846099 0.00254263 -0.0108602 0.00858056 0.00355655 -0.015224 0.00842101 
0.00203708 -0.0135484 0.00866432 0.007088 -0.0151478 0.00863088 0.00115876 -0.00944097 0.00887408 
0.00647255 -0.00985724 0.0085347 0.00412836 -0.0163899 0.0100422 0.00510818 -0.0088008 0.00997062 
0.00302386 -0.00929922 0.0103403 0.00233564 -0.01534 0.0100578 0.00784624 -0.00908559 0.00977136 
0.00149762 -0.0110667 0.0104535 0.00651458 -0.0163728 0.0106117 0.00937958 -0.0100384 0.00688037 
0.0160652 -0.0153339 0.00684213 0.00957004 -0.0120947 0.00711554 0.0157272 -0.0101278 0.00688393 
0.0106351 -0.0158122 0.00701916 0.0153021 -0.0134195 0.00670305 0.0117689 -0.0141712 0.00716735 
0.0113517 -0.00977299 0.00710428 0.011701 -0.0117239 0.00677737 0.0136902 -0.0102315 0.00679231 
[...]
POINT_DATA 6000
FIELD FieldData 7
id 1 6000 int
1260 224 1169 508 534 837 561 632 587 
393 1047 1048 186 874 727 708 204 100 
84 888 104 803 618 407 1053 2497 49 
14 1132 83 1455 195 1416 12 1300 477 
719 889 1017 785 68 547 234 1265 896 
391 1473 1789 296 64 1095 1704 789 1739 
781 2097 1180 790 957 572 217 1685 2040 
630 148 1243 1273 1110 944 1464 158 108 
412 1655 1081 556 300 192 37 986 608 
179 443 533 287 1674 367 1012 349 624 
73 1737 428 206 1439 591 1517 419 214 
1176 1504 289 620 1242 1605 222 1543 1914 
1153 714 585 1202 227 297 1255 326 955 
298 13 1136 876 305 687 1540 1054 256 
46 230 794 1555 717 1188 117 1553 3168 
1212 941 1154 1753 539 1890 793 552 817 
1278 628 1426 701 954 595 588 1226 1203 
685 840 260 426 1130 1569 549 569 441 
231 1141 176 142 399 301 961 383 456 
404 97 353 992 143 151 102 1317 690 
223 498 1443 418 1405 1004 285 846 318 
154 1106 562 738 494 131 521 598 1089 
650 983 901 380 416 2010 1120 32 259 
479 904 67 741 1360 500 1070 497 946 
248 762 663 570 772 455 366 1266 207 
237 615 1060 584 850 1549 166 522 753 
1158 61 1233 558 457 545 683 373 885 
1275 235 1309 244 829 931 1395 274 99 
1429 639 980 777 700 550 638 253 1087 
1064 115 1518 879 532 56 581 712 156 
1799 394 724 725 664 81 1045 1716 958 
352 48 1074 90 631 715 375 1869 1658 
26 219 1092 123 1007 867 2113 199 360 
1038 279 1367 129 239 989 1221 1698 1428 
2013 273 797 2093 172 1228 2238 1390 334 
2793 1723 1904 1562 2293 1603 1363 1937 1978 
5048 1139 578 268 1052 371 1380 1772 605 
1827 833 691 1908 2141 1023 3911 3275 2673 
2399 3346 878 596 1621 1102 1928 2115 2424 
1585 894 1651 647 122 3997 3467 3083 2061 
818 1492 1615 1714 15 4536 454 1247 2674 
2011 3295 5931 21 20 1586 8 2470 909 
3853 2658 832 3117 501 5020 2931 1435 5334 
5773 1502 141 2194 810 695 1028 616 1986 
4001 537 511 392 189 431 693 333 162 
574 459 872 1069 688 139 1809 3152 1447 
795 1495 757 191 295 1588 356 858 322 
2246 213 1370 726 2171 811 641 265 1332 
451 1040 258 1001 469 211 834 678 825 
611 1031 607 540 808 551 385 721 526 
175 402 1044 819 220 7 1151 1399 515 
627 1024 763 1331 335 410 312 756 481 
93 173 16 1387 272 2500 1080 932 892 
165 646 988 132 59 1441 205 1118 692 
34 362 345 658 357 447 673 153 315 
805 4 150 994 1770 1913 341 411 634 
860 959 863 1108 973 101 138 1051 613 
771 1557 852 1059 1786 2045 698 2083 1506 
676 1096 1219 1103 495 1104 919 174 3170 
1980 1718 2960 323 1205 88 856 171 351 
327 1248 564 1085 897 238 1584 1100 3188 
1186 433 571 823 245 1654 1377 461 1105 
177 270 478 1948 342 1925 2601 728 1537 
1189 1436 1539 113 855 473 1313 45 71 
594 1764 1197 1725 1285 707 784 1938 1063 
215 2852 30 711 415 1098 1936 910 42 
590 1868 1950 1968 953 966 105 1460 998 
95 307 1368 2402 2606 2533 530 2142 2669 
1886 2105 2595 6014 1823 5281 6070 4697 4470 
5774 5353 5833 4388 3090 6001 4671 4055 5904 
3422 5324 4843 5850 4679 5486 4909 5018 5891 
4473 5556 5824 4421 4443 5623 6064 5472 5901 
4056 3713 1530 3538 5766 1072 614 4887 542 
4036 2215 3248 2104 4628 4191 4073 2625 5568 
4426 1127 5430 1671 124 749 2169 866 1715 
4248 2154 2358 1468 308 3546 2799 1217 504 
499 652 1126 2608 1099 751 144 340 1299 
1349 3027 200 1356 3108 65 845 134 3191 
2802 3401 4019 2532 2307 3259 2504 2179 2098 
849 116 669 520 1477 196 386 737 696 
140 58 529 127 264 622 1117 359 2492 
92 1717 543 1647 1392 1250 346 1330 1347 
119 799 135 1058 1989 743 1214 853 1427 
164 1822 482 1286 1635 1123 774 912 1149 
783 773 440 604 731 25 968 582 752 
635 807 754 1146 1668 1116 699 513 681 
1442 82 1225 321 381 869 841 226 943 
580 524 1784 1801 674 1162 733 306 798 
636 918 1365 1478 208 263 1005 396 765 
111 266 446 1481 1159 3 5 228 935 
934 1580 450 516 269 389 1131 181 423 
492 167 938 188 490 597 1458 1009 1445 
267 1386 1181 686 2549 3730 5793 5287 6002 
5139 4571 5980 951 5677 5709 5957 3440 1879 
3517 5951 5199 5708 4137 5616 4367 5068 3492 
5740 3349 5825 5171 5977 4332 4446 2720 5610 
2417 4748 1561 3131 5155 5492 5775 5082 4639 
5119 5011 5757 5938 5246 4819 3345 5663 4277 
5714 5670 5910 4539 4912 5847 5976 4209 3838 
3382 2920 3494 2618 3524 168 2481 1352 2642 
1689 2923 5701 4430 4787 5223 2391 4303 3652 
5703 4545 2941 4107 5474 5400 1670 3080 1630 
544 3918 47 1076 254 651 2308 1945 1234 
278 1381 960 666 979 313 1594 3606 303 
1848 2583 1927 2313 2912 107 4118 2351 2335 
2684 1785 2291 1600 2867 397 1043 689 517 
311 52 1867 3410 184 1617 865 2268 2245 
79 448 2536 1027 2297 1424 376 76 169 
1579 485 2633 1378 343 427 684 35 786 
1728 3447 2993 1453 1836 2379 612 1185 304 
425 1931 317 240 221 824 939 679 74 
198 398 110 1008 1500 804 1322 233 642 
2643 282 830 421 112 1318 4484 3478 3594 
2708 4969 4101 4541 3591 5248 3388 4356 4735 
6008 5261 5411 5816 5928 5002 6048 5359 5993 
5923 4166 4422 1249 3996 1333 3762 2432 4246 
5800 4974 5360 6 5204 3962 5808 5684 4198 
2570 4213 5692 4063 4176 5236 5185 5280 4903 
4368 4950 5118 5650 3819 4525 4117 5066 4895 
5311 4032 5959 1350 2458 5348 5557 3402 3742 
98 3463 995 3377 2829 2735 5764 5195 5786 
5704 243 5344 3873 4519 3022 4058 3836 5844 
5381 5006 4323 5037 1965 4561 1032 3924 336 
57 1133 1258 3254 2682 776 2288 3632 3861 
4147 2290 3611 1011 255 2296 3949 3395 91 
328 3672 197 1155 1167 854 1576 1128 800 
1797 2160 1703 1261 466 468 378 309 368 
1457 2204 2022 1314 320 1021 1829 519 735 
1026 884 1747 2396 370 337 1498 89 94 
2028 1075 913 990 2250 1865 1513 1078 857 
1253 1143 905 1015 1643 1174 1690 2 981 
1988 1025 828 364 2136 1018 1145 152 1884 
656 1766 1633 1510 1572 2072 1246 1013 10 
1414 417 2328 1592 11 965 1382 1152 1312 
1523 1355 619 1215 55 923 2389 1844 1316 
1597 1022 60 2431 1859 1684 2332 2940 662 
3281 3735 2148 2962 1854 2143 2059 2906 1628 
1493 2378 2987 2872 1997 1953 1514 2189 2725 
2614 4420 5831 1119 2081 1680 2220 976 2163 
525 1147 458 1733 348 2184 2612 2261 314 
1486 2078 193 1291 17 435 1552 2123 2006 
2423 1554 1840 2233 1701 1866 2513 1121 553 
2617 2416 1759 1808 2447 2653 2456 2732 1729 
2542 2234 2016 2031 2000 3002 1657 2348 2046 
2697 422 4647 2713 2144 1346 2237 2862 1909 
1485 3198 589 3020 3322 2738 1432 2972 1570 
2791 2663 2572 2466 1357 1201 722 332 1231 
483 216 33 637 2616 438 3104 1319 293 
2519 1389 3774 1636 2076 442 2264 374 2267 
2216 2543 2594 3155 3216 1810 372 1574 232 
493 723 1793 1673 908 1662 1535 1093 814 
1107 706 1310 1329 599 629 460 1034 1963 
1400 40 603 2341 1750 429 868 1940 1283 
1449 1982 1751 1371 769 1235 1173 1288 1339 
617 1343 250 2554 640 760 816 271 1820 
210 565 1452 713 606 764 347 563 704 
344 242 241 576 782 43 146 275 155 
160 225 1612 1682 1084 778 871 1224 775 
925 1035 72 1006 999 1462 1274 1175 276 
1362 510 36 1779 1421 1652 1334 2075 820 
682 1077 557 1611 1463 1091 284 2111 970 
1527 1222 1932 1767 1508 507 1620 509 1992 
1917 1295 1184 1041 1336 1194 750 1529 1531 
1239 50 1744 86 655 873 523 949 792 
891 406 449 465 1323 462 1638 1951 369 
18 2384 302 947 1083 1995 718 1664 437 
133 261 1193 39 1538 1164 1000 2118 2280 
1413 1575 579 1571 408 1113 1681 294 1515 
1802 1719 218 694 2260 1900 329 1232 1321 
653 2452 1732 927 1198 2350 299 2201 661 
740 1568 991 1590 2057 247 1161 2091 2315 
2609 2058 1990 1345 1648 1526 538 1536 1268 
710 975 734 190 703 974 2157 1407 680 
1223 1369 559 2418 779 1548 201 488 1843 
1144 1016 502 1892 1901 1964 66 1841 1237 
358 1042 1134 1775 1999 1398 1327 1852 842 
432 1020 886 1792 2252 815 1488 1210 1227 
1625 1741 2321 1082 1903 2155 2406 2559 2025 
2229 1430 1471 982 1238 1677 1359 2773 1304 
2419 1289 1813 1692 331 2329 2393 1065 1475 
2443 758 1906 3073 2192 1942 2413 4281 1241 
4351 2540 3706 864 4375 2620 3262 2890 1800 
2747 4792 2651 1683 3187 2119 2270 1578 3331 
2748 1922 3592 3535 2882 1918 2285 2722 1939 
2628 3291 2963 2978 1270 1788 2488 2561 4687 
1973 4103 2997 3149 2977 4390 4285 3359 3765 
4861 2886 4502 4121 2919 4083 5001 3532 3788 
4712 4090 3529 3966 3303 4271 2935 4490 3461 
3126 3370 3118 4655 3060 4808 4730 3878 3444 
2970 3908 5385 4160 716 1640 1388 1138 1860 
1307 5508 2147 1921 541 2462 5012 4497 4358 
1828 1804 1564 3526 3062 1342 1877 5815 514 
1213 5293 395 1422 5581 3014 3455 3071 87 
1593 1199 1491 978 2272 2082 2969 1037 1814 
5173 1480 2705 2834 137 2243 1292 3196 3324 
2742 2515 3763 4386 2186 3146 3950 3272 1609 
161 848 1397 859 4207 1878 2647 1254 1738 
2209 1993 126 182 1142 1434 2482 3302 2240 
3171 229 163 3292 677 1484 887 1150 2514 
806 1994 2518 1124 2269 1303 1328 3586 1642 
2754 1411 2258 1546 1817 1122 1899 2085 2605 
2051 1461 3362 3031 1898 4593 1791 3074 3099 
1934 2014 1933 1850 586 1337 23 1293 1613 
387 382 1111 350 489 63 895 180 1036 
518 1311 118 85 1376 1166 1567 1384 1366 
1566 1731 286 956 354 1837 755 1437 339 
1344 1325 1472 2210 1372 928 1558 898 310 
252 3507 203 922 2248 1599 1178 1856 1267 
2017 1114 484 2768 1666 319 1244 1663 1163 
997 2956 1765 1862 2577 1639 1209 1393 1815 
643 1659 1271 1743 1783 1305 2401 1183 1465 
2277 2048 2151 831 1061 2889 2156 1385 1086 
1476 1148 1348 1787 1851 1479 1695 496 1354 
355 185 720 567 1417 1565 649 1450 476 
2429 1889 791 1137 766 788 770 1379 27 
665 70 405 1326 280 836 1623 1262 1618 
950 403 2088 882 1700 1157 1589 977 2145 
940 194 2052 2153 601 1079 843 1699 697 
2298 2567 1256 705 1795 1456 1794 2106 1055 
2084 2483 1294 1088 1824 2255 2331 2254 2001 
2557 1845 1946 906 1499 471 512 1208 548 
2020 768 1519 560 62 746 1308 1501 1713 
1207 1 1494 2711 527 125 730 475 1287 
1394 1512 902 916 1919 1996 257 1544 1591 
3011 2008 365 577 1090 654 1297 1624 1029 
251 1474 1757 2710 948 1595 610 1894 900 
2582 1629 2505 1049 933 1200 2343 862 1606 
1858 1803 491 1263 1220 390 1705 130 3397 
3536 3250 1645 474 2166 3121 546 623 593 
78 1374 147 77 531 2339 729 2751 1259 
1947 1406 767 675 3223 3150 106 1601 1240 
1190 926 2520 633 2588 985 3319 2049 2253 
1608 2035 870 1451 2400 893 1375 648 2437 
1284 2545 2282 1819 3332 1489 736 937 555 
796 1279 1298 2087 967 288 2289 554 4880 
5926 4720 5987 5900 5805 5052 5788 5779 5930 
6017 5799 5576 5539 5605 4335 4976 5464 5882 
5794 4728 5229 4459 5569 5635 5946 5266 3607 
5690 5073 3109 3258 5846 5231 4674 3792 4959 
5446 4961 5429 2102 3618 4651 2395 5554 4370 
4700 5296 5214 6052 5309 5220 5725 5675 5239 
5734 4768 5131 4799 3883 2979 5377 3176 3938 
4979 3820 4573 5561 2135 4177 2535 5047 4965 
2167 4222 4408 4848 3078 1454 5432 1545 3894 
3160 4757 761 2551 3922 5292 6038 5029 5196 
3462 5027 4319 3348 5994 3892 4105 4534 3822 
4807 5310 4028 4522 5150 3926 4758 4203 5494 
4003 6006 5163 4862 5986 5631 5858 4595 4425 
3870 4664 4761 4902 4452 4237 3553 4660 4156 
4782 3193 668 1420 2262 2847 2249 2152 1187 
2516 2094 1761 1957 2405 929 1466 2621 1438 
1627 2117 2703 2828 2177 936 2463 2761 2553 
3578 2569 1678 1923 3477 1650 2043 1315 2666 
3053 1864 4400 1665 4696 1206 2626 1687 3335 
3623 3021 2128 3179 3050 2191 3970 1830 4872 
2360 2438 1755 3192 4278 3238 2218 3975 2968 
2257 2723 2619 4164 2631 1972 2627 2861 4592 
2770 3300 3625 2390 2496 1290 821 159 1541 
1097 880 813 400 145 659 1109 583 838 
377 877 969 1281 861 2132 1773 1412 1547 
1929 1949 467 2453 28 1842 1003 667 2202 
2127 2116 2604 2336 1881 1135 430 324 2183 
2168 2818 1402 2784 2760 964 1831 2976 2480 
136 1616 2911 2063 1924 1505 1722 2353 2408 
2815 1702 2797 748 2312 2019 2613 2140 54 
1066 1050 1520 38 1720 1211 945 626 1192 
281 409 660 1796 1614 942 1039 1872 149 
2107 316 1691 1341 528 1019 31 1408 157 
1269 915 2501 452 645 420 1094 1653 1706 
2449 1710 1409 1985 338 1748 170 1496 1736 
2029 1497 787 1983 1423 2162 1895 592 2100 
2573 917 1483 1622 1335 1230 1160 3154 503 
1818 1204 2624 1780 1257 742 1688 1712 2398 
2172 3347 202 325 921 671 187 414 1056 
1846 178 835 434 1696 51 486 914 2131 
2165 826 439 1125 802 80 1046 379 1301 
996 424 987 812 445 847 1752 1528 1959 
844 1926 1272 1582 120 361 1101 566 1010 
1172 2219 2687 1979 236 1952 1847 1191 1509 
246 506 963 2112 984 29 2324 747 3234 
1967 1756 1216 2038 2197 1033 2471 600 1556 
5804 5141 5567 6028 6031 5339 3837 5966 4659 
5599 5737 5722 5538 5208 5356 4201 3696 5143 
5466 3648 4834 5744 6000 5326 4920 4343 5758 
4557 5656 4776 4801 5607 4854 5821 4152 5040 
5419 5911 5116 4360 5860 4894 5644 5622 6015 
5135 5563 5105 6058 4310 5571 4860 4675 4616 
4157 5252 5178 5741 5138 5100 5271 3642 5967 
5520 5836 6007 6040 4299 5398 5728 5674 5420 
3219 5939 5660 5839 3045 5288 5308 3881 5017 
5256 5235 6023 4900 4677 5877 5592 5470 5519 
5335 5177 5125 4727 4719 5724 5565 4229 4769 
5543 5130 5856 5537 5501 4617 5669 4428 5817 
5590 5028 5996 5189 5878 5551 6029 5578 5638 
4995 5803 4235 5676 5475 6060 4922 5366 4681 
6024 5154 5527 3064 3649 2430 1871 3186 4110 
5046 4172 3681 5394 5619 4150 4910 3736 2064 
5301 2146 4901 4598 3603 3731 2677 5612 4602 
4413 4938 5099 5647 4546 5435 5405 4178 6053 
4338 4833 4986 4389 5342 5870 4759 2603 3249 
4049 4661 4232 5745 4665 3826 6022 4197 4656 
4119 5227 3628 4669 5471 5198 4925 3903 4668 
4365 5845 4186 4977 4954 3142 5791 4827 5025 
3872 5387 5960 4568 5637 3069 3954 3457 5933 
4263 4924 4917 4610 2486 3279 2954 3960 3225 
3863 2281 2995 3740 2772 4514 3862 2789 3373 
2223 1876 4436 4167 3424 470 5158 2714 2661 
1782 2947 1915 2879 1916 4188 4726 4158 4100 
4261 4711 3151 3572 3563 3539 3047 2933 2300 
2724 3430 4017 3504 3393 3865 3709 3660 2476 
2950 2812 3898 4531 3127 4021 3285 4599 2798 
4127 5393 5298 3409 4878 4486 4317 3221 2846 
3453 4692 2099 41 96 19 1883 702 621 
575 75 2436 1068 2041 1661 2522 2354 2284 
1984 2018 1875 2699 1383 1524 2103 2632 3084 
2865 2242 2866 2373 2880 2056 3799 881 1758 
2325 3134 3361 4268 2433 1769 2649 2899 3449 
2787 3227 2109 2484 4006 3355 2548 4313 3469 
2074 1885 3859 2640 363 487 809 780 505 
464 277 1179 291 1182 2596 907 1656 480 
971 2851 109 670 2381 2657 1806 2004 24 
2080 890 2375 839 3051 1014 1467 2478 1834 
3106 875 2071 2499 1742 1981 2306 2110 5604 
4850 4461 5213 5521 5932 5515 5719 4417 6003 
5861 5975 4851 6050 5806 5600 5608 6068 5409 
4852 5813 5535 5999 4037 5731 5792 5875 5713 
5241 4129 5739 6037 5549 5883 5898 5627 5948 
5410 4788 4650 4913 5015 5245 5153 5336 5460 
4991 5424 5498 4907 4014 6065 5736 5403 5630 
5414 5699 5869 5721 5760 5767 5392 4214 4972 
3778 5886 5585 5075 4723 5828 5449 6020 5514 
5491 4939 5624 6018 5522 5389 5896 5300 5458 
5351 5222 3963 5984 5523 5712 5730 4997 5667 
5998 5383 4585 5818 3542 4383 5587 6049 5879 
5888 4846 5390 4393 5707 5206 5404 4732 6051 
5936 5485 4165 4756 4387 5941 5914 4369 5917 
4575 4346 4874 3101 4076 4070 4937 4489 3845 
3635 3812 4407 4582 5110 4494 4657 5142 5763 
5140 5550 4330 1115 4701 4580 4405 6045 5369 
5379 5166 4012 4523 3537 5345 5322 5168 3936 
4812 4821 5762 5307 6055 5013 5927 5317 4318 
4683 5782 5785 5355 5925 4653 4643 3957 3043 
3945 1073 3566 2524 3604 1156 3766 3122 3655 
3811 2050 2585 3434 3437 4463 3614 2729 4145 
2786 3576 3009 4605 3741 2164 3787 114 2345 
2129 2023 1954 1057 69 2411 2007 2721 2185 
2737 2579 2203 1679 3115 1482 3378 3356 5974 
3133 2457 3573 1905 3016 962 3129 2125 2928 
2407 2190 2781 1907 5840 3738 2425 2537 3024 
1805 3497 2891 3037 3700 3678 6063 4506 5190 
5074 2563 5019 2951 3988 4385 5218 3982 3540 
4898 3017 4766 2566 3561 3374 3464 3102 4098 
3297 1763 2096 5270 2541 1373 3035 3211 4273 
3023 3030 6033 3570 3798 4224 4254 3252 5937 
2434 5365 3210 2992 3005 3475 3384 3784 5251 
4029 4040 4760 2927 3516 3239 3558 4173 3797 
2796 3909 3619 4482 4629 3860 4433 5217 5169 
3689 4148 4292 4520 4817 3646 5848 5835 4648 
3548 4184 4353 5662 3699 4469 4695 4258 5628 
2067 384 1030 183 2491 1251 330 444 2224 
1229 1619 3165 2217 920 1448 1863 2578 2009 
4918 1264 4169 2227 3418 4384 1807 4690 5778 
5069 3724 3588 2455 1425 2644 2376 2092 1960 
9 1707 1280 993 1991 453 1525 2309 2037 
2159 2730 1930 463 2502 1577 2734 2380 2850 
2366 1067 2958 2274 2175 2212 2814 2680 2469 
2892 5962 2622 2495 3061 3224 3753 5457 2744 
3986 3800 5373 4745 5489 3308 4183 2581 1587 
283 2176 2333 2174 2200 2830 1754 1838 2733 
128 1912 2021 2170 2736 609 1196 2641 3328 
1711 249 2211 2765 1975 2686 2337 2817 2525 
2101 3801 2813 3125 2498 3421 4187 2988 3426 
3123 3560 2512 4155 2916 3806 2832 3086 2451 
3399 5156 4219 3048 2758 3197 5855 4079 2523 
2241 3269 5606 2364 1853 1542 1444 3602 2222 
2982 2610 2555 2507 1245 3075 2667 2531 2027 
1364 3458 2320 1676 3280 2881 2124 2247 2370 
2178 2226 2323 1888 1602 1140 1415 3470 2314 
1660 1324 3172 2012 2362 2694 2539 2635 2756 
2468 2999 2790 2319 2427 1746 3357 5583 5798 
2173 5639 3363 2701 3371 5299 3891 2750 2827 
2394 2932 2039 2235 4182 5532 5748 3413 1487 
3627 2592 1749 3857 1338 4193 2745 3067 2139 
3095 3025 2917 2564 4673 3708 3195 3590 2068 
3992 2678 1943 1560 2994 3358 3928 3769 3448 
3156 3189 1532 3314 2860 3372 3840 2576 2696 
3551 3465 4645 2387 2639 4958 4230 4678 3263 
3245 2044 2874 3934 5958 4951 3897 3622 3230 
2461 4914 3472 5533 4143 4135 5659 5626 5978 
5769 5636 4287 4881 2645 4020 5030 5043 2825 
5091 3087 3207 5702 3703 2957 4134 2767 3685 
3767 5640 5477 2036 2475 5194 3579 5596 822 
3980 1849 3233 2804 2876 2310 2445 5004 2656 
3818 5056 3416 103 4818 3183 5790 2188 3091 
5086 1874 3145 3340 2759 3847 3849 5586 1870 
4849 2275 3901 5602 3317 4044 4691 4376 2295 
2981 2905 4896 4963 3501 5221 2302 2807 3059 
1855 2671 1631 2195 2193 1598 739 1781 2755 
2840 2327 2403 3326 2371 3489 883 2033 2695 
930 3351 2467 3175 3004 2743 2060 3301 3423 
5876 2077 2938 2283 3807 3321 3835 3081 4194 
3204 3577 2181 5286 3077 4013 1774 2066 1171 
1282 1955 3205 2521 1252 2114 2511 2675 2895 
2692 2952 3012 3174 2259 2826 4243 4053 2870 
2623 5182 3015 3329 2907 2766 2338 2490 2774 
2552 2930 2659 3509 2655 1778 2493 3554 3226 
3215 3367 3748 2971 4185 1833 4663 4300 3673 
3057 1610 3483 2024 2182 413 1129 1667 2377 
1062 2365 1961 1634 2346 1353 1165 2032 2547 
2517 2367 2095 2550 1551 1776 2441 1694 2412 
2086 1236 1641 2584 2316 2670 2479 1550 2460 
1760 2273 2580 2883 2305 1195 1559 1956 2359 
1669 2983 1726 2330 1637 2444 2811 2266 2869 
2251 2771 2042 2565 1740 2822 2062 2026 2599 
2974 2198 2213 2130 1962 2344 3522 5041 2317 
2868 2650 3206 2681 1880 5540 1404 2356 3544 
3304 4392 3130 2271 3163 2819 3666 3782 2574 
1002 3360 1839 2528 1516 1790 1276 2230 2388 
2357 2571 1911 2700 2161 1302 1977 2187 2108 
1873 1697 3044 1902 3613 2503 3846 1798 2709 
3105 1709 2352 2322 3831 1826 2706 2385 3420 
3888 3688 2685 3228 5302 3200 1469 3886 3159 
2715 3668 4415 2079 3732 3119 2704 3913 3124 
4141 4321 5609 3481 3867 3641 2763 3235 899 
745 759 1604 1835 1987 1675 827 1812 1277 
2221 2286 2809 2810 2589 2303 2855 2785 2816 
3232 1607 2739 4718 3917 2304 2591 4097 2777 
4450 2878 4280 1361 625 3315 5269 3698 1320 
2898 1470 4949 3728 4933 5776 2225 4095 3629 
3218 3887 4637 2474 3657 2698 3488 1351 1970 
3620 4897 5761 5065 4312 4125 5323 2929 5442 
5950 3097 5081 4008 4418 2558 5705 5438 5181 
4944 4729 4703 5887 3278 4670 5524 2805 5279 
3914 5829 4515 3194 5801 4888 6011 4015 5668 
5054 5580 3972 3405 3665 6021 4811 5448 5865 
4071 2833 4294 3316 6032 4467 3169 2808 5509 
4298 4062 4416 4128 3547 4940 5711 5511 4771 
4612 5123 3745 3630 4088 4500 4855 4212 4604 
4226 3989 3940 3868 3965 4326 4181 3816 4111 
4274 5129 3533 3212 3723 4638 5205 3093 3958 
5240 4218 3162 5495 4953 3789 4999 5164 4926 
2691 5183 3874 3900 4066 5108 4086 3645 2414 
3776 3815 2392 3375 3181 2948 3394 3076 3407 
5085 3598 3605 4382 2926 3414 3143 2196 3136 
4556 3680 3135 3715 2949 3817 2326 2415 5107 
4202 2859 3574 3318 3702 3112 4245 4528 5008 
2598 4252 3761 3128 3809 4859 3581 3658 3850 
3662 3523 3647 3842 2693 2586 4586 4093 4374 
4444 3425 4357 4052 3640 3336 3284 3802 2587 
2440 3209 1910 2090 3419 1626 2292 2896 2864 
2383 1857 2849 2845 3333 2967 1727 1825 3848 
4106 2908 3000 2980 1170 2660 1896 2638 3001 
3624 2844 2795 2900 2361 1112 3959 2508 2665 
3556 2776 2232 3265 1745 4009 1920 3718 2342 
3298 3182 2372 2244 3082 3555 3545 1768 3058 
3229 5314 3498 1358 2239 1974 2904 972 1969 
1724 536 121 2055 1735 1418 1887 1419 2877 