# vtk DataFile Version 4.2
Generated by LIGGGHTS
ASCII
DATASET POLYDATA
POINTS 5999 float
-0.0175661 -0.0413536 0.00350808 -0.0137909 -0.0426593 0.00313906 -0.0157253 -0.0420948 0.00716593 
-0.0194065 -0.0405267 0.0071967 -0.0121614 -0.0432519 0.00857127 -0.0175099 -0.041441 0.0109733 
-0.0138926 -0.0427134 0.0121407 -0.0100436 -0.0438735 0.0120927 -0.00983378 -0.0422461 0.00391971 
-0.00650571 -0.0445013 0.00391722 -0.00265574 -0.0434119 0.00400705 -0.00607535 -0.040523 0.00431914 
-0.00256112 -0.04005 0.00622351 -0.00987321 -0.0401584 0.00735711 -0.00431167 -0.0447447 0.00742534 
-0.00838034 -0.0441807 0.00750536 -0.00592071 -0.0407043 0.00832532 -0.000816059 -0.0449699 0.00946367 
-0.00269464 -0.0412828 0.0106917 -0.00620157 -0.0437176 0.0109483 -0.00841354 -0.0402613 0.0114534 
0.00104168 -0.044975 0.00392671 0.00877807 -0.0440671 0.00381645 0.00474893 -0.0434337 0.00425252 
0.0017806 -0.040555 0.00429707 0.00465026 -0.0410944 0.00756263 0.00879624 -0.040911 0.00751185 
0.00686849 -0.0444512 0.0075249 0.00284896 -0.0448919 0.00764546 0.000697477 -0.0415366 0.00802081 
0.00987373 -0.0439125 0.0101108 0.00497708 -0.0446907 0.0110968 0.00704512 -0.0412544 0.0110983 
0.00111857 -0.0410464 0.0119897 0.0105448 -0.0404724 0.00372564 0.0149315 -0.0418982 0.00418031 
0.0118385 -0.0433865 0.00632131 0.0176298 -0.0413887 0.00732567 0.0143842 -0.0425699 0.00938311 
0.0113347 -0.0401972 0.0105231 0.0176303 -0.0413858 0.0116497 -0.0304286 -0.0331503 0.00422689 
-0.0318104 -0.0317404 0.00774855 -0.0311176 -0.0324841 0.0121672 -0.0248012 -0.0333154 0.00383004 
-0.0246904 -0.03754 0.00377554 -0.0212554 -0.031258 0.00400056 -0.0212059 -0.0353813 0.00397374 
-0.0212507 -0.0396126 0.00369539 -0.0275666 -0.0355296 0.00569697 -0.0269197 -0.0316602 0.00690034 
-0.0231585 -0.0343811 0.0074682 -0.0229586 -0.03869 0.0072891 -0.0232475 -0.0304141 0.00801748 
-0.029038 -0.0342375 0.00920588 -0.0259287 -0.0367705 0.00915902 -0.0254505 -0.0328646 0.0104483 
-0.0226578 -0.0362107 0.0115625 -0.0218194 -0.0316676 0.0116581 -0.0284186 -0.0300307 0.0102458 
-0.0142839 -0.0311664 0.00404289 -0.0141983 -0.0351735 0.00397379 -0.0176073 -0.0373244 0.00398792 
-0.0177721 -0.0332227 0.00412623 -0.0118803 -0.038702 0.00381776 -0.0102791 -0.0318005 0.00431629 
-0.0111216 -0.0356581 0.00649395 -0.0147593 -0.0382443 0.00665492 -0.0197151 -0.0322924 0.00757152 
-0.0195634 -0.0365217 0.00751416 -0.0161881 -0.0343407 0.00779989 -0.0127772 -0.032214 0.00776344 
-0.0128318 -0.0354083 0.0101816 -0.0166694 -0.0375824 0.0101067 -0.0126198 -0.0394029 0.0102129 
-0.0183405 -0.030008 0.0105731 -0.0190883 -0.0345082 0.0109423 -0.0144885 -0.0309261 0.0111778 
-0.00811395 -0.0370781 0.00426556 -0.00635396 -0.0309797 0.00402266 -0.00390965 -0.0342505 0.00414002 
-0.000788493 -0.0371956 0.00402302 -0.00236217 -0.0303769 0.0042061 -0.00753723 -0.0338363 0.00656399 
-0.00504728 -0.0369684 0.00694605 -0.00186676 -0.0339421 0.00756588 -0.00830984 -0.0300256 0.00757909 
-0.000347876 -0.0302362 0.00767009 -0.00432542 -0.0307859 0.0079104 -0.0083725 -0.0368217 0.00917937 
-0.00177603 -0.0375636 0.00926356 -0.00525015 -0.0341715 0.00983527 -0.00954793 -0.0330845 0.00999083 
-0.00661793 -0.0306025 0.0111873 -0.000192359 -0.0346003 0.0115404 -0.00518171 -0.0379017 0.0113443 
-0.00272331 -0.0311679 0.0119647 0.00651731 -0.039841 0.00418795 0.000426526 -0.0333837 0.00423201 
0.00733538 -0.035096 0.00415993 0.00877182 -0.031355 0.00414726 0.00336419 -0.0362435 0.00405653 
0.00436576 -0.0323806 0.00443283 0.0098542 -0.0371782 0.00649431 0.00575804 -0.0372581 0.00716213 
0.00179556 -0.0377334 0.00744266 0.00365566 -0.0300401 0.0076009 0.00628461 -0.0333448 0.00783513 
0.00212086 -0.0337335 0.00785762 0.00833979 -0.0375595 0.0102047 0.00403876 -0.038647 0.0106768 
0.0055574 -0.0309778 0.0109973 0.00155958 -0.0310103 0.0111447 0.00858485 -0.0336739 0.011172 
0.00405279 -0.034688 0.0112469 0.0126973 -0.0305891 0.00390492 0.0179797 -0.039148 0.0040219 
0.0167095 -0.0313031 0.00399099 0.0114655 -0.0343975 0.0040354 0.0178749 -0.0351585 0.00453825 
0.0144332 -0.0371698 0.00399048 0.0147395 -0.0337371 0.00659683 0.0130424 -0.0396054 0.00695443 
0.0164573 -0.0375606 0.0074294 0.0102521 -0.0324954 0.00770161 0.0185288 -0.0325635 0.00754391 
0.0123906 -0.0355854 0.00926254 0.0135702 -0.0317489 0.00989218 0.0163301 -0.0346535 0.010181 
0.0148028 -0.03826 0.011006 0.0175194 -0.030958 0.0111653 0.0186715 -0.0375186 0.0117209 
0.0207008 -0.0313294 0.00434658 0.0254359 -0.0370413 0.00426747 0.0218829 -0.0351865 0.00435345 
0.025252 -0.0330232 0.00429542 0.0292803 -0.0340684 0.00451439 0.0219723 -0.0392416 0.00478305 
0.0281257 -0.0302409 0.0041061 0.0233478 -0.0300709 0.00710248 0.0273737 -0.0357165 0.00763141 
0.0201927 -0.0361876 0.00787136 0.0235478 -0.0340079 0.00782371 0.0240704 -0.037986 0.00795374 
0.0267832 -0.031708 0.00835312 0.0207819 -0.0398974 0.00928627 0.0213693 -0.0316382 0.0102376 
0.0225406 -0.0361241 0.0111685 0.02777 -0.0353894 0.0116222 0.0282307 -0.0302085 0.0118156 
0.0249135 -0.0325434 0.0119423 0.0322135 -0.0313814 0.00397151 0.0306278 -0.0326813 0.00973113 
-0.0399773 -0.0205862 0.00355872 -0.0327464 -0.0297704 0.00404244 -0.0358614 -0.0271645 0.00404138 
-0.0324491 -0.0218797 0.00433278 -0.0370264 -0.0233196 0.00399372 -0.0331535 -0.0253489 0.00636757 
-0.035114 -0.0220382 0.00750473 -0.0303333 -0.0280389 0.0073439 -0.0391191 -0.0221509 0.00729267 
-0.0345206 -0.028767 0.00793377 -0.0369913 -0.0255368 0.00827624 -0.0310816 -0.0221893 0.00850654 
-0.0336084 -0.0247221 0.0103106 -0.0320155 -0.0284623 0.0110547 -0.0352325 -0.0212069 0.0114489 
-0.0379726 -0.0241592 0.0119184 -0.0297819 -0.0255241 0.00417878 -0.0287087 -0.029387 0.00383164 
-0.0215791 -0.0267837 0.00387603 -0.0222219 -0.0227992 0.00424142 -0.025679 -0.0253334 0.00404288 
-0.0282312 -0.0218327 0.00404881 -0.0247101 -0.0292563 0.00432343 -0.0277186 -0.0240389 0.00736903 
-0.0243297 -0.0219298 0.00772193 -0.0262906 -0.0277819 0.0076898 -0.0228777 -0.0256871 0.00758635 
-0.029632 -0.0252711 0.0106854 -0.0278299 -0.0216432 0.0107849 -0.0256273 -0.0251776 0.0107265 
-0.0219877 -0.0234827 0.0108853 -0.0219124 -0.0277188 0.0110037 -0.0241477 -0.020112 0.011297 
-0.0178283 -0.0291117 0.00377005 -0.0179302 -0.0251262 0.00412556 -0.0185591 -0.0211549 0.00410448 
-0.0139625 -0.0256683 0.00415066 -0.0145878 -0.0217015 0.00424281 -0.0102753 -0.0240295 0.00400194 
-0.0109254 -0.020073 0.00442553 -0.0121004 -0.0285669 0.00623395 -0.019877 -0.0283127 0.00717404 
-0.0196323 -0.0233459 0.00731062 -0.0121675 -0.0226375 0.00732738 -0.0157721 -0.0243744 0.00753354 
-0.0158535 -0.0295613 0.00745603 -0.0102937 -0.0259564 0.00867032 -0.0138865 -0.0271512 0.00998297 
-0.0184302 -0.0259701 0.0100911 -0.0182771 -0.0219895 0.0108329 -0.0104518 -0.0292908 0.010914 
-0.0112808 -0.0215487 0.0110804 -0.0146908 -0.0235823 0.0116221 -0.00693758 -0.020914 0.00445699 
-0.00874602 -0.0277776 0.00420292 -0.00410993 -0.0239181 0.00415388 -0.000253331 -0.0228588 0.00436427 
-0.00111562 -0.0267169 0.00530361 -0.00501683 -0.02754 0.00564615 -0.00725262 -0.0243173 0.0066216 
-0.000464663 -0.020052 0.00721049 -0.00161068 -0.0237986 0.00803256 -0.00466416 -0.0212269 0.00829869 
-0.0086535 -0.0208734 0.00811136 -0.00627837 -0.0270286 0.00941325 -0.00228672 -0.0273734 0.00969642 
-0.00788683 -0.023679 0.0109213 -0.0029077 -0.0237114 0.0118238 -0.00552965 -0.0207013 0.0121891 
0.00936361 -0.0273834 0.00429291 0.00648293 -0.0246237 0.00394231 0.00358 -0.0217846 0.00396242 
0.0054673 -0.0285215 0.00426918 0.00261183 -0.0256718 0.00426406 0.00156522 -0.0295323 0.00419934 
0.00685159 -0.0213062 0.00623679 0.00761921 -0.029486 0.00750187 0.00525862 -0.0261377 0.00747539 
0.00233323 -0.0233141 0.00751265 0.00902749 -0.0241586 0.00919117 0.00172041 -0.0269505 0.00927555 
0.00548027 -0.0224133 0.00983629 0.00177799 -0.0213836 0.0110067 0.00707921 -0.0272726 0.0108537 
0.00830415 -0.0204919 0.0119322 0.00379015 -0.0250526 0.0123223 0.0168189 -0.0273218 0.00360769 
0.0135035 -0.0251096 0.00406588 0.0129836 -0.0206665 0.00427392 0.0165413 -0.0225165 0.00429545 
0.0199701 -0.0248337 0.00403178 0.0100664 -0.0235299 0.00536773 0.0197231 -0.02823 0.00679856 
0.0124538 -0.0278316 0.00680244 0.0166316 -0.0252627 0.00723093 0.0133313 -0.0229309 0.00763355 
0.0160042 -0.0294222 0.00773285 0.0176016 -0.0208258 0.00780835 0.010252 -0.0203661 0.00814135 
0.0196829 -0.0239513 0.00946808 0.0106097 -0.0290628 0.0101384 0.013086 -0.0259112 0.0102973 
0.0159476 -0.0231322 0.0106705 0.0169112 -0.0270132 0.0108326 0.011856 -0.0222301 0.0113041 
0.0226627 -0.0278551 0.00384323 0.0240071 -0.0240796 0.00388114 0.0268797 -0.0212803 0.00393939 
0.0270233 -0.0264766 0.0050102 0.0216728 -0.0221334 0.00650154 0.0257599 -0.0229342 0.0074194 
0.022839 -0.0258165 0.0075988 0.0297088 -0.0290606 0.00759471 0.0299686 -0.0237254 0.00465335 
0.0289303 -0.0252033 0.00831744 0.0260195 -0.0278358 0.009161 0.0236452 -0.0202695 0.0095272 
0.0208706 -0.0276577 0.0105934 0.0245196 -0.0243306 0.0109697 0.0273516 -0.0210313 0.0108588 
0.0336716 -0.0298015 0.00861012 0.0374836 -0.0247716 0.00405607 0.0338967 -0.0230243 0.00437182 
0.0310774 -0.0275333 0.00412497 0.0349965 -0.0281383 0.00491846 0.0367943 -0.02027 0.00411665 
0.0390436 -0.0221958 0.00683428 0.0327646 -0.0255816 0.00723875 0.0351224 -0.0210835 0.00766604 
0.0367335 -0.0259876 0.00782563 0.0312007 -0.0219066 0.00800305 0.0342692 -0.023791 0.0105015 
0.0314042 -0.0272733 0.0107546 0.0382716 -0.0234984 0.0105533 0.0356527 -0.0274617 0.0113962 
0.0304313 -0.0234748 0.0116097 0.0402667 -0.0200488 0.0101733 -0.0434971 -0.0112885 0.00410165 
-0.0422926 -0.0152638 0.00463356 -0.0409813 -0.0184755 0.00690342 -0.040075 -0.0103386 0.00727466 
-0.0430676 -0.0129881 0.00784581 -0.0403118 -0.0199173 0.0105917 -0.0419613 -0.0161562 0.0100867 
-0.0401874 -0.0126011 0.0106023 -0.043689 -0.0107336 0.0111949 -0.0386676 -0.0168233 0.00397375 
-0.0314423 -0.0145739 0.00405374 -0.0336676 -0.0108618 0.00437915 -0.0391453 -0.0128223 0.00425173 
[...]
POINT_DATA 5999
FIELD FieldData 7
id 1 5999 int
544 514 215 477 124 474 532 780 482 
144 333 828 27 414 161 454 625 218 
866 40 1461 856 1092 1037 589 250 877 
455 122 18 1119 1323 885 67 203 307 
901 495 430 907 1350 1045 19 1213 120 
924 520 97 862 598 1044 505 1171 200 
100 680 1270 1098 390 254 379 135 52 
145 107 228 450 551 153 271 1328 407 
1828 1575 1164 1620 647 1995 53 263 426 
158 1095 257 242 209 464 515 194 1286 
10 981 1650 1289 2165 1834 452 408 1008 
336 706 476 501 773 138 185 400 83 
596 233 1446 1232 892 665 772 364 230 
992 41 404 246 777 567 109 1033 338 
391 1632 1067 696 1580 707 608 245 247 
46 760 690 397 1176 605 47 1358 968 
1387 1792 1284 1434 1608 449 147 154 340 
1316 966 557 274 440 512 764 285 675 
1280 580 443 750 1188 323 1013 115 434 
378 816 623 1019 874 33 94 1005 713 
1162 183 488 198 548 1563 63 946 294 
669 724 11 502 302 119 402 1476 49 
1506 55 1043 953 1639 1463 1836 2042 1015 
704 546 174 424 199 1166 1418 1028 1640 
711 818 1331 1242 1023 1605 365 469 504 
952 684 776 371 633 1285 1676 1754 1179 
534 2285 1789 1855 1159 114 276 149 8 
1042 758 844 918 641 937 102 392 2221 
1217 1697 943 1862 1074 1609 614 310 876 
54 1036 858 1412 248 112 2136 442 1330 
1191 785 1491 90 516 210 401 509 350 
267 382 779 22 1114 689 617 643 652 
471 739 861 136 413 1057 249 1678 921 
1327 2328 348 57 659 349 1107 437 787 
223 803 703 741 525 639 824 1113 578 
1389 1064 1398 344 650 360 281 131 550 
68 125 243 1325 533 854 668 1407 977 
963 1683 1345 2129 664 374 345 84 311 
487 674 1623 697 1208 1722 1055 7 1448 
1672 9 832 296 429 99 42 175 113 
815 190 201 951 964 808 747 990 403 
986 179 1647 1525 205 1126 616 168 293 
66 1338 980 38 718 1152 1482 994 1404 
1174 1012 2128 1684 1644 1572 396 1144 317 
1494 875 1083 353 1185 622 833 1177 1497 
1710 726 1377 270 1406 39 117 630 848 
1077 256 1288 291 819 859 635 1508 1931 
240 1383 987 1369 528 231 461 962 1035 
788 523 123 1775 43 679 927 658 518 
1319 1132 834 1243 1767 2278 86 142 423 
314 590 1180 754 1276 372 1214 1262 853 
692 1355 139 1372 1222 749 1324 894 686 
1503 417 802 134 163 1584 399 1123 562 
1212 615 1961 898 1118 222 1679 25 20 
783 126 1096 72 1537 1359 1772 1333 92 
1233 1830 826 202 767 613 1196 881 906 
354 1269 731 447 485 1071 884 1443 496 
369 619 1231 1618 1235 1310 1429 612 221 
821 58 584 1101 545 1130 727 1133 278 
1295 508 376 1622 1099 1822 441 1105 931 
903 342 1460 445 500 543 1586 1509 1140 
831 869 2104 575 1003 1839 491 1481 627 
489 1486 427 1027 710 1088 695 1569 830 
1728 1876 1428 1030 1366 1964 1125 479 1529 
305 967 1142 900 322 784 1692 855 537 
1202 1674 1281 1444 1845 1181 893 1630 1967 
812 410 73 393 935 421 1161 896 389 
1120 933 1100 1060 1145 1886 1796 1982 1399 
1702 1831 1032 48 458 108 128 842 1426 
137 751 1914 1517 1945 1041 418 241 914 
367 1151 796 693 870 1557 1011 1006 604 
1014 105 292 1516 12 673 781 1009 756 
1334 24 867 1228 511 1038 873 1221 1353 
558 224 766 813 755 857 1351 775 610 
890 654 1111 1744 982 983 110 1225 463 
16 5 971 23 330 607 499 702 920 
1567 1131 1522 2362 794 1928 1362 1158 1128 
1254 998 352 77 229 594 462 677 1512 
667 682 280 29 1871 843 1907 2018 947 
237 78 563 206 1277 346 334 845 526 
840 1300 1395 300 355 1226 878 942 1480 
728 838 717 170 763 886 1106 193 273 
370 1168 792 974 309 1238 587 1320 1148 
381 570 1305 498 375 560 384 734 517 
127 297 678 719 362 189 1054 1089 188 
431 148 565 81 1478 286 432 3 934 
956 171 975 527 730 368 1010 1487 1139 
723 993 712 473 320 159 377 564 984 
1778 503 1400 1112 380 88 1197 1080 1297 
1149 155 1073 182 313 341 522 1613 295 
716 101 1439 1576 919 1294 922 632 2248 
232 1450 847 745 1066 586 265 1018 1523 
742 239 1090 167 700 1078 1052 2279 2242 
214 657 387 915 1024 535 1072 303 827 
588 32 419 778 1344 1884 1255 1936 165 
592 394 298 244 331 572 1193 70 988 
1086 1335 1490 1430 1394 737 836 436 868 
287 691 301 36 180 1237 1020 746 2114 
1153 453 676 911 420 260 631 640 191 
996 721 64 216 326 1085 1150 930 1311 
484 979 164 315 87 809 541 579 79 
671 98 225 80 283 646 955 130 186 
709 958 648 609 1682 1021 192 1040 356 
337 266 576 75 910 480 448 238 626 
765 1321 561 1069 554 1976 405 74 150 
944 524 1583 50 1271 1384 103 347 1124 
361 316 197 656 688 573 2 51 849 
1135 13 740 60 1532 1566 212 1016 954 
21 288 104 1097 923 412 600 891 1022 
1343 1604 1459 841 1560 435 736 1220 146 
660 949 93 357 472 771 1346 925 439 
1349 790 1449 1617 1726 559 556 425 880 
91 715 839 926 1745 258 1442 62 1004 
603 1819 1001 1897 644 2406 519 521 160 
121 290 76 152 1248 791 683 957 1246 
793 618 1309 1156 284 1625 628 332 406 
28 569 529 599 386 272 251 277 35 
725 373 1436 685 846 698 177 478 1611 
929 1103 235 312 638 1227 1670 738 820 
547 1695 583 1582 965 752 748 226 428 
1368 227 116 799 976 329 95 571 1205 
850 34 85 1273 804 1267 1752 991 928 
1655 151 1899 705 1084 220 582 1053 1136 
306 61 383 1165 1296 1875 169 2460 1873 
304 851 513 96 255 388 1725 339 275 
798 14 1287 196 1534 2055 624 1172 629 
1134 409 118 133 1703 204 89 1641 1298 
1571 2007 1160 2049 1868 1475 1410 1484 181 
259 299 642 973 264 166 1068 591 811 
649 1000 538 1167 486 2146 184 15 140 
6 1117 636 45 30 829 321 324 438 
1504 666 1108 759 490 645 1591 1651 577 
1542 289 213 173 769 507 433 195 415 
59 143 157 1249 466 801 916 327 786 
1764 1025 475 129 234 999 1173 1147 593 
899 141 497 207 132 552 1290 510 729 
269 762 904 111 701 395 530 422 621 
451 1209 542 56 1816 1390 1980 217 1489 
343 446 1189 768 268 162 909 735 1790 
1856 2690 1717 2680 328 882 1 2618 913 
602 3284 1245 2196 2046 2641 2257 995 1765 
864 178 26 1386 601 1638 2289 1259 1598 
3160 2845 531 2254 2633 1433 1278 411 2349 
282 1477 997 1392 969 797 1957 2073 1194 
1564 1869 699 2195 782 2847 2247 2303 1581 
1299 566 1861 795 1326 2364 1079 2621 1547 
2464 2275 3348 2245 1603 2987 3013 2421 1783 
2417 1661 1589 1846 65 1774 1882 1602 1690 
1705 219 2157 1649 2527 2121 2612 2106 2526 
1681 1590 2084 1626 2065 883 1498 1999 1878 
1718 2031 457 1175 1420 1488 2003 2825 1146 
2351 2383 1800 1411 1471 1677 852 1688 1614 
1519 1533 2472 2455 2187 2684 1850 1543 1365 
1421 1169 1251 2295 1981 3008 2377 2075 2355 
2932 2517 2606 3464 2545 800 1485 1756 2735 
889 2027 1187 662 1341 1186 687 2416 1952 
2044 1937 465 2560 2611 2689 2538 574 493 
1785 1416 1017 1275 279 1058 1949 1733 2143 
1771 2391 1382 2646 2314 2493 2601 744 2067 
2300 1026 2781 2347 2145 1633 1470 2185 1779 
2869 2008 1746 2746 2613 1059 905 2292 1538 
1843 1734 1768 2150 1943 1696 1437 2009 2427 
2305 2812 2291 2767 1619 2396 3027 1283 1210 
2092 1883 1944 2191 1908 970 1654 2470 3082 
2510 2532 2661 1983 2109 1274 938 1550 1170 
1691 2345 1456 1919 1483 1953 1686 1824 2511 
2015 1978 2468 2522 2765 2111 2953 1468 69 
872 1258 2296 1182 2161 1659 540 1780 1699 
2408 1693 2562 1989 2964 1716 3175 902 1047 
1652 1962 1224 2053 1403 2013 1954 37 2173 
2329 2181 2298 3024 2943 1178 1829 506 2776 
1093 2271 1378 2429 961 1265 319 1592 2228 
1680 2743 1968 1184 1858 2004 2667 1607 2061 
2886 1065 1887 1773 2491 1844 655 1561 1354 
106 2066 1955 2779 2557 2430 2226 2057 2177 
2142 1848 2282 722 3156 2816 2668 2047 1749 
1687 1594 2209 2113 1562 2304 2714 1662 1794 
2794 3173 2151 3094 2399 2103 888 1597 1201 
1555 2490 2093 1595 1814 2728 1881 807 1408 
2190 1253 1988 2916 1240 1753 1701 1076 1061 
1203 211 1070 1966 939 2050 1668 1671 2600 
1264 1840 1960 1913 1852 1628 1413 1183 1979 
1272 2091 1763 1141 1405 2594 2666 2549 2671 
2409 3158 2846 2312 1199 1223 1552 1256 611 
806 1308 2277 2301 2652 1087 2317 2179 2071 
2440 2745 2420 1493 1347 1417 1811 1685 1958 
2426 1642 1663 1219 1198 2709 2370 2322 2361 
1531 252 805 1293 2565 1905 1863 1658 2116 
1948 985 653 2205 1397 1893 2366 1730 2665 
1805 1924 1539 1385 1329 1860 1250 2348 1505 
1215 1835 1759 1776 2774 2163 1969 2141 2688 
2773 3258 2206 2373 2082 941 318 1500 978 
2014 2194 863 1318 1268 2548 1902 2796 1793 
2712 1723 2861 2875 2307 1548 694 1472 2299 
1109 1317 581 1127 1643 2006 1363 1396 1917 
1993 1452 1736 1200 1815 1081 1587 1536 1374 
351 661 1380 1513 1315 2478 1155 1507 2577 
2172 1636 1704 2392 1568 2521 1558 2786 1356 
1263 1091 2021 1479 1340 2297 1588 1888 1454 
1216 1927 2531 1637 2130 2112 2326 2595 2737 
2573 2820 3012 483 2038 1425 1809 1049 865 
1634 1838 1206 1694 2449 2607 2215 2357 2603 
1786 2978 1545 1279 1492 714 1348 2159 770 
2240 1094 1447 2256 1833 1920 2118 2193 2192 
1925 2346 959 1332 1921 1573 2210 2395 1629 
753 2086 1832 2584 1660 1689 1732 1941 2699 
1900 1577 1935 1137 536 172 1813 2466 1391 
1653 1803 2422 2770 879 2043 1624 2451 2036 
1616 2290 3499 1735 1946 835 1122 1719 2200 
1002 2037 1940 2052 860 2852 1769 1440 1842 
789 585 1357 2453 2024 2537 1502 2441 2232 
1885 1762 2068 1990 2473 1431 2827 2001 2139 
1804 1435 1252 1496 2379 2258 1992 871 1808 
2154 2762 2026 2079 2077 2424 2439 2752 743 
1455 1615 1975 1821 1361 2716 2425 2546 1600 
2140 945 1909 1825 1051 1729 2356 1739 1585 
2564 1260 1720 1787 1342 1541 2335 1518 2589 
2458 1599 1292 2830 2094 2630 2132 2657 2217 
2969 606 761 1895 1750 1593 1578 1521 1466 
1229 1970 1432 2124 2095 2500 1851 2649 1039 
1820 2887 1707 555 1381 814 1046 1129 549 
1501 1304 1360 1646 1648 1549 2175 2503 2636 
1798 1956 1445 253 31 1306 1031 1063 2264 
2400 2074 1244 1911 1515 1933 2459 1738 1621 
2638 1915 2682 1812 1977 187 1291 757 2072 
1528 1761 1810 1797 1301 1673 1104 2269 2651 
2431 1874 2445 2462 2017 1524 817 1370 2237 
366 2319 2176 1553 1312 2260 1499 1675 1910 
1352 1007 2839 2414 2529 1526 1656 2799 2701 
3053 2592 1706 2342 2587 1409 3050 1826 1714 
1556 1870 2398 1337 2034 1997 1419 672 1998 
2123 2367 2386 2178 3047 2352 2902 2923 2214 
2274 1972 1879 733 459 1367 1462 1339 1574 
2012 1218 2133 2238 1740 1465 2759 1204 2199 
1892 2543 2452 1540 1546 1721 1664 1154 82 
1314 1766 2108 950 1898 2658 1747 2167 2287 
2447 1451 3105 1799 2213 822 568 1535 1743 
1402 932 553 1302 1241 1415 2324 1473 2888 
2702 2336 2230 2029 940 708 2115 2148 1469 
637 1082 2156 1190 1880 1075 2340 2924 2456 
2321 2751 1872 236 2288 2627 887 1236 1207 
358 1230 1115 2375 810 539 1511 1559 1666 
1457 2186 2076 1527 2281 1709 2261 481 1056 
1963 1441 1138 2020 2768 2019 620 1984 1247 
1110 1029 1379 1849 2152 1827 1192 1234 2212 
1427 1635 2898 1742 2495 2010 2446 2225 2223 
2750 2660 2134 1665 2598 1748 2622 2265 2626 
1818 2331 2602 2376 2318 1257 71 1048 1373 
1760 1551 2119 2283 2160 2259 2837 3031 1853 
1939 2900 3017 2810 2547 3232 3307 2691 325 
774 470 1102 1971 2910 948 2101 2022 2155 
1801 1596 3045 1864 2502 2397 2729 2561 681 
1510 1195 1669 2203 1934 1841 2039 2559 2310 
3010 1912 2583 2089 2063 2078 1859 416 456 
2158 2090 960 634 2272 444 1375 2040 1698 
1712 2711 2590 2494 2580 2936 2822 2087 1424 
2035 1467 2219 1565 1393 2410 2000 2054 1322 
897 1601 2784 2360 2957 3371 3270 363 1163 
1423 1261 17 2198 972 1121 494 460 2138 
1757 1544 2903 2188 2381 2988 2401 1959 2380 
2766 468 1388 1867 1116 2629 2243 2032 2064 
2956 1474 1715 2394 262 2174 2670 2948 2170 
3372 2706 2764 308 1755 2030 1923 1932 1612 
2236 2434 1791 2234 2033 2513 3400 2270 2942 
2872 2593 2051 1303 4 2023 1795 2284 2127 
2403 2211 1788 2197 2180 2411 2575 2350 2586 
3201 597 261 1631 1514 917 2474 1401 1758 
2099 2813 1903 1926 2992 1034 3004 1610 1724 
176 1627 651 1453 1645 1050 823 1313 1891 
2497 2302 1770 2229 2369 2692 3561 1336 359 
1713 989 1579 2110 1708 1422 1282 825 2147 
2523 2235 2412 2131 2778 2585 3406 1307 1554 
2060 1266 1530 908 2372 2126 2501 3172 1495 
156 670 1239 1364 1062 1951 2542 1973 2002 
2856 1837 2937 2384 2081 1922 1657 2327 1211 
2569 3162 1823 2970 3487 1570 1143 2514 335 
2056 2122 2843 2554 2775 2518 2771 3255 2866 
3002 2100 3086 3465 2528 2999 2911 2938 2069 
3106 3493 2685 2742 3808 3155 3564 2713 3025 
3142 3289 3955 3713 3722 2879 3446 3279 1906 
2720 2686 1996 3703 4216 2507 1777 2508 2918 
3331 2102 2250 2512 492 2977 3540 2588 2801 
3235 2623 3845 3639 4200 2864 4060 4279 2341 
2208 3098 2862 3529 2851 2963 3319 2262 2096 
3822 3471 3677 2891 2783 4129 3790 3077 2098 
2840 3413 2433 2968 3636 2958 4100 2435 2308 
3707 3362 3334 3844 3194 3302 3405 3632 2959 
2833 2975 2761 2506 3033 3682 2487 3256 3099 
3315 4002 3472 2371 3361 3763 3433 3831 3913 
3060 2624 3174 2418 3271 2448 2378 3207 3095 
3378 2930 3761 3165 3766 3152 4248 3967 3379 
3215 3734 2871 3187 3650 2855 4051 2499 2747 
2467 2616 3768 3350 4439 3623 4211 2332 2809 
3311 2675 1802 2443 1865 2806 2568 2669 2533 
2339 2877 1950 2596 3537 3500 3048 3437 3578 
1991 2135 2041 1458 3193 2483 2645 2239 2330 
3469 3125 2556 2597 3313 2740 3067 3847 3425 
3411 3391 3851 3111 2929 3037 4255 2834 4647 
2189 4389 3833 3297 3303 2516 3122 3492 2795 
2966 3920 3325 2904 3723 3662 4000 1414 2276 
1376 1727 2486 2368 2183 3286 2498 3539 2505 
3360 3221 3346 2438 2628 2821 3186 4056 2721 
3983 3676 2832 3079 2048 1866 2402 3249 3553 
2739 2824 2808 2673 3078 2088 2842 3522 3599 
3041 2907 3188 3103 3527 3721 2338 2423 2515 
2415 2280 3015 2848 2717 3699 2659 3572 3028 
2365 3769 3226 3751 4317 3898 3353 3714 3124 
1737 2105 2450 1711 2025 1817 3828 2216 3199 
2656 2896 3365 2648 3534 3370 3096 3063 2859 
2639 2610 3238 3789 2867 3774 3611 1700 2385 
2359 2576 3252 2389 3451 2829 3799 2805 2268 
4089 3743 3615 3477 3476 3826 3753 2363 3375 
2708 2387 3247 2880 2858 3614 3345 2983 2231 
3309 3000 3169 3260 3462 3594 3415 3813 3317 
2457 2674 3072 3338 2581 3005 2477 1781 3651 
2168 2696 2354 3388 3136 3931 3166 2182 2944 
2870 3040 1942 3180 2694 2693 2838 2788 2984 
2857 2927 3020 4259 2804 2333 2120 1889 2540 
2736 3772 3306 3679 3143 3418 3183 3848 3457 
3402 3974 2520 2687 2432 3211 3690 2534 2519 
3208 2461 2895 3090 3616 3979 3244 3695 2698 
3730 3259 4525 3897 2005 1965 1987 3924 3542 
2241 2732 3508 2954 1741 3590 3504 3825 4232 
2726 4253 3167 2757 3181 3557 4113 2860 2769 
3392 3706 2579 2083 2202 3185 2286 3227 2558 
4281 2935 3339 2939 1896 3445 3368 1667 3881 
4075 2544 3568 3921 3571 4699 2482 3029 1890 
2787 3250 3620 3548 2995 3001 3100 3692 3427 
3649 4306 1807 3455 2251 2772 3039 2444 1916 
3150 3892 1806 3140 3466 3157 3746 4154 3222 
4103 1994 1877 2989 2678 2407 2922 3890 2897 
2915 2894 3767 3563 2993 3236 3237 2950 2207 
3453 2741 2704 2263 2484 2683 2819 3748 3927 
3952 4125 2676 3214 2863 2323 2536 2309 2481 
3326 3327 2567 2541 3941 3545 2998 2617 2914 
3229 3003 2059 3189 2405 2204 1985 3129 2986 
3066 2293 3163 3109 3107 3428 3272 3030 3680 
2885 2125 3569 2614 3336 3097 3948 3075 2947 
3925 3810 4237 2798 2220 3257 1901 2749 2343 
2835 2539 3333 3498 2571 3393 4454 3408 3356 
4112 3622 2940 2814 2881 3363 3316 3858 2780 
3935 2850 3762 3431 3149 2488 3506 3278 2951 
3633 3757 3877 3981 4233 3324 4069 4207 4394 
2883 3387 3694 3023 3864 1938 2677 3246 2572 
3121 2899 2169 2941 2344 2653 2912 3530 3007 
4309 2928 3230 2222 2647 2070 2504 2325 2306 
2722 2849 2632 3574 2476 3112 2828 3470 2733 
3016 3084 2358 2756 3663 4217 2164 2844 3071 
3179 3308 2393 2465 2738 2552 2570 2642 2991 
2971 3161 2599 3796 2965 3022 3197 2807 3205 
2404 2865 2724 1930 2854 3351 2313 3009 2753 
2337 2990 1857 2320 3617 2815 2920 3501 4020 
3619 2442 2218 2725 3196 2625 2249 2382 2620 
2524 3602 3135 3668 2817 2926 2893 2334 3601 
4083 2316 3054 3485 2802 3273 3439 2931 2919 
2797 3486 3305 2972 3164 3673 4365 3117 4165 
4531 2994 2253 3312 3666 3582 3795 3088 4053 
3146 2934 2985 2011 2763 3505 3842 2906 3177 
2615 3006 2604 3390 2374 3085 2785 3429 3014 
3874 2643 3552 4081 3686 4137 3479 2413 2789 
3700 2890 2471 3213 3489 3093 3448 3480 4077 
3300 3702 3775 3239 2960 3359 4479 3110 1731 
2480 2436 1947 2273 3373 3337 2803 2697 3087 
3827 3945 3950 4193 3991 3816 3395 3749 3805 
4472 4311 2244 4116 3779 3719 4097 2201 2961 
2016 2608 2162 2908 2535 3403 3123 3871 3835 
3419 2792 3777 2428 3643 3653 2826 1894 2492 
3398 2137 1918 3463 2555 1854 2723 2609 2884 
1974 3091 3295 3491 2463 4187 3216 2997 4163 
3233 3043 3277 3304 2045 2730 3756 3494 2233 
2925 3329 3314 1904 3299 3975 2889 4425 3262 
3661 3019 2982 2654 3251 2153 2933 2655 1847 
3432 2437 2679 3741 3760 3074 3394 2353 3832 
3533 4288 4320 2700 2227 2962 2705 3151 3182 
3068 2224 2744 3138 3070 2734 2681 2605 3178 
3785 3900 2853 3660 4058 4215 4203 3554 3223 
3042 3133 2578 3234 2315 3980 2097 2715 2672 
3170 3546 2731 3318 2800 3737 4174 3732 4250 
4219 3280 3712 2841 2469 2525 3733 4228 3190 
2635 3803 3224 3296 4108 3627 3930 3968 3793 
3629 4152 3876 3716 3051 2981 3287 3274 2496 
2184 3225 2062 3893 3559 2952 2619 2917 3745 
3065 3036 3626 3407 2550 3878 2644 2727 3301 
3358 3153 3219 3436 3330 3369 3836 4017 2551 
3049 3354 4041 3969 3597 3917 3697 3267 3202 
2703 2390 2882 2949 2311 2650 2485 2874 3929 
4078 2719 3145 2748 3116 3818 2591 2475 3367 
3248 2246 3736 3269 3901 3240 3531 4107 4055 
3916 2080 3292 1784 2663 3212 2831 2892 2388 
3397 3119 3704 3290 3352 3519 3787 3389 3141 
2876 3603 3671 2631 2171 2945 2107 3747 2582 
3114 3034 3507 3495 2913 3154 4252 3421 3132 
3691 4391 3802 3460 2563 2294 3293 3081 3937 
3059 2791 3357 3069 3562 3521 3321 4505 3798 
3535 4336 3939 3171 3266 3073 3895 3263 4035 
3565 4194 3254 3342 3430 4578 2758 3442 3684 
3646 2489 3683 4096 3517 3192 3355 4118 2905 
3341 2255 3435 3444 3752 2085 2811 2793 1520 
3467 3843 3823 3934 4459 4087 3503 2878 4305 
3203 2909 2144 3401 2637 3268 2058 3396 2479 
3884 3080 2028 3026 4346 4091 3076 4043 2662 
3115 3386 3038 3738 2266 3285 3454 2695 3701 
3120 2574 2530 3591 3320 3912 3759 3606 4500 
4426 3583 4314 3783 3176 3089 3538 3410 3525 
3641 3581 3573 4223 3310 3964 2868 3630 4455 
3046 3807 5330 4367 3580 3509 3657 4302 3288 
3804 2836 4039 3834 3118 3335 4788 4082 3792 
2718 4166 3282 3056 3958 4464 4734 4267 3961 
3902 3919 4147 4618 4497 3607 3972 4124 3404 
3862 3758 4098 4168 5177 4709 4457 4433 4510 
4579 4151 3032 2634 3440 3778 3058 3276 3718 
3654 3148 3532 4636 4392 4422 4584 4580 3195 
3985 3727 3547 3977 3670 3147 4257 4360 3933 
4358 4894 4326 4388 4139 2955 4310 3349 3764 
4318 4398 5394 4390 4066 3618 3735 4416 4072 
4270 4918 4642 3894 4738 4818 5772 5312 4321 
4954 4285 5159 5668 4509 3800 3675 2967 3711 
3083 4375 5535 4609 4027 4997 4640 5137 5349 
4939 5329 4415 2553 4661 3875 3811 3708 4086 
3868 3717 3883 4456 4451 4395 4536 4891 5032 
4054 4771 4424 4034 5228 5382 2973 3478 4170 
4188 4460 4463 4251 4241 5523 4418 4160 5246 
4420 4637 3450 2946 3715 4813 4371 4169 4664 
5082 4520 4550 3918 5157 4149 3449 3523 3052 
3512 4480 3993 4632 3264 4567 4475 4496 3906 
4225 5398 5409 4581 3947 4795 3516 4007 4946 
4775 4521 4286 4366 4543 4136 4705 4563 4619 
4354 5340 5414 4797 3907 3794 2980 4093 3771 
4648 4150 4707 4838 4993 3797 4123 5155 4777 
3971 4038 3806 3347 3412 4198 3990 5425 4161 
4003 4202 4290 4519 4453 4539 4783 4680 4667 
4324 3298 4559 4068 2976 2777 4012 5126 3674 
5112 4793 3995 5262 3923 4696 4410 5269 4444 
3528 4240 4413 3943 4065 3482 3409 3556 3642 
3754 4001 4071 5056 4646 5052 3518 4403 3231 
4130 4560 3126 3908 5739 5007 3634 3468 4504 
3101 3242 3963 3459 3956 3328 4745 3809 4523 
3829 4019 3624 3344 3681 3773 4205 3376 4700 
4284 3821 4924 3729 4405 3992 5154 5770 4361 
4134 3640 3987 3672 3323 4466 4328 3944 4064 
3294 4458 4809 4980 3423 4611 4537 4819 4742 
4291 3253 4387 3951 4127 3988 4440 3817 3281 
4876 4449 4110 3998 4376 4213 4689 3853 4600 
4120 3705 3849 3861 3011 4374 4729 3434 4517 
3742 5367 4432 4654 4171 4718 4304 4545 3377 
3092 3474 4242 3526 4359 3814 3784 5038 5039 
4088 5316 4691 3655 3788 4575 4490 4268 5597 
4370 5533 4590 2664 4833 4806 3860 4485 4406 
4635 5595 4583 5507 4448 4133 4046 4597 3886 
4754 4970 4477 5026 4971 4409 4059 3882 5688 
4180 5469 4773 3422 3973 3819 4084 4340 4979 
4263 3035 4230 5458 3854 4605 4844 4864 3483 
5885 5547 3399 3926 3191 4099 3856 3652 4031 
3275 4189 4175 4393 4025 5108 3959 4650 4011 
5066 2823 3108 4688 4184 4872 3577 4117 4966 
4557 3204 3638 2707 3685 3644 4262 3598 3139 
3698 3055 4142 4572 3481 4914 3940 5363 4518 