# vtk DataFile Version 4.2
Generated by LIGGGHTS
ASCII
DATASET POLYDATA
POINTS 5999 float
-0.0137026 -0.0427626 0.0101149 -0.0176464 -0.0413584 0.0101714 -0.00964025 -0.0423893 0.0101652 
-0.00624982 -0.0445345 0.00985556 -0.00224274 -0.0440413 0.00992253 -0.0023181 -0.0403709 0.0116928 
-0.00602004 -0.040003 0.0101885 0.00168841 -0.0448702 0.0103757 0.00958476 -0.0439757 0.0101364 
0.00552354 -0.0437372 0.0102523 0.0072342 -0.0400782 0.0101153 0.0115963 -0.040158 0.0101135 
0.0158965 -0.0420197 0.0104099 0.0126946 -0.0431607 0.0125283 -0.0308386 -0.0327526 0.0104342 
-0.0245243 -0.0334562 0.0101971 -0.0247681 -0.0375255 0.0102529 -0.0212915 -0.0310694 0.0100448 
-0.0210486 -0.0355741 0.0103725 -0.0213016 -0.0395909 0.0101811 -0.027896 -0.0352938 0.0113753 
-0.0267945 -0.0317996 0.0130491 -0.014302 -0.0312219 0.01024 -0.0103612 -0.032291 0.0107494 
-0.017704 -0.0333613 0.0102963 -0.0118892 -0.0389819 0.0103271 -0.0140411 -0.0352933 0.0104341 
-0.0174258 -0.0373938 0.010886 -0.0111197 -0.0358129 0.0131192 -0.00183329 -0.0301801 0.0104256 
-0.00838695 -0.0367658 0.0102634 -0.00398131 -0.0343705 0.0103172 -0.00585683 -0.0308217 0.0101587 
-0.000496386 -0.0369107 0.0106689 -0.00717224 -0.0337383 0.0126825 -0.00900459 -0.0395495 0.0130995 
-0.00509292 -0.0371419 0.0130059 0.00255822 -0.0400113 0.0103148 0.000866606 -0.0331297 0.0103176 
0.00765272 -0.0350366 0.0100306 0.00892781 -0.0312453 0.0100834 0.00362663 -0.036044 0.0101264 
0.00484403 -0.0321874 0.0102888 0.00616901 -0.0374099 0.0129038 0.0188849 -0.0393601 0.0101926 
0.0171817 -0.0315202 0.0100874 0.0116362 -0.0341916 0.0101206 0.017945 -0.0354487 0.0102002 
0.0133758 -0.0302404 0.00962452 0.0143229 -0.0371614 0.0101361 0.0101313 -0.0370715 0.0124724 
0.0149106 -0.0338602 0.0124378 0.01973 -0.032991 0.0128244 0.0221241 -0.0347559 0.0100535 
0.0209626 -0.0301732 0.0102278 0.0262134 -0.0365456 0.0102257 0.022873 -0.0387495 0.0102076 
0.0248237 -0.0318058 0.0102976 0.020576 -0.0369935 0.0129929 0.0285009 -0.0347481 0.0129794 
0.0301342 -0.0327284 0.00990592 0.0332617 -0.0302341 0.0101451 -0.0400805 -0.0204156 0.0100472 
-0.0358376 -0.0271937 0.0102901 -0.0322687 -0.0290035 0.0103576 -0.032574 -0.0217191 0.0106818 
-0.0376575 -0.0236252 0.0104514 -0.033184 -0.0251547 0.0126876 -0.0299242 -0.0252655 0.010318 
-0.0211366 -0.0259902 0.0100118 -0.0252107 -0.0245378 0.0103447 -0.0282701 -0.0292238 0.0103555 
-0.0280023 -0.0215888 0.0103678 -0.0243121 -0.0284412 0.0101914 -0.0220071 -0.0220671 0.0103692 
-0.0177409 -0.0291642 0.010024 -0.0171983 -0.0251302 0.0100457 -0.0140651 -0.0212475 0.010281 
-0.0180729 -0.0212021 0.0101906 -0.0131959 -0.0252428 0.0105039 -0.0118183 -0.0286591 0.0121048 
-0.0194718 -0.0236233 0.0131226 -0.00947678 -0.0237848 0.0102183 -0.00648175 -0.0211255 0.010236 
-0.00826186 -0.0276009 0.0102806 -0.00340773 -0.023726 0.0103051 -0.000557348 -0.0263952 0.0112433 
-0.00443307 -0.0273861 0.0116403 -0.00646481 -0.0241575 0.0128511 0.000417063 -0.0225486 0.0104973 
0.00985002 -0.0273538 0.0101569 0.00708506 -0.0244653 0.0103407 0.00427968 -0.0214802 0.0102396 
0.00208203 -0.0292906 0.0103045 0.00597662 -0.02834 0.0103335 0.00320716 -0.0254494 0.0102687 
0.00745997 -0.0212415 0.0126953 0.0145393 -0.0241071 0.0101479 0.0183305 -0.0228035 0.0103169 
0.016715 -0.0275407 0.0101148 0.0152855 -0.0201741 0.0102039 0.0108105 -0.0237568 0.0116193 
0.0131155 -0.0270458 0.0124592 0.0205006 -0.0261984 0.0101705 0.0279882 -0.0293322 0.0100888 
0.0242317 -0.0278008 0.0100634 0.0237144 -0.0238157 0.00996184 0.0274236 -0.0253627 0.0100412 
0.0269079 -0.0210704 0.0100291 0.021732 -0.0216208 0.0126563 0.0304492 -0.022821 0.0106775 
0.038091 -0.0237472 0.00993815 0.0311547 -0.0268122 0.00976177 0.0343747 -0.0222715 0.0100762 
0.0357316 -0.0270378 0.0103136 0.0396892 -0.0211752 0.0125896 0.0331941 -0.0251537 0.0127858 
-0.0423599 -0.0150884 0.0102947 -0.0428146 -0.0109789 0.00994131 -0.0412574 -0.0179034 0.0129369 
-0.0386488 -0.0166811 0.0101384 -0.0391613 -0.012654 0.0104996 -0.0361267 -0.0198912 0.010392 
-0.0303799 -0.0183618 0.0104751 -0.0353415 -0.0144145 0.0103559 -0.0313308 -0.0144562 0.0106829 
-0.0334872 -0.0108648 0.010242 -0.0336429 -0.0178734 0.0128056 -0.0362673 -0.0115739 0.0130764 
-0.0281924 -0.0120027 0.0101547 -0.0247762 -0.0191658 0.0103086 -0.027008 -0.015814 0.0105127 
-0.0232015 -0.0143972 0.010651 -0.0207961 -0.0182391 0.0106003 -0.0244815 -0.0104932 0.0101175 
-0.020776 -0.0110981 0.0115006 -0.0122596 -0.0163458 0.0100176 -0.0191856 -0.0145795 0.01033 
-0.0116422 -0.0123934 0.0102345 -0.016021 -0.0177554 0.0105162 -0.0102785 -0.0198577 0.0103369 
-0.0153055 -0.013837 0.010992 -0.0170727 -0.0103269 0.0101929 -0.00786463 -0.0139401 0.0101997 
-0.00386288 -0.0137236 0.010108 -0.00602286 -0.0103385 0.0102723 -0.00260349 -0.0197998 0.0103253 
-0.000718038 -0.0161952 0.0102804 -0.00565322 -0.0172465 0.0107537 -0.000842299 -0.0128817 0.0126068 
-0.00914438 -0.0167821 0.0127134 0.00248015 -0.0136428 0.0101106 0.00580438 -0.0112556 0.0101038 
0.00352406 -0.0175467 0.010188 0.00756375 -0.0179644 0.0103173 0.00935605 -0.0143334 0.0101518 
0.00962301 -0.01004 0.0101444 0.005818 -0.0147859 0.0120226 0.011049 -0.0199488 0.0104167 
0.0175772 -0.0125072 0.0102216 0.0128079 -0.0163559 0.0102546 0.0130108 -0.0122008 0.0101068 
0.0198209 -0.0190905 0.010176 0.0168078 -0.0164566 0.0102072 0.0153753 -0.0103136 0.0127403 
0.0193781 -0.0102812 0.0130204 0.0149013 -0.014283 0.0129732 0.0205947 -0.0151686 0.0099725 
0.0238902 -0.0184405 0.00998883 0.0217458 -0.0113323 0.00995004 0.0277165 -0.0171032 0.0100176 
0.0280405 -0.0124803 0.0100102 0.0245395 -0.0144649 0.00999457 0.0254768 -0.0120533 0.0130743 
0.0372133 -0.0194327 0.00995549 0.0314716 -0.0189821 0.0100914 0.0347731 -0.0135151 0.00982074 
0.0393238 -0.0114912 0.0102896 0.0381961 -0.015567 0.0102511 0.0311096 -0.0150189 0.0105189 
0.0324729 -0.0105787 0.0112903 0.0345724 -0.017025 0.011774 0.0362066 -0.0110048 0.0127832 
0.0410727 -0.0183638 0.0100586 0.0436486 -0.0106856 0.0102286 0.0425143 -0.0145938 0.0102023 
-0.0408878 -0.00745681 0.0101815 -0.0445622 -0.00549991 0.0105959 -0.0407007 -0.00326485 0.0104287 
-0.0445955 -0.00135334 0.0109623 -0.044077 -0.00874371 0.0130768 -0.0314875 -0.00475065 0.0102046 
-0.0368759 -0.00481775 0.0101168 -0.0371195 -0.00884165 0.0102765 -0.0302181 -0.00855205 0.0101338 
-0.0326113 -0.000944146 0.0107089 -0.036879 -0.000120163 0.0103177 -0.0342036 -0.00391943 0.0130282 
-0.0343091 -0.00793888 0.0129922 -0.0285698 -0.00200449 0.0102476 -0.0236323 -0.00370159 0.0102279 
-0.0272047 -0.00580138 0.0105492 -0.0238121 -0.0071637 0.0122653 -0.0273091 -0.00912493 0.0128235 
-0.019772 -0.00730642 0.0106153 -0.0158365 -0.00186391 0.0102478 -0.0136997 -0.00816488 0.0102485 
-0.0126381 -0.00427201 0.0103563 -0.0114819 -0.000384891 0.010266 -0.0196733 -0.00313082 0.0103962 
-0.0162859 -0.00553684 0.0118082 -0.00203628 -0.00979263 0.0103494 -0.00565463 -0.0063379 0.0103125 
-0.00381257 -0.00279168 0.0101223 -0.00974554 -0.00885677 0.0105234 -0.00772315 -0.00182925 0.010279 
-0.000787767 -0.00555679 0.0103562 -0.00910576 -0.0051634 0.0120086 0.00605732 -0.00112027 0.0100073 
0.00323656 -0.00547927 0.0100957 0.00748155 -0.00665619 0.00995492 0.00201524 -0.00965653 0.0100687 
0.00112941 -0.00205086 0.0101742 0.00941182 -0.00157436 0.0121563 0.00482754 -0.0082325 0.0125362 
0.00596763 -0.00417489 0.0127227 0.0189365 -0.00397024 0.0100022 0.010955 -0.00457169 0.00996275 
0.0188178 -0.00804731 0.009625 0.0149757 -0.00451666 0.010122 0.0131749 -0.0081246 0.0102142 
0.0165737 -0.000775949 0.0106128 0.0126128 -3.97595e-05 0.0102321 0.0250816 -0.00909764 0.00990574 
0.0286314 -0.00490161 0.00997656 0.0290717 -0.000160346 0.00996585 0.0223467 -0.0061742 0.00993558 
0.0255787 -0.00206563 0.0105252 0.0288806 -0.008737 0.0111492 0.0254881 -0.00562847 0.0123508 
0.0220139 -0.00301357 0.0123916 0.0321847 -0.00675722 0.0100224 0.0354989 -0.00451044 0.00990733 
0.0369437 -0.00825156 0.00994266 0.0380153 -0.00142673 0.0103448 0.0320128 -0.00276528 0.0108147 
0.0385399 -0.00547868 0.012346 0.0348386 -0.00689521 0.0131301 0.0449494 -0.00141411 0.0100122 
0.0415137 -0.00341839 0.0105107 0.0445567 -0.00604451 0.0106348 0.0409323 -0.00773137 0.0100603 
-0.0444641 0.00663911 0.0104445 -0.0448967 0.00257476 0.0102232 -0.0412019 0.000705461 0.0103047 
-0.0417829 0.00419746 0.0121886 -0.0398464 0.00743932 0.0103659 -0.0384113 0.00362538 0.0100081 
-0.0317611 0.00675944 0.0103318 -0.0357604 0.0066089 0.0102984 -0.0340032 0.00282527 0.0109714 
-0.0372165 0.00950862 0.0127253 -0.0297722 0.00196778 0.0101316 -0.0241078 0.00911321 0.0102615 
-0.0244755 0.00511858 0.0101925 -0.0277827 0.00746909 0.0103509 -0.0211535 0.00060094 0.0102668 
-0.0204877 0.00453597 0.0105976 -0.0251765 6.49001e-05 0.0109725 -0.0201229 0.00868992 0.0102439 
-0.0270221 0.00337992 0.0128283 -0.0230802 0.00273414 0.0130907 -0.0168981 0.00627018 0.010107 
-0.0147408 0.00200905 0.0102247 -0.012963 0.00563748 0.0104878 -0.0128809 0.00963192 0.0101788 
-0.0177792 0.000791934 0.0125395 -0.0152891 0.0084235 0.0131514 -0.00180967 0.00485226 0.0101365 
-0.00596152 0.00183233 0.0101165 -0.00977503 0.0032393 0.0101976 -0.00573479 0.00601844 0.0102025 
-0.00943791 0.00757265 0.0102804 -0.00170872 0.000766711 0.0104754 -0.000131453 0.0086333 0.0102538 
-0.00292261 0.00751074 0.012915 -0.00676905 0.00860563 0.0130757 -0.00840031 0.000876243 0.0131476 
0.00301238 0.00147808 0.010111 0.00224657 0.00540877 0.0102366 0.00617082 0.00462628 0.0102212 
0.009136 0.00193979 0.0102418 0.00744715 0.00842337 0.0104042 0.00369172 0.00985598 0.010349 
0.0186759 0.00256945 0.00998775 0.0186985 0.00656988 0.00997023 0.0147883 0.00738525 0.0104227 
0.0112873 0.00544317 0.010295 0.0113182 0.00944669 0.0104176 0.0147343 0.00334574 0.0105463 
0.0117633 0.0026988 0.0131718 0.0223139 0.000279656 0.0100606 0.0223446 0.00428453 0.0100085 
0.0223474 0.00829072 0.00994114 0.0258107 0.00226978 0.00996638 0.0261699 0.00630442 0.00984995 
[...]
POINT_DATA 5999
FIELD FieldData 7
id 1 5999 int
514 544 482 144 333 27 828 856 1092 
1037 408 203 307 901 1045 120 924 520 
97 862 598 1044 379 228 145 107 135 
52 450 1095 53 426 263 158 257 414 
242 589 1008 336 706 476 501 138 230 
992 41 404 364 246 773 777 338 247 
608 245 690 46 47 605 760 154 1316 
557 966 274 440 512 115 378 623 434 
1019 874 816 63 946 724 294 669 302 
402 11 1015 704 546 424 199 1166 174 
365 469 504 776 952 684 371 276 8 
114 149 758 918 1042 397 614 310 54 
876 1036 112 516 401 210 509 267 382 
136 861 413 348 349 787 1107 437 57 
659 703 223 650 344 131 281 550 360 
68 664 84 374 311 502 487 345 99 
429 175 296 42 113 815 190 205 66 
1126 616 168 441 1338 293 1144 317 1494 
396 875 353 1083 1185 39 630 848 1077 
117 256 1288 350 528 231 1035 962 461 
788 523 123 423 142 86 372 1262 1214 
853 1355 686 1503 417 163 802 134 1584 
399 1096 20 783 72 1537 126 906 485 
354 1269 447 1071 221 821 58 731 612 
584 1101 1460 903 1105 931 342 445 500 
543 627 1481 489 1486 427 710 1027 1142 
967 305 900 322 784 855 1692 410 73 
393 421 1161 896 389 48 1032 108 458 
241 418 914 367 604 1014 1516 105 292 
673 12 224 766 755 813 857 558 463 
1351 775 16 5 23 971 330 607 1254 
998 1128 352 594 77 229 462 677 1512 
78 563 206 1277 346 334 170 763 1106 
886 273 193 792 498 375 560 384 734 
517 127 935 1478 81 286 432 934 956 
128 473 320 712 377 380 88 1197 155 
1073 313 182 341 522 1613 586 847 745 
1066 214 265 1024 657 1072 387 535 915 
949 303 988 357 165 394 592 298 244 
556 331 1193 572 436 836 868 287 691 
260 631 996 640 191 721 64 541 216 
579 80 671 79 225 98 186 130 646 
283 3 1040 356 576 337 266 910 75 
159 944 524 1124 103 347 316 361 197 
656 288 21 212 1016 954 1097 412 923 
736 146 1220 660 93 425 880 91 715 
839 521 926 258 519 160 121 76 290 
152 1248 599 628 332 28 569 406 529 
251 1103 478 177 235 1611 929 748 312 
226 1368 428 227 116 799 928 104 1899 
705 1084 220 582 1053 304 513 851 255 
388 96 339 1725 629 1134 409 133 118 
1703 204 1745 259 1484 181 299 642 973 
166 15 140 1117 636 6 45 30 438 
289 213 173 769 916 507 327 1025 129 
475 234 497 899 141 207 111 395 701 
530 904 422 217 1489 268 124 215 477 
532 474 780 735 162 909 1790 454 161 
625 218 866 40 1461 328 882 2618 1 
913 602 250 18 877 455 122 885 1323 
67 995 1765 178 26 1386 601 495 430 
1119 1350 531 864 2254 19 1213 411 1433 
1171 505 200 100 680 1270 1098 390 282 
1477 997 969 1392 797 254 1194 2073 1957 
551 153 1328 407 271 1164 1828 1575 647 
1995 1620 566 795 1299 1861 1326 1079 2364 
2621 1547 209 194 10 1650 981 1286 1289 
1834 452 1589 1846 65 1882 1602 1690 219 
1705 1774 1649 2527 2157 185 515 596 83 
233 1446 2165 1232 772 665 892 883 1498 
1878 1999 1718 2031 457 567 1033 109 391 
1632 1067 907 696 707 1580 1471 1677 2109 
1411 1688 1614 1358 968 1387 1792 1284 1608 
1434 449 147 1543 1850 852 1365 1421 1169 
1251 340 800 1485 1756 285 1280 764 580 
675 443 750 1188 1013 323 2027 889 1187 
662 1341 1186 687 2416 33 119 94 713 
1005 854 1162 183 488 198 548 574 1785 
493 1017 1416 1275 279 1058 1949 2143 1733 
1564 1771 1476 2300 1506 49 1463 953 1043 
1639 1836 2042 744 2067 1026 2781 2347 2145 
1470 1633 464 1640 711 1028 55 1331 818 
1538 1242 1023 2292 1605 1059 905 1843 1734 
1768 2150 1696 1943 1437 400 633 1676 1285 
1179 1754 534 1789 2285 1159 1855 1283 1883 
1944 1210 2065 2092 2191 1908 970 1654 641 
102 844 937 392 1697 943 1074 1862 1609 
938 1274 1550 1691 1170 2345 1456 1953 1483 
1919 1217 1176 1412 442 858 2136 1330 1491 
785 1191 69 1258 1468 872 2296 1182 540 
1659 1699 2161 248 779 22 90 1114 617 
689 643 652 471 1652 1047 1224 902 1962 
2053 1403 1958 249 921 1678 1327 2328 1178 
1829 2776 1093 803 525 639 741 1113 1389 
824 578 1064 1398 1265 1592 961 319 2228 
1680 1968 2743 1184 125 243 533 1325 977 
1407 963 1563 2129 1683 1345 655 1844 1561 
1354 106 1955 2066 2557 2430 674 1623 1722 
697 668 1208 1055 7 1448 1672 9 832 
2047 1749 1687 1594 2209 2113 1562 2779 2304 
951 808 964 201 747 990 403 986 1647 
179 1525 888 1597 1201 2490 1587 1555 2093 
1595 1814 807 1881 1418 38 1482 718 1152 
994 1404 1174 2128 1012 1644 1684 1572 1753 
1240 1701 1076 1061 1070 211 1203 980 622 
2221 833 1177 1497 1710 726 1377 270 1960 
1913 1628 1852 1413 1979 1183 1272 2091 1763 
1141 1634 291 635 859 819 1508 1931 1406 
240 1383 987 1369 1199 2312 1223 1552 1256 
611 806 2277 2301 2652 679 1775 43 927 
658 518 1132 1319 834 1767 1243 2278 1347 
1493 1308 1811 1417 1685 1642 2426 1663 1219 
314 590 739 754 1276 252 805 1293 1057 
692 139 1372 1222 749 1324 894 1948 506 
985 653 2205 2366 1397 1123 562 92 1212 
898 1961 1118 222 1679 1385 1329 1860 1505 
2348 1250 1835 1215 1759 1772 1359 1830 202 
826 767 613 25 1196 318 941 881 1500 
978 2194 2014 1848 863 1318 1268 1443 1333 
496 884 369 1231 619 1235 1310 1429 2307 
1548 694 1472 1109 2299 1317 581 1127 1643 
545 1130 727 1133 278 1295 508 1618 376 
1622 1099 1822 1081 1536 351 1374 661 1380 
1513 2478 1155 1315 1586 1509 1140 831 869 
575 2104 1003 1839 491 1356 1263 1091 2021 
1479 1340 2297 1588 1888 1454 830 695 1088 
1876 1569 1728 1428 1030 1366 479 1964 1125 
1529 1425 2038 1049 865 1809 1838 537 1202 
1281 1674 1444 1181 1845 893 1630 1967 812 
483 1279 1492 714 1348 2159 770 2240 1120 
1100 1060 1796 1145 1886 1982 1831 1399 1702 
1925 2346 959 1332 1921 2210 2395 933 1629 
753 842 137 1180 751 1914 1945 1041 1517 
1577 1935 1137 1573 536 172 1151 796 693 
870 1011 1557 1006 879 2043 1624 1104 2036 
2451 781 24 615 1009 1334 756 1228 511 
873 1038 1221 1353 835 1122 1719 2200 1002 
2037 1940 2052 860 610 1233 890 654 1111 
982 1744 983 1225 110 1842 789 585 1357 
2453 2024 1352 2537 1502 2441 499 702 920 
1567 1131 1522 2362 1928 794 1362 1158 2001 
2139 1804 1435 1496 1252 2379 2258 667 682 
29 843 1871 2018 1907 947 237 1821 743 
1615 1361 1975 1455 2716 2546 945 2140 2425 
1600 526 845 280 840 1300 300 1395 355 
1226 878 1480 728 838 717 1720 1260 1787 
1342 1541 2335 942 2589 1599 2458 678 1168 
974 1238 309 587 1320 1148 381 570 1305 
606 761 1518 1895 1750 1593 1578 370 1521 
1466 1970 719 297 362 189 1054 1089 188 
431 565 148 1707 555 1381 814 1046 1129 
1501 1360 1304 527 975 171 730 1010 1487 
1139 723 1445 253 31 1306 1031 1063 2400 
2264 368 2074 1911 1244 993 564 1426 984 
503 1778 1112 1400 1812 1977 1391 187 1291 
757 2072 1080 1297 1149 1301 1673 2269 2651 
295 101 1439 716 1576 1294 919 922 632 
2248 232 817 1450 1370 2237 366 2319 2176 
742 1523 1090 1018 239 167 867 700 1052 
1078 2279 2242 1553 1312 1499 1675 2260 1910 
1007 32 419 588 827 1344 778 1255 1936 
1884 1449 1826 1870 1556 1714 2398 1337 1997 
2034 1419 672 1998 2367 70 1086 1335 1490 
1430 1394 737 1879 1972 733 459 1367 1540 
1462 1339 1574 2012 2133 1218 301 36 1237 
1020 746 1153 676 453 2114 420 911 2452 
1546 1721 1154 1664 82 568 1314 180 1766 
2108 1747 1150 326 1085 1311 930 484 87 
809 164 979 315 822 1535 1402 1743 553 
932 1302 1415 1241 1229 2324 549 955 709 
958 609 648 1682 940 192 1021 708 2115 
1469 2148 2156 1082 1190 1976 1880 1075 626 
480 448 765 238 1321 1069 554 405 74 
150 887 1236 358 1207 1230 1115 2375 539 
810 1583 50 1271 1384 481 1056 1441 1963 
573 688 51 2 849 1135 1532 13 740 
60 620 1984 1247 1379 1110 1029 1849 1827 
1524 2598 2152 891 1022 600 1604 1459 841 
1566 435 1560 2010 2446 2225 2223 2750 2660 
2134 1665 771 1346 472 925 439 790 1349 
1343 1617 559 1726 1257 71 2318 1048 1373 
1551 1760 2119 2283 1442 1004 62 603 793 
1819 1897 1001 644 2406 774 325 470 1102 
2910 948 1971 2022 2101 791 957 1246 683 
618 1309 1156 284 1625 681 1510 1195 1669 
2203 1934 1841 456 2039 634 272 386 277 
725 373 1436 685 846 698 1859 416 2158 
960 2090 444 2272 1375 1698 1712 2040 1227 
329 638 738 1670 820 547 1695 752 1582 
1467 1424 2035 2219 1163 637 1565 2410 1393 
561 95 571 976 1205 991 850 85 34 
1273 804 363 1267 1423 1261 17 2198 972 
1121 494 1655 151 1388 1959 383 306 1136 
1165 1875 169 2460 1873 1764 468 1867 1116 
2629 2243 2032 2064 1296 798 275 14 196 
1287 1534 2055 1172 624 2764 308 2030 1755 
1923 1932 1612 2236 89 1641 1298 1571 2007 
2049 1160 1868 1167 1475 1410 1303 2023 4 
2051 2284 1795 2127 2403 597 2211 1068 264 
811 591 649 1000 2146 486 538 184 261 
1514 1631 917 2474 1401 1645 1610 2813 1758 
321 829 1504 324 35 666 1108 490 759 
645 1591 1651 577 1724 1627 176 651 1453 
1050 823 433 415 143 195 59 157 965 
583 1249 466 801 1336 1713 359 989 2110 
1708 1422 1282 786 1752 1307 1554 61 999 
1173 1147 593 1266 1530 908 132 1290 552 
510 729 269 762 1495 156 670 1239 1364 
621 451 1209 542 1816 56 1980 1390 2384 
2081 1922 1657 1211 2327 343 446 1542 1189 
768 1570 1143 1579 1856 2690 1717 2680 2122 
1661 2554 2843 2775 2518 1245 3284 2196 2046 
2641 2257 2100 3086 3465 2999 2528 2911 2938 
3002 2289 1638 1259 1598 3160 2845 3808 3564 
2713 3025 3142 3155 2633 1906 2720 2686 1278 
2508 2349 2918 2801 1869 699 2195 782 2847 
2303 2247 1581 2102 2250 2341 2512 492 2977 
2588 3540 2275 2245 2464 1603 2987 3348 3013 
1783 2421 2417 2963 2208 3098 2862 3529 2851 
2262 2612 2121 2106 2084 2526 1681 1590 1626 
2840 2098 3413 2433 2968 2958 3636 4100 2435 
3707 1175 1488 1420 2003 2825 1146 2351 1800 
2383 2959 2833 2975 2761 2506 3682 2487 3033 
3315 3099 3256 2472 1533 2455 2187 2684 2624 
3174 3271 2448 2418 2378 3207 3060 3095 2295 
1519 1981 2377 3008 2075 2355 2932 2606 3464 
2517 2545 3734 3215 2871 3650 3187 1777 2855 
2735 2332 1952 2044 1937 465 2611 2560 2538 
2675 2689 1802 3193 2443 1865 2533 2669 2339 
2568 2877 2391 2314 1382 2646 1746 2493 2601 
1991 2135 2041 1458 2483 2645 2239 2330 3125 
2556 2185 1779 2869 2008 2613 2746 3425 3411 
3391 3851 3111 3469 2009 2427 2305 2291 2767 
1619 2812 2396 3027 3297 2516 3303 3122 3492 
2795 1253 2470 3082 1983 2510 2661 2532 1376 
2276 1727 2486 2368 1414 2183 3286 2498 3539 
3360 2505 3221 1686 2511 1824 2015 1978 2468 
2522 2765 2111 2048 2953 3079 1866 2402 3249 
2824 3553 2739 2808 2673 1780 2408 1693 2562 
1989 3175 2071 2964 1716 2338 2515 2423 2415 
2280 3015 2717 2848 3721 3699 1954 2013 37 
2329 2173 2181 3024 2298 2943 3124 1737 2105 
2450 2025 1817 1711 2271 1378 2429 2639 2859 
2610 3238 3789 1858 2004 2667 1607 2061 2886 
1887 1773 1065 2491 1700 2359 2385 2806 2389 
3252 3451 2829 3799 2268 2805 2226 2057 2177 
2142 2151 2576 722 2282 3156 2668 2816 2363 
3375 2708 2387 3247 3614 2858 2983 3345 2714 
1794 1662 3173 2794 2399 3094 2674 2457 2103 
3072 3338 3037 2581 3005 2944 2728 2190 1408 
1988 2916 2182 2870 3040 1942 3180 1966 939 
1671 1668 2600 1264 2804 2333 2120 1889 2736 
2540 3772 2050 1405 2594 2549 2666 2671 1840 
2409 2520 3158 2687 2846 2432 3690 3211 2534 
3208 2519 2461 1087 2317 2179 2440 2745 2420 
2005 1965 1987 3924 1198 2370 2322 2709 2361 
1531 3167 1905 2565 1863 1658 2116 2083 2579 
3063 2202 3185 1893 1730 2665 1805 1924 1539 
2935 3339 2939 1896 3445 3368 1667 1776 1969 
2163 2774 2773 2141 2688 2206 3258 2373 2082 
2482 1890 3029 2787 3250 3620 3548 2548 1902 
2796 2712 2880 1793 1723 2861 2875 1807 3455 
2772 2251 3039 2444 1916 3150 3892 1806 2006 
1363 1396 1917 1993 1452 1200 1736 1815 1994 
1877 2678 2407 2989 1781 2922 3890 1507 2577 
2172 1636 1704 2392 1568 1558 2786 2950 2207 
3453 2521 2741 2704 1216 1927 2531 1637 2130 
2326 2573 2595 2737 2820 3012 2676 2863 3214 
2323 2536 2309 2481 1206 1094 1694 2449 2607 
2215 2357 2603 1786 2978 1545 3003 2059 3189 
2405 2204 1985 3129 1447 2256 1833 1920 2118 
2193 2192 2125 3569 2885 2614 2086 1832 2584 
1660 1689 1732 1941 2699 1900 2798 2220 1901 
3257 2749 2343 2539 2835 1813 2466 1803 1653 
2422 2770 2940 2814 2881 3363 1616 2290 2431 
1735 3499 1946 2488 3149 3506 3278 2951 3633 
2232 2852 1769 1440 2883 3387 1885 1762 2068 
1990 2473 1431 2827 1938 2677 3246 2413 2572 
3121 2899 2169 2941 2344 2653 2912 871 1808 
2154 1992 2762 2026 2079 2424 2077 2752 2439 
2222 2647 2070 2504 2325 2306 2828 1729 1909 
1825 2356 1739 1585 1051 2564 2849 2632 3574 
2476 3112 2112 1292 2830 2094 2630 2132 2657 
2217 2969 2164 2844 3071 3179 2465 2738 2393 
2552 2570 1432 2095 2124 2500 1851 2649 1820 
1039 2887 2404 2865 2724 1930 3308 2854 2753 
2313 2990 3009 2337 1648 1549 2503 2175 1646 
1798 1956 2625 2725 2442 2218 3196 2249 2382 
2524 3351 2620 1515 1933 2636 1738 2459 1621 
2638 1915 2682 3054 2316 2802 3273 3485 3439 
2919 2931 1528 1761 1810 1797 2994 2253 3312 
2445 1874 2462 2934 2017 2985 2763 2011 2615 
3006 2604 3390 2374 3085 2785 2701 2414 2839 
1656 2529 1526 2799 3053 2342 1706 2587 1409 
3050 2789 3700 2890 2471 3213 3489 3448 3093 
3480 2123 2386 3047 2352 2178 2902 2923 2214 
2274 1731 2436 1947 2480 2273 3373 3337 2803 
2697 3087 2238 1740 1465 1204 2759 2199 1892 
2543 2244 2184 2619 2658 1898 950 2167 2287 
2447 1451 3105 1799 2213 2201 2016 2961 2608 
2162 2908 2535 3403 3123 3871 1473 2336 2702 
2888 2230 2029 1894 2492 2137 1918 3463 2555 
1854 2723 2609 1974 2340 2924 2456 2321 2751 
236 1872 2288 3277 3304 2045 2730 3756 3494 
2233 2925 3329 1511 1559 1666 1457 2076 2186 
2281 1527 1709 2261 3251 2982 2153 2654 2933 
1847 2437 3741 2679 1138 2768 2020 2019 2700 
3432 2962 2227 2705 1192 1234 2212 1635 1427 
2898 1742 2495 2744 3138 3070 2605 2681 2734 
3178 1748 2622 2265 2626 2592 1818 2331 2174 
2602 2376 2578 3234 2315 2097 3980 2715 3170 
2731 4228 2259 2837 2160 3031 1853 1939 2900 
3017 2810 3232 2547 3307 2691 3280 3712 2841 
2469 3733 2525 3190 2635 3803 2155 1801 1596 
3045 2310 2502 2397 1864 2729 2561 3287 3274 
3225 2496 2062 3893 3559 2952 2559 3010 2583 
1912 2063 2089 2078 2644 3301 2727 3153 3358 
3219 3436 3267 3330 3369 3836 4017 2590 2711 
2580 2936 2494 2822 2087 3202 2703 2390 3398 
2882 2949 2311 2485 2884 3091 2000 2054 1322 
897 1757 1601 2784 2360 2957 3371 2627 3270 
3145 2748 3116 3818 3367 2591 2475 3248 3397 
2138 460 1544 2188 2903 2988 2401 3292 2080 
1784 2663 2831 2892 3212 2655 3704 2380 2766 
2876 2956 1715 1474 2394 262 2670 2948 2170 
3372 2706 2631 2945 2171 2107 2582 3747 3114 
2672 3034 1791 2434 2234 1788 2513 2033 3400 
2270 2942 2872 2593 3460 2563 2294 3293 3081 
3937 3939 3059 2791 2197 2180 2411 2575 2350 
2586 3201 3120 3171 3266 3073 1926 2099 2992 
1903 1034 3004 2758 3442 2497 1313 1891 2302 
1770 2229 2692 3561 2369 2255 3341 3435 3752 
2650 2085 3444 2793 2811 1520 825 2147 2235 
2523 2412 2778 2585 2909 2246 3406 2144 3401 
2058 2637 3268 3396 2479 3115 2381 2060 2662 
2372 2126 2002 3172 2501 2266 3738 3357 3285 
1062 1951 2542 1973 2856 1837 2937 2574 3591 
2530 3783 2569 3162 1823 2970 3487 3176 3089 
3538 2514 335 2056 2131 2868 3255 2771 2866 
3580 3509 3657 2836 3493 2069 3106 2879 2685 
3804 2742 4039 3834 3118 3289 3955 3713 3722 
3446 3279 3282 2718 4166 1996 3703 2507 4216 
3792 3056 3958 4464 3331 3902 3919 3471 3235 
2623 3845 3639 2864 4060 4618 4497 3607 3972 
4124 3404 3862 3758 4367 3822 3319 2096 3677 
2783 2891 3790 4129 3077 2634 3032 3718 3440 
3778 3276 3058 3654 2308 3362 3334 3844 3194 
3723 3632 3302 3405 3288 3727 3195 3985 3147 
3547 3977 3670 4257 4149 4360 3361 4002 3472 
2371 4056 3763 3433 3831 4139 4388 4326 3913 
2955 3764 3349 4318 4788 4310 3378 2930 3761 
3165 3766 3152 4248 3967 3379 4066 3618 3735 
4416 3961 4270 4918 4390 4738 4051 2499 2467 
2747 3768 2616 3350 4439 3623 3894 4211 3675 
3800 4072 2967 3711 4375 3083 2809 3311 4415 
2553 1950 3500 2596 3048 4086 3811 3437 3708 
3868 3578 3717 3883 4536 4456 4451 4395 4279 
2597 3313 4200 2740 3067 3847 2973 3478 4170 
4460 4188 2929 4255 2834 3166 2189 4647 4389 
3833 3450 4637 3715 4813 2946 4664 4169 4520 
4550 3920 2966 2904 3325 3662 3449 4000 3052 
3512 3523 4371 4480 4632 3993 3264 3346 2821 
2438 2628 3186 2721 3676 3983 4007 3516 4946 
4475 4521 4286 4775 4366 4361 4136 3078 2088 
2842 3522 3599 3041 2907 3103 3188 3527 3794 
3907 2980 4797 3771 4648 4093 4742 4150 2659 
3572 2365 3028 3769 3226 3751 3353 3806 3714 
4317 3412 3898 3347 4198 3990 5425 4038 4161 
4290 4202 4600 4003 3828 3199 2216 2896 3365 
2648 3534 3370 3096 3298 4559 2777 2976 4012 
2656 4068 3611 2867 3774 4444 3528 4448 4240 
4089 3537 3743 3476 3615 3826 3477 3753 3409 
4065 3482 3556 3642 3754 4001 4891 4071 3462 
3309 2231 3000 3169 3813 3260 3594 3415 3317 
3518 4403 4130 3231 2477 3651 2168 2354 3388 
2696 3101 3931 3634 3468 4504 3242 3963 3459 
3328 3956 4175 2694 2693 2788 2984 2838 2857 
2927 3829 4259 4019 3344 3624 3773 3681 3376 
4205 3821 4284 4523 3306 3143 3679 2832 3183 
3457 3848 3402 3974 4134 3640 3204 3672 3323 
3987 4466 4328 3944 2895 3090 3616 3979 3418 
3244 3695 2698 3730 3259 4525 3253 4291 4387 
3951 4127 3988 4440 2241 2732 3542 3508 1741 
2954 3590 3504 3825 2726 4232 3897 4253 4120 
3705 3861 3011 4374 2757 2860 3557 3392 2769 
4113 3706 3849 3377 4545 3474 3092 2286 3227 
2558 4281 3655 3788 4490 2544 3881 4075 3568 
4699 2664 3571 3921 4590 4833 3860 4806 3001 
2995 3100 3427 3649 4306 4133 4597 4046 3886 
4754 4970 3140 3466 3157 4154 3746 3222 4103 
3422 3973 4084 4340 4560 4263 4979 2915 2897 
2894 3563 3767 3136 2993 3236 3237 3926 3399 
3191 4099 3856 3652 4031 4189 3275 4393 3020 
2263 2484 2683 3952 2819 3927 4125 3108 4688 
4184 2823 3327 3326 2567 3941 2541 3545 2998 
2617 2914 3229 2707 3638 3644 3685 4262 3598 
3139 3698 3055 4142 2986 3066 2293 3163 3109 
3107 3428 3272 3030 3680 3424 3837 4506 4753 
3127 4061 3490 4109 3336 3097 3948 3075 2947 
3810 4237 3925 4295 4570 3550 3241 3104 4731 
3786 3484 4870 4937 3333 3181 3498 3393 2571 
4454 3408 3356 4112 3622 3744 4105 3592 4315 
3628 3473 4095 3316 3858 2780 3935 2850 3431 
3762 4335 3588 3200 3891 3859 2419 4245 3757 
3877 3324 3981 4233 4069 4465 4207 4394 5179 
5247 4958 3692 3694 3023 3864 4402 3936 3061 
4429 3888 3452 3819 3596 3530 3007 3230 2928 
3558 3283 3044 4434 4528 2722 3665 3855 4128 
3210 3970 3824 4438 3458 3414 2733 3016 2358 
3748 2756 3663 4217 3946 2760 3332 4114 3220 
4246 3470 2642 2971 3161 2599 3084 2965 3796 
3197 2807 3022 3205 4024 3609 3502 3443 3867 
3659 4386 3576 3134 4008 1857 2991 2320 3617 
2815 2920 3501 4020 3619 3128 3613 3520 4468 
3689 3586 3863 4594 3602 3135 3668 2817 2893 
2926 2334 4083 3601 3544 3130 3198 4176 2974 
3184 4239 3144 3830 4419 2797 3486 2972 3305 
3164 3673 4165 3117 4365 3018 4531 4899 3608 
3687 3380 4235 2755 4327 4344 3666 3088 3146 
3582 3795 4053 3776 2979 3872 4573 3755 3505 
3429 2906 3842 3177 3560 4617 3366 4443 3014 
3874 2643 3552 4081 3686 3479 4062 3750 3850 
4349 3911 3513 4369 4077 3300 3702 3239 4309 
3775 2960 3359 4137 3243 3110 3447 3575 4614 
4347 3996 3595 4183 4555 4747 4491 3827 3945 
3950 3991 4193 3816 4311 3749 4472 3805 3395 
4018 4811 4156 3631 3610 4352 4338 5195 4206 
4116 4097 3779 3600 3719 3159 4736 4102 4673 
3960 4158 3589 4249 3835 3419 2792 3777 2428 
3643 3653 2826 3720 3383 3593 3245 3541 3637 
3739 4364 4312 4231 4990 4639 3295 2463 3491 
4187 2997 4163 3233 3043 3343 4090 4080 3417 
3314 1904 3299 2889 3975 4425 3262 3661 4201 
3019 4486 3488 4412 4256 3852 3168 4565 3438 
3074 3760 3394 2353 3533 3832 4288 3420 4320 
3514 3656 3218 4204 3605 3966 3536 4033 3182 
3151 2224 2754 3904 3441 3880 3900 3785 2853 
3660 3554 4215 4058 3223 4203 3042 3133 3999 
4146 3261 3584 3915 4199 3318 3546 4479 2800 
3737 4174 3732 4219 4250 3965 3865 3731 3846 
3645 3426 4791 4792 3224 3296 4108 3627 3968 
3793 3629 4152 3716 3876 3051 2981 3693 4598 
4999 4341 5224 3930 5294 3626 2917 3745 3065 
3036 2550 3407 3878 4300 3962 4157 4551 4860 
4823 2551 3049 4041 3354 3917 3597 3969 3697 
3291 3782 3064 4073 2921 4131 4042 3585 2874 
3929 3216 4078 2719 3688 3725 4234 3385 4182 
3736 3269 3531 3901 3119 3916 4055 4192 3587 
4513 4589 4377 3678 3021 3340 4140 4488 4835 
2388 3141 3290 3787 3519 3389 3352 3217 3515 
2901 3131 3382 4238 3780 3461 3068 3603 3671 
4625 3507 4591 3495 2913 4252 3154 3132 3691 
4391 3802 4258 3658 3384 4272 3062 4273 5101 
4717 3069 3562 3421 3521 3321 4505 3535 3798 
4336 4047 4274 4044 3566 4602 4943 3625 4727 
4604 4094 4035 3895 3263 3565 4194 3342 3254 
3430 3517 3322 4578 4135 4023 4926 3869 5232 