# vtk DataFile Version 4.2
Generated by LIGGGHTS
ASCII
DATASET POLYDATA
POINTS 6000 float
-0.0145611 -0.0186784 0.0123431 -0.0164407 -0.0172605 0.0124414 -0.0129394 -0.0200008 0.012401 
-0.00914677 -0.0190106 0.0123431 0.00119076 -0.023797 0.0125894 0.00320454 -0.0236126 0.0122853 
0.00527385 -0.0226653 0.0125973 0.0100336 -0.0216259 0.0125398 0.010656 -0.0196833 0.0125272 
0.0156478 -0.0178943 0.0122654 0.0105138 -0.0176496 0.0123857 -0.0194662 -0.0139162 0.0119391 
-0.0206881 -0.0118714 0.012027 -0.0187022 -0.0121316 0.0125665 -0.0159881 -0.0150577 0.0125924 
-0.0164175 -0.00897175 0.0124378 -0.0151323 -0.01055 0.0125167 0.011727 -0.0159994 0.0125931 
0.00946056 -0.0159001 0.0125884 0.0138969 -0.0109035 0.0125064 0.0111164 -0.00927134 0.0125643 
0.0147126 -0.00898721 0.0122872 0.0160318 -0.011499 0.0125314 -0.0192873 -0.00514017 0.012582 
-0.0208902 -0.00207704 0.0125242 -0.0161676 -0.00697172 0.0125014 0.015214 -0.00672091 0.0126035 
0.0232941 -0.0042756 0.012231 0.0203991 -0.00174088 0.0125566 0.0228011 -0.00647102 0.0125181 
-0.0214018 0.00420984 0.0124265 0.0169077 0.00057027 0.0125227 -0.017643 0.0158779 0.0125361 
-0.0123621 0.008549 0.0125717 0.0185098 0.0150907 0.0121324 -0.0171154 -0.0166195 0.0176719 
-0.0169199 -0.0168242 0.0148369 -0.014473 -0.0166698 0.01261 -0.0123595 -0.0181702 0.0132802 
-0.0109101 -0.0201475 0.0128771 -0.0104823 -0.0175356 0.0128231 -0.00961449 -0.0217005 0.0129954 
-0.0152447 -0.0177985 0.0142802 -0.0133714 -0.0170433 0.0145852 -0.0122694 -0.0204719 0.0144116 
-0.0139138 -0.0193084 0.0146666 -0.010627 -0.0168584 0.0147946 -0.0106863 -0.0189143 0.0144362 
-0.0105442 -0.0214662 0.0148167 -0.0122707 -0.0185689 0.0156137 -0.0138561 -0.0177065 0.0164855 
-0.0120983 -0.016678 0.016325 -0.0100879 -0.0198779 0.0161353 -0.0158933 -0.0178501 0.0162506 
-0.0134975 -0.0196704 0.016769 -0.0118641 -0.0207753 0.0163724 -0.0149328 -0.0186559 0.017915 
-0.0129562 -0.0182993 0.0181869 -0.0126558 -0.0202414 0.0185544 -0.0113147 -0.0171288 0.0182056 
-0.0162144 -0.0175484 0.0192083 -0.0142284 -0.0172593 0.0194292 -0.0104997 -0.0179431 0.0164752 
-0.0111089 -0.0191068 0.0179885 -0.0109432 -0.0211984 0.0181446 -0.01407 -0.0192796 0.0196218 
-0.0097597 -0.0217854 0.0166404 -0.00948992 -0.0180362 0.0185109 -0.00932002 -0.0199925 0.0181196 
-0.0089451 -0.0179379 0.0145561 -0.00906805 -0.0201903 0.0143764 -0.00915152 -0.0220171 0.0185611 
-0.00859787 -0.0185817 0.0165516 -0.0123691 -0.0166189 0.0198521 -0.0121728 -0.0186038 0.0200126 
-0.0105573 -0.0174296 0.0201587 -0.0103887 -0.0194867 0.0198275 -0.00860106 -0.0222321 0.0147074 
-0.00844117 -0.0167617 0.0173718 -0.00857052 -0.020324 0.0199473 -0.0121393 -0.0205676 0.020472 
-0.0103337 -0.0215298 0.0202673 -0.0087833 -0.0183405 0.0203726 -0.00761628 -0.0178391 0.0130177 
-0.005916 -0.0167189 0.0128764 -0.00620932 -0.0192648 0.0128164 -0.00740312 -0.0226517 0.0128218 
-0.00786451 -0.0205444 0.0126984 -0.00434499 -0.0179517 0.0129628 -0.00540744 -0.0232727 0.0133541 
-0.00433302 -0.019958 0.0128328 -0.00391357 -0.0219331 0.0130161 -0.00591561 -0.0212436 0.0130884 
-0.00260927 -0.018941 0.0128995 -0.00291215 -0.0236801 0.0128341 -0.00182875 -0.0219793 0.0129876 
-0.00736153 -0.0191598 0.0145398 -0.0057167 -0.0179706 0.0144443 -0.00269449 -0.0174044 0.0142 
-0.0067372 -0.0229851 0.0148318 -0.00554588 -0.0199837 0.0146859 -0.0037987 -0.0189849 0.0147725 
-0.00504274 -0.0219162 0.0147862 -0.00385501 -0.0235289 0.0146744 -0.00282571 -0.0205992 0.0140409 
-0.00163614 -0.0190148 0.0147489 -0.00187523 -0.0238633 0.014596 -0.00726076 -0.0174279 0.0156093 
-0.00260067 -0.0221089 0.0153566 -0.00668979 -0.0192044 0.0164753 -0.00818938 -0.0205317 0.0163004 
-0.00623925 -0.0211414 0.0162633 -0.00458973 -0.017651 0.0160716 -0.00593026 -0.023077 0.0166629 
-0.00260782 -0.018095 0.0162348 -0.00283414 -0.0201701 0.0160639 -0.00785954 -0.0224772 0.0166274 
-0.00472231 -0.0196068 0.0164759 -0.00428038 -0.0215529 0.016608 -0.0065139 -0.0174613 0.0174777 
-0.00766296 -0.0188403 0.0183692 -0.0075018 -0.0208254 0.0181569 -0.00728863 -0.0227766 0.0185556 
-0.00566764 -0.0192279 0.0182176 -0.00554184 -0.0212329 0.0181355 -0.00383481 -0.0183761 0.0177923 
-0.00532956 -0.0232532 0.018576 -0.00368242 -0.0203623 0.0182149 -0.00778688 -0.0170142 0.0192543 
-0.00585402 -0.0175989 0.0193849 -0.00396626 -0.0235224 0.016761 -0.0023482 -0.0169176 0.0181867 
-0.00337032 -0.023607 0.0187859 -0.00246384 -0.0186209 0.0192441 -0.00242263 -0.0216528 0.0173437 
-0.00165385 -0.019828 0.0176498 -0.0041684 -0.021877 0.0194463 -0.00388429 -0.0172248 0.019471 
-0.00214803 -0.0219717 0.0193467 -0.00199324 -0.0238098 0.0165946 -0.00115583 -0.0201104 0.0195766 
-0.000960438 -0.0201472 0.0127634 -0.00139681 -0.0239339 0.0184986 -0.000800462 -0.0238949 0.0127328 
-0.00079545 -0.0180974 0.0128412 -0.000911502 -0.0209006 0.0146422 -0.000677077 -0.0226081 0.0156642 
-0.000726778 -0.0181397 0.0183231 -0.000536995 -0.0185592 0.0163729 -0.000496028 -0.0221249 0.0176215 
-0.00668004 -0.0210638 0.0199655 -0.00496835 -0.0196884 0.0200434 -0.000225719 -0.017433 0.0146578 
-0.00646082 -0.0230956 0.0204044 -0.00693378 -0.0190889 0.0202294 -0.00831746 -0.0223452 0.0203738 
-0.00306864 -0.0203267 0.0201222 -0.00247029 -0.0237681 0.0206602 -0.000425224 -0.0238768 0.0204478 
0.000177001 -0.0221307 0.0130427 0.00102952 -0.0202912 0.0130271 0.0028276 -0.0194236 0.0127697 
0.0011995 -0.0182555 0.0128124 0.00475158 -0.0188904 0.0128885 0.00298885 -0.0173555 0.0128081 
0.00222804 -0.0221248 0.0132422 0.00388106 -0.0210119 0.0134051 0.0057931 -0.0207288 0.012866 
0.00675086 -0.0188874 0.0127401 0.00496576 -0.016885 0.0127075 0.000348093 -0.0193479 0.0147266 
0.00194746 -0.0181239 0.01471 0.00221348 -0.0201909 0.0146511 0.00029765 -0.0238565 0.0144414 
0.00442064 -0.0234351 0.0142721 0.00581877 -0.0178992 0.0142781 0.00387758 -0.0175364 0.0145923 
0.00102598 -0.0219109 0.0148809 0.00233387 -0.0237616 0.0144442 0.00481323 -0.0196188 0.0147954 
0.0050375 -0.0216101 0.0149576 0.00640874 -0.0229759 0.014223 0.00691494 -0.021062 0.0145118 
0.00305188 -0.0219723 0.0151017 0.00147074 -0.019223 0.0164359 0.00340159 -0.0199539 0.0162569 
0.00104871 -0.0172332 0.0163331 0.00503456 -0.0181234 0.0161168 0.00556592 -0.0232012 0.0160557 
0.00660245 -0.0193882 0.0160506 -6.00568e-05 -0.0205165 0.0165063 0.00183317 -0.0211988 0.0165747 
0.00305495 -0.0179685 0.0163849 0.00349068 -0.0236773 0.0160768 0.00141993 -0.0231832 0.0164124 
0.00416692 -0.0216696 0.0169544 0.00498804 -0.0197058 0.0174492 0.00127194 -0.0181843 0.018138 
0.000478549 -0.0201587 0.0184264 0.00163886 -0.0219604 0.018419 0.00357025 -0.0180651 0.0183177 
0.0024668 -0.0201171 0.0181853 0.00264939 -0.02369 0.018041 0.00466147 -0.0234657 0.0178443 
0.000632982 -0.0237636 0.0182647 0.00356421 -0.0216719 0.0188846 0.00615167 -0.021263 0.0165868 
0.00552301 -0.0213382 0.0184848 0.00411477 -0.0197668 0.0192691 0.00588823 -0.0231175 0.0194269 
0.00681856 -0.0228432 0.0176403 0.00744897 -0.017132 0.0151658 0.0076085 -0.0225481 0.0157662 
0.00750628 -0.0207859 0.0179834 0.00775783 -0.0170853 0.0127394 0.00768802 -0.022597 0.0126956 
0.00784611 -0.0189903 0.0144404 0.00180569 -0.0168726 0.0196374 -9.51903e-05 -0.0218062 0.0195834 
0.00234621 -0.0188011 0.019756 0.00167066 -0.020678 0.0199938 0.00378075 -0.0236628 0.0197725 
0.000323395 -0.0188032 0.0199006 0.00168827 -0.0237587 0.0201143 0.00690187 -0.0208875 0.0199392 
0.00805012 -0.0205814 0.012919 0.00812504 -0.0224974 0.0191165 0.00494551 -0.0216295 0.0203904 
0.00359963 -0.0174293 0.0205223 0.0127728 -0.0201887 0.0125815 0.00885024 -0.0187693 0.012614 
0.0124017 -0.0182568 0.0129612 0.0113739 -0.0209449 0.0139342 0.00952144 -0.0201167 0.0142671 
0.00900281 -0.0221158 0.0142668 0.0108993 -0.0185046 0.0142911 0.0144835 -0.0189492 0.0137667 
0.00918563 -0.0174506 0.0140983 0.0126784 -0.0178581 0.0151061 0.0130304 -0.0200223 0.0146944 
0.00835599 -0.0206865 0.0158481 0.0103503 -0.0214764 0.0156094 0.0108089 -0.0195316 0.0160399 
0.00910381 -0.0184247 0.0158904 0.0144958 -0.0190139 0.0158921 0.00896443 -0.0221272 0.0172707 
0.0125473 -0.0203426 0.016611 0.0126436 -0.0183799 0.0170493 0.00935723 -0.0199018 0.0173945 
0.0108193 -0.0212652 0.0175982 0.0110086 -0.0193002 0.0183536 0.0143177 -0.019178 0.0178975 
0.0109698 -0.017523 0.0162809 0.0127643 -0.0202325 0.0186169 0.0090563 -0.0205972 0.0192624 
0.0114008 -0.0173329 0.0182329 0.0151771 -0.0174102 0.0174038 0.0134727 -0.0171013 0.0184578 
0.016069 -0.0177157 0.0156159 0.0109406 -0.0211639 0.0196264 0.0124579 -0.0184548 0.0195384 
0.0164533 -0.017337 0.0189511 0.0144791 -0.018981 0.0199458 0.0147724 -0.0169802 0.0199958 
0.013757 -0.0167886 0.0126234 0.0103112 -0.0193767 0.0202671 0.012406 -0.0201617 0.0205845 
0.0167162 -0.016952 0.0137264 -0.0178373 -0.0158365 0.0127308 -0.0196251 -0.0103439 0.0127801 
-0.0216311 -0.0101017 0.0129127 -0.0189966 -0.00844557 0.0127002 -0.017613 -0.0138363 0.0127166 
-0.0188868 -0.0147347 0.0140778 -0.0222639 -0.00875074 0.0142562 -0.0200212 -0.0129816 0.0141022 
-0.0202636 -0.00926019 0.0144426 -0.0192604 -0.0112066 0.0146392 -0.0211979 -0.0110289 0.0151058 
-0.0181747 -0.00953177 0.0142807 -0.0177289 -0.0125353 0.0143476 -0.0179978 -0.0156821 0.0161144 
-0.0219708 -0.00952111 0.0161983 -0.0193112 -0.0141614 0.0159545 -0.0190142 -0.00988404 0.0162853 
-0.0177347 -0.00828975 0.01627 -0.0184132 -0.0151761 0.0182431 -0.0202772 -0.0124332 0.0163456 
-0.0211332 -0.01094 0.0173761 -0.0201973 -0.00918777 0.0177409 -0.0222206 -0.00885682 0.0181503 
-0.0190555 -0.0116645 0.0177492 -0.0196343 -0.0136013 0.0178943 -0.0205513 -0.0121121 0.0190026 
-0.0181209 -0.00909566 0.0186875 -0.0195635 -0.0103831 0.0192561 -0.0208036 -0.00857352 0.0196054 
-0.021576 -0.0104095 0.0192856 -0.0179752 -0.0127186 0.0163843 -0.0178413 -0.0132585 0.0188263 
-0.0173997 -0.0105359 0.0175014 -0.0174918 -0.0109426 0.0155374 -0.0172585 -0.0107245 0.0129504 
-0.0170438 -0.0143602 0.0148608 -0.0169221 -0.0142352 0.0172354 -0.0175421 -0.0161687 0.0200692 
[...]
POINT_DATA 6000
FIELD FieldData 7
id 1 6000 int
1574 197 1130 874 1455 1655 222 1540 117 
605 13 595 1226 493 588 840 816 239 
1367 1938 919 707 1063 909 3853 565 1868 
765 181 1131 1247 440 4484 5011 2596 2129 
1006 569 260 1169 1106 727 1747 1426 1576 
990 94 888 817 1021 1652 225 309 378 
69 2396 1075 337 1057 1992 2345 2457 320 
1498 2204 2007 1260 1421 1314 468 84 1457 
368 2185 1078 1513 913 1047 999 1829 2411 
370 884 508 1017 534 1048 708 441 1265 
224 837 204 1300 561 587 1167 285 1095 
618 393 2497 391 630 896 1473 14 1141 
547 2160 1797 1155 407 803 1180 1704 104 
100 1685 1246 1253 466 1128 1143 854 1174 
1015 1643 519 1592 2040 656 364 1690 981 
790 1243 1951 148 217 1766 186 1988 49 
195 1789 83 1674 785 349 905 1414 158 
800 1844 2022 2136 1572 828 944 108 631 
179 533 1081 556 1737 192 1242 227 889 
234 412 789 608 620 1202 1416 68 287 
591 37 714 719 957 443 1158 1439 687 
525 477 624 1504 73 367 1176 289 1273 
2081 296 458 1733 214 206 1119 1605 428 
2078 1147 2123 1153 348 17 1914 298 297 
300 1369 1633 2163 976 585 2423 2220 1201 
986 33 2261 435 955 419 230 216 717 
305 256 876 1255 2013 326 1543 1188 794 
483 1553 1555 637 46 722 1231 2616 1810 
172 438 1319 4351 3275 3104 3168 2076 4281 
2997 4502 1102 1136 4792 3149 833 1212 1662 
628 1034 701 40 629 723 603 1310 1753 
232 1463 1329 1343 735 617 1820 1026 2341 
1093 1339 1449 1425 114 1751 330 2188 1229 
1251 1371 509 2224 769 1793 494 460 384 
2175 1030 2009 89 857 1222 941 1278 1714 
1154 1089 1203 549 344 372 539 142 102 
271 1224 210 1890 685 793 380 598 1673 
1084 901 1334 704 429 868 764 176 231 
750 992 775 1527 1288 1611 2010 242 682 
1679 453 1336 1362 1280 1274 706 2092 563 
250 606 1707 1184 2159 782 576 2274 2376 
1612 463 1194 760 2075 1508 510 2111 925 
1091 1233 155 961 846 1703 562 713 72 
151 1452 1525 1077 2203 1991 2850 146 1531 
284 572 1053 741 383 12 456 131 259 
455 67 1132 663 632 1464 772 584 353 
781 404 498 522 558 318 850 223 1549 
1004 570 347 61 237 275 683 545 738 
2097 1060 1309 1110 1739 86 1120 244 983 
64 160 949 873 1575 449 947 523 655 
792 235 891 1462 369 241 276 1884 302 
156 710 680 975 885 1510 2 974 373 
1360 366 1012 375 18 1083 718 406 437 
497 1266 39 1932 2384 557 1638 980 946 
700 712 1429 1395 581 115 500 1070 56 
532 219 1219 550 724 639 904 1064 1518 
2093 1103 777 81 123 797 207 879 1087 
1517 99 664 725 1716 1228 1045 352 1428 
1698 394 48 1799 715 1562 1557 1869 1476 
1937 129 1658 758 1363 1407 1475 1223 559 
1813 2157 2113 1092 989 3170 867 273 1980 
578 2293 1827 174 360 279 26 3250 2960 
323 1908 199 2793 1978 1038 3188 1248 268 
327 1054 1139 1603 1096 1100 878 1263 331 
1723 1584 1390 1368 1904 5048 2238 1906 1221 
2020 596 1948 2192 1772 1692 3073 2443 1313 
910 3911 177 1928 1436 3346 2413 1065 1098 
371 691 2852 105 2669 966 784 1380 1197 
2142 71 1052 45 953 1007 2141 1725 2606 
1950 1374 307 1023 1968 2673 1936 2166 3397 
2399 78 2115 3536 1406 1621 2588 2402 2751 
1645 633 1947 2400 1705 1940 1400 1235 1750 
814 908 1963 1921 1860 2931 8 1640 5931 
4536 599 1585 5020 1307 1107 4443 5293 2470 
4358 1593 1435 2147 1492 161 20 894 87 
1138 5508 541 1370 1814 3062 1422 2171 1037 
2243 640 2674 1342 1564 3526 4160 978 2742 
1199 1877 1804 137 1491 3607 5581 1480 5926 
2834 2082 1569 514 1173 1213 2804 2969 1175 
552 650 501 1651 716 1986 154 832 15 
426 143 4001 21 810 693 954 392 1405 
191 1535 616 1127 511 1586 1609 1502 333 
872 1443 2194 2061 778 1028 431 141 871 
418 1388 395 695 688 43 1982 1254 416 
1620 1069 295 162 627 32 1588 795 1994 
139 1434 1828 859 757 4207 574 459 402 
1283 2246 1142 182 356 1809 1484 1682 1397 
2647 2514 213 1044 811 1411 248 301 1317 
479 399 551 451 1001 258 1332 385 611 
825 1040 1349 1031 607 988 829 1447 540 
211 615 469 526 753 265 97 678 166 
721 808 973 1671 521 673 834 175 457 
150 819 515 220 1151 7 465 462 703 
690 1108 1399 410 763 1387 931 1275 1323 
1770 1024 173 312 16 756 1331 1913 481 
165 994 852 932 726 1080 93 205 272 
387 1787 1311 1293 892 1111 1193 118 1385 
649 180 1438 1348 362 692 132 762 658 
646 805 345 1205 351 495 1718 253 30 
274 447 856 315 4 638 357 959 1105 
681 564 774 238 92 1441 897 34 59 
101 1118 461 613 634 860 341 113 90 
863 1186 1506 676 411 958 153 1074 823 
2045 1085 1479 771 1086 138 906 1851 524 
1189 2083 471 1494 567 1786 1051 1889 409 
720 791 1519 496 62 433 1539 788 527 
1695 355 698 1565 1417 916 731 1458 934 
88 415 95 171 1104 1764 594 636 215 
516 187 604 571 1207 396 728 1285 478 
1039 245 935 270 998 1220 921 491 1925 
1537 855 1377 281 473 42 812 1483 1211 
390 1654 452 1720 3121 699 512 342 1501 
1019 746 1 844 2282 2601 1713 1259 1520 
768 54 1308 730 1748 1394 560 645 1624 
787 2711 1090 1240 729 2105 475 1919 1159 
1818 1591 902 1985 1451 1601 1287 251 1460 
423 590 530 188 686 826 3 474 1125 
208 623 938 1886 269 1696 1580 414 711 
671 593 987 434 767 1752 246 120 486 
675 546 1046 1926 80 445 1191 1101 531 
1509 2219 147 1979 1172 937 870 106 2324 
1010 1967 555 2038 2138 77 2197 1756 1891 
893 288 1646 1819 3943 51 2752 554 262 
1708 985 984 2526 1987 759 2011 5882 5773 
4497 2424 6070 4671 6014 3467 4470 4880 5775 
2595 5334 5850 3248 647 2658 3083 3295 5068 
3090 5486 6001 5623 3422 5833 4473 122 5946 
4843 818 4388 454 5904 2549 3117 4056 5324 
3997 5891 5281 4055 5824 5464 5052 5805 5353 
4335 5018 4965 6064 5930 5131 5901 1823 5987 
4421 5779 3730 5231 3792 5472 6017 4674 4909 
5799 2102 322 1615 2169 1530 3131 2720 5610 
2215 5740 4697 189 1072 124 5766 1495 3538 
3713 1561 542 4639 1715 4036 749 144 3152 
4426 4628 614 2802 4073 4191 4222 5568 2104 
2625 4720 2167 2179 3838 2847 5563 5047 5430 
5847 1454 2535 4408 3642 1957 3191 1187 5027 
3078 3894 5432 4848 5994 1420 335 537 529 
3524 4248 308 499 1352 196 2481 651 2154 
1126 669 866 1468 737 504 3546 2799 119 
1356 2608 2358 1117 1945 134 1689 340 3027 
652 799 65 1217 1299 3652 1099 1647 751 
3108 4019 3259 743 2532 849 200 2504 1290 
543 1594 2098 2249 2500 845 853 3401 1989 
813 1717 2307 116 668 929 2152 2262 2117 
1627 2954 2492 1613 2516 400 377 2094 2405 
1281 2177 2621 1466 1337 1761 2043 1773 2828 
359 264 127 912 968 1149 752 520 386 
1477 482 1123 696 58 1392 140 622 869 
1116 635 346 135 580 733 1330 1058 754 
1347 1250 1066 159 1796 306 770 1059 1097 
1427 164 1214 821 1269 38 807 626 659 
583 2107 880 838 1547 1412 1109 1706 969 
145 528 877 1003 1876 2501 2132 75 420 
316 915 467 1842 1949 2453 861 28 1736 
1409 2202 2127 82 1635 311 1822 674 450 
1442 773 1286 1146 226 1481 582 321 110 
1009 783 841 439 513 1784 389 202 597 
942 1386 1225 1801 25 381 111 943 1056 
1668 1192 1872 660 1528 1408 1050 157 1582 
1162 1496 798 178 1847 1094 1614 1573 1952 
31 1959 149 1341 945 1735 1691 1897 2471 
2449 1710 963 2055 1556 1204 1497 1895 2100 
1423 2137 1758 2629 503 1419 1653 917 2573 
2162 1306 2172 267 446 266 167 1301 918 
566 1005 1365 325 809 5 1181 464 802 
914 1445 996 1272 2131 379 490 1179 835 
971 1846 109 506 29 600 24 847 361 
2165 1216 2112 236 747 3234 1503 1340 1403 
480 1583 2904 1033 22 2687 2120 3400 1693 
53 1893 2263 1533 4453 3114 2347 3369 3003 
2070 2465 1071 1433 2679 2615 3893 2893 4221 
5743 2510 2206 3046 5287 5556 4137 3440 5599 
5708 5616 5793 5774 6002 3837 5139 951 1879 
3517 5411 5155 5951 5567 5571 5143 4461 6058 
5957 5709 5966 4659 6008 4912 5677 5082 5271 
4571 5604 4367 4209 6000 5398 3881 5359 5515 
5722 5339 5663 5999 4557 4887 5977 3349 4356 
2923 5980 3345 5171 5261 5757 2618 1249 5825 
4332 3996 6003 2920 2417 3492 5119 2708 4539 
4101 5246 5492 4368 4748 4446 4430 3478 4277 
4819 5714 4735 5178 5938 5910 5701 4860 2941 
4616 5252 5002 5976 5670 5719 5660 4157 5736 
4675 5967 5235 3388 5923 5836 4525 6048 4417 
3591 5046 5741 4299 5236 5839 4991 5100 5213 
5335 5389 2772 1871 1350 3382 5704 5360 168 
4787 1333 2642 1630 3080 47 1076 4303 5400 
3494 1234 3402 5185 4422 3606 4107 4545 2430 
4014 2391 1381 2308 5703 2912 5223 3064 2335 
2351 5474 5138 5619 5414 2735 5394 3836 5301 
3649 3681 4058 3960 2995 2281 4910 5612 4610 
4917 1600 4118 3863 313 4110 3186 6065 4924 
5311 5527 4514 517 278 3918 52 544 666 
1867 2268 960 1670 1027 1424 3447 2583 1848 
2041 303 254 979 1927 1785 1378 76 684 
786 2291 702 2313 2684 2486 1782 621 107 
2867 1453 1728 3225 2223 3862 2099 2789 2661 
3373 1661 1915 1617 1068 397 575 2714 470 
2242 4100 839 448 263 2245 865 824 233 
1478 939 427 492 2536 221 1008 424 2643 
485 19 376 1931 343 2478 1836 363 35 
317 277 1322 1656 804 612 291 96 2029 
1883 1524 2851 2865 2831 2074 2103 2880 1383 
2522 2409 881 2548 2158 2121 2109 890 1734 
2433 198 1875 2538 3905 3471 3725 2866 3431 
2649 3771 3227 1780 2228 1318 228 642 282 
421 1500 240 1014 487 2080 505 1834 1981 
907 2375 2306 2071 670 2652 2915 1446 1771 
2499 875 2494 1467 3019 2746 1649 2718 3521 
2126 3379 4133 3380 2421 3775 1218 4112 5692 
4974 5248 3594 5684 4198 2432 3762 5928 5118 
5498 5650 5600 4213 5808 4541 5491 4969 5816 
4166 4895 5869 5886 4246 4950 5861 2570 4214 
4907 5993 6050 5460 5713 3819 4852 3778 5730 
5707 5403 5699 5792 5351 5522 6051 5075 4176 
3742 4519 5348 5344 5959 6 5760 5066 4117 
5392 4903 4032 5557 98 5195 3962 5721 5280 
5786 5204 2829 5844 5767 5800 5630 6020 4723 
243 5818 3101 4063 5206 5828 5896 6018 5998 
4369 4407 4489 4494 5381 5110 5514 5667 4701 
5140 6045 4436 5166 689 3924 995 3861 2458 
1133 4561 3632 336 2682 3254 3377 3463 3873 
3410 3395 5037 1258 1011 3611 57 1156 2297 
5006 5764 4323 169 3672 2290 2436 3022 4147 
91 2524 3043 4070 2993 3845 4580 5307 4937 
2288 3635 2018 3957 3566 4076 3122 3812 2284 
41 3766 1073 4582 3655 2699 3537 5142 74 
304 1579 3949 1032 1043 425 679 398 184 
830 1965 776 79 2164 2640 780 1182 255 
2296 2633 112 2379 2381 3106 3134 4463 2354 
2004 2729 328 1185 2050 2786 1984 3051 3434 
3469 3799 2657 1742 2585 3859 3549 3274 2110 
1806 3550 5443 2721 3638 1482 2680 2023 1953 
1863 2491 2951 1954 3016 1905 5232 2988 1805 
3794 3596 4533 3930 2801 4296 3931 3005 4745 
5074 4457 4517 5962 5841 2973 3123 1865 5689 
3129 3092 2987 5942 5974 3172 3165 10 152 
1523 923 1025 662 55 1316 1013 417 2250 
2389 1261 11 1859 2940 2189 965 1355 1145 
1597 1684 1382 3944 2906 2091 3548 2148 1514 
2431 3693 4066 2614 5662 128 3988 1536 3017 
1570 3835 4648 5399 4294 1778 3733 1997 4840 
2059 5350 1590 4412 5375 4886 4474 962 1888 
5559 1493 1018 619 60 1022 1312 2541 3486 
4797 1628 3735 4361 2928 3015 2005 5367 1962 
2096 4183 2006 1680 2328 1152 1552 1486 553 
314 2184 1121 1215 1892 2233 2542 1701 2234 
193 2653 332 2697 2447 1808 2144 2072 1866 
2617 2237 2456 2046 2332 2348 2663 589 3322 
2378 4647 1909 2725 4236 3020 2962 2459 2683 
3002 5117 3784 5194 2612 3281 2738 2016 4420 
2513 4829 374 2000 1729 1854 1840 1432 4385 
2416 1389 1636 3291 3102 2031 4983 3290 5831 
2568 4868 4520 2701 2475 1357 1554 4375 3774 
1942 2264 4121 2935 4103 4285 293 4712 4271 
4808 3535 2519 3370 2919 3897 4730 2267 4090 
4591 3444 4655 1788 1346 2564 5091 4861 3788 
4687 2963 2393 2977 1578 5043 5628 3908 3230 
2645 2891 3590 2644 2028 2455 822 4896 4169 
4429 183 4233 5778 2656 2731 2067 3010 3133 
4841 4597 2445 4601 5790 2077 2217 2737 2759 
3351 4882 4658 3429 1448 1874 4002 4691 4466 
2744 4283 3753 3839 2958 3482 2622 2971 1295 
2309 1041 3785 1930 2605 1239 5373 3224 3091 
3800 2366 36 1917 2464 2814 2765 2380 1779 
1577 1529 50 3474 3328 5555 4238 2946 507 
3336 2386 2734 739 1122 930 2212 3677 3301 
4185 3809 993 2057 6056 4955 2337 1767 4778 
3986 2730 2686 2502 1960 2581 4218 643 1732 
2014 299 4204 4543 4219 2170 3210 3423 2873 
4760 1686 970 1571 1995 133 190 1000 1664 
927 1515 2118 422 283 694 218 408 1035 
579 1164 2280 294 1413 2260 1113 502 653 
3824 1042 1232 2201 2452 1321 329 1719 1802 
1681 2425 2315 203 247 740 1198 249 1568 
1754 2058 1648 1526 2609 2350 2610 4491 1345 
3357 3805 5021 1161 661 3075 2406 2333 1900 
1268 2176 815 1775 2321 982 1144 5954 1587 
2200 2733 609 1676 1964 1538 779 1291 1843 
2329 1208 1999 734 66 1548 201 1016 488 
1901 2418 864 1157 358 1759 1841 1792 1134 
842 1398 654 1800 1020 1327 432 1852 1237 
2252 1210 1227 1471 1657 1922 2025 697 1973 
1488 2229 2155 1741 1082 886 1487 3198 1918 
1430 1289 1304 1625 2559 2419 2862 1238 2756 
2773 2488 1270 2628 3187 2651 1499 2531 3570 
4224 2226 1364 2860 1444 3801 1903 1241 2620 
334 548 3706 257 3011 3262 2540 3592 2882 
2008 1608 3126 2119 2710 1683 2978 2049 3332 
948 3331 3118 2747 2270 2561 3857 1049 2343 
2722 3529 1749 3627 2678 3966 2285 2474 2917 
3928 1939 4490 4381 2505 3472 2139 3878 4673 
4287 2970 3359 3150 4083 125 2230 3195 2819 
1560 2574 5302 2442 3831 3708 4143 4134 3765 
2339 130 796 2520 1489 2886 2533 1284 2253 
2545 1375 3532 4390 3319 745 3303 1279 5001 
3461 3223 2437 2589 3622 5385 3060 4223 2289 
2809 3232 3888 2777 5544 5749 3983 2186 3324 
2395 2515 5539 1619 5384 5012 5056 2462 4918 
3272 2554 103 3763 2705 3071 2979 5843 3146 
2272 3014 1849 3340 4312 3455 2876 3938 2929 
2310 3196 3980 5220 1328 4764 4963 3233 3501 
5004 3416 5173 2135 4573 1970 5257 3950 5323 
3059 2981 3901 3849 5711 4670 4339 5364 5438 
4418 3820 5086 3818 2327 3194 1744 2051 1878 
2033 1738 163 858 382 1993 1150 641 848 
2209 3302 2482 1850 820 887 2269 1292 126 
3292 1461 1303 806 1642 2085 1898 1124 677 
1899 5657 3586 2956 2807 1817 3031 2754 4425 
4593 2258 3362 1567 956 3099 1933 1791 3004 
1546 4156 2277 2195 3630 63 538 2156 350 
1166 23 229 489 1566 1036 1376 261 586 
518 339 1372 1731 895 85 286 1437 2210 
1384 1366 1326 1837 1618 755 1344 1558 1472 
1325 1856 922 928 310 898 2248 252 1663 
2017 991 319 1599 2153 1178 1114 1267 2768 
1639 1244 484 1666 1163 1765 997 2577 1783 
1209 1862 1282 1271 1659 1815 1743 1171 2401 
2298 1256 1148 403 1465 1305 2151 1183 1711 
2060 2001 1774 2429 1354 27 1881 1137 1450 
70 185 1544 280 665 1595 1474 476 405 
1623 1379 2145 1262 1029 194 766 836 950 
601 1297 1589 940 882 1079 705 2052 1700 
843 1795 1699 977 933 1200 2106 1393 831 
1055 2483 1456 1894 2084 1294 1760 2567 2255 
1062 1088 1824 2254 1794 1845 2331 413 1776 
1359 1516 2024 1606 2346 1129 2557 1634 2365 
1961 1880 2441 1353 2086 1697 1415 2032 1165 
2547 2412 1902 365 1629 1996 1512 1757 1790 
2087 610 577 1002 536 1257 121 2108 1803 
1858 2582 862 648 2352 2782 1826 1276 1358 
1839 2528 2161 3688 1911 2706 4415 2460 2388 
1302 2322 2187 3360 3920 3044 2357 1798 1873 
3008 2709 3641 5922 2868 2479 5885 2700 5609 
3105 4614 967 926 1296 1721 1470 1812 899 
1277 1977 2785 2634 736 1190 1604 2286 3190 
3942 4949 827 2527 3199 2303 1361 2591 5611 
4161 3629 1298 2898 3070 1835 5700 5776 2704 
2901 3488 2221 3390 2810 4495 2855 3732 625 
3427 4250 4577 4216 2739 2355 4045 3124 3887 
3917 4377 5146 3518 1351 3698 2878 2039 1607 
6025 5325 4507 4564 4621 4707 5690 5141 5073 
5794 5266 6031 5788 5229 3176 4976 5554 5214 
5635 5576 4728 4679 4310 4459 5538 5734 3618 
5815 5569 3258 4651 4807 5105 3648 5900 5239 
5846 5737 4961 5256 3620 4700 3883 4768 3696 
5125 5804 4959 5310 5561 4776 5429 5309 5442 
5675 2805 5377 5725 5135 5744 6028 5326 4370 
6052 5446 5095 5631 4897 5578 4834 5821 4008 
5296 4801 5081 4235 5116 5511 5459 4177 3171 
3109 2240 5292 6038 1923 761 3045 3922 5154 
354 3822 3193 5150 5196 3507 5986 4534 1545 
4319 5728 5208 2569 2551 5029 3477 4757 3892 
3462 4028 4522 3160 3348 5877 4758 4105 5565 
2518 4203 5163 4278 5494 5592 6006 3926 4595 
4003 4365 3238 4862 5878 3870 5856 3903 5858 
2193 5909 2048 1541 1678 2761 2666 936 2677 
1665 3053 2463 1135 3578 3623 2703 2553 1650 
1315 1206 2128 2604 4400 4178 2626 1830 3021 
4661 1864 3335 3179 1687 3970 2191 2438 4696 
3050 4197 2496 1972 2911 2257 3192 4164 2968 
1755 2360 4872 2627 2218 3975 4592 2619 3300 
2390 2861 2631 2723 3598 3645 3181 2414 3076 
2889 4256 2770 3802 3605 2392 3135 964 2088 
667 1983 1622 338 1929 2336 430 2879 1230 
3154 2183 1335 2116 2784 324 1402 2168 742 
2353 2063 2377 2818 1831 136 2480 1505 1616 
1924 1702 1722 2140 2440 2312 2976 2408 2815 
2019 2613 748 2797 2587 3419 2896 1910 1626 
2292 3285 2090 1857 2864 3209 3790 1641 2849 
2383 2967 4106 2026 2330 1160 170 3220 1974 
900 1688 2624 3520 1887 592 3088 3353 2398 
2205 1712 1969 1724 4627 4007 972 3294 3534 
2953 1861 2575 2654 2420 2239 2073 2311 2961 
5060 2334 2943 3089 2571 3243 2214 3049 3307 
2689 2530 2232 3793 3082 2877 2778 2503 3617 
4180 3803 4535 1825 3772 2955 2685 2062 4738 
4009 3441 4488 1170 2276 5467 568 3235 5262 
3386 3496 3041 3722 4372 4480 2779 2672 3342 
3180 5756 2727 5104 644 5238 4708 2047 3764 
3511 4116 1644 4485 1672 1976 4676 2446 5418 
3978 4225 4113 2349 2800 5253 4704 3350 1730 
1966 4722 2934 5152 3306 3468 1832 2775 4108 
4136 2885 4607 4505 3167 5784 4705 6061 5621 
4054 4783 4943 5972 4993 5275 3866 5502 3026 
5837 5374 4682 4275 4516 4975 4755 2030 4828 
2989 5477 4280 4414 4492 5356 4201 5466 5199 
4769 4850 4727 5608 4900 5758 5419 5537 4129 
4152 4920 5919 4343 5638 6026 5622 4428 5549 
5685 5461 5040 4894 5321 5039 4341 5130 4890 
4023 5112 4702 5079 5739 4037 4229 6040 4770 
4360 5358 4739 6016 5342 5475 5520 4851 5424 
5521 5288 4150 6007 5420 5932 4972 4617 5535 
5435 6024 5813 5724 4677 3219 5308 5939 5674 
5803 4938 5189 6022 5870 5177 5806 5470 5745 
5669 5590 4719 4997 6037 5817 4119 6023 5898 
5028 5409 5845 6060 4681 5519 4952 6053 5366 
4977 5090 5017 4568 5224 4922 5501 5996 5227 
4995 5025 4669 4747 5863 4512 4788 5404 5203 
5960 4827 5717 5587 4635 4387 4165 5336 5153 
5964 5929 5903 5637 5968 3628 5387 2146 3736 
4598 3279 4167 4172 3740 3424 3603 4413 5158 
5585 4833 4602 3731 3249 5405 5449 2064 5523 
4759 4726 4546 4711 5099 4901 4656 2724 4665 
4389 4939 3865 5647 3826 4049 4261 4186 5550 
3963 4986 4232 5471 2603 4338 4017 4021 4954 
3660 3457 3409 4925 3954 3142 4946 5390 5198 
4403 4154 5230 5933 5906 4668 5349 5570 4562 
4350 3872 2646 4170 3069 4891 3941 5106 4813 
5201 3164 4263 5167 4684 4845 4089 3525 3776 
5718 5895 2947 1916 3626 2300 2373 3151 3361 
3047 4188 2632 3084 3539 4486 3572 3127 4268 
2760 2933 3504 4531 3709 3430 3563 4692 2899 
2950 2812 3141 3347 4127 4016 2374 3393 2798 
2476 4599 3712 4211 3392 3898 5393 2562 3499 
4878 5298 3242 4317 3221 4781 3933 4929 4041 
2846 3453 2913 3032 3601 4200 3288 4305 5327 
3433 4242 5132 2854 4427 3959 3991 3366 3286 
2924 2325 2925 2056 2484 2265 1769 2902 4006 
3446 3639 3659 1885 3354 2848 3343 1418 2787 
3885 4130 3876 4424 4334 3355 3100 2964 3915 
5267 3791 3937 4906 4293 4260 5516 3231 3132 
2231 2426 4279 3587 3998 3460 2888 4804 2806 
2871 5331 5574 4809 4806 2509 4990 5062 3184 
4144 4074 3844 5109 3710 3583 3182 5444 5772 
5754 4192 1935 5233 4487 3869 4609 2607 4276 
3921 3858 4569 5518 6043 3995 3033 5242 4441 
3720 3072 4320 1762 3237 5103 4838 3907 2984 
3153 3927 3795 3038 4067 3473 4438 2788 3406 
5408 4971 3544 3814 5541 3879 3438 4092 3767 
1581 4749 4455 5413 3729 6027 5455 5452 4196 
5077 5456 4220 2758 4864 4626 5180 3827 4440 
5975 6068 5984 5712 5241 5245 4346 6049 5731 
5383 5948 5469 5627 5875 5207 5410 5015 4732 
4432 4650 4513 5888 5468 5643 4987 5883 5864 
5425 4439 3267 4913 5312 5908 4493 5295 5907 
4885 4585 5094 5485 5458 6069 4846 4043 4618 
5506 4464 4249 5168 5763 3981 5624 4874 5355 
5300 4821 5379 4698 4330 5879 3936 5961 4383 
5222 3542 4812 5322 5927 5317 5345 5762 5936 
5614 4837 5782 4523 4683 5941 5917 5422 4575 
4393 5526 4856 5428 5083 4521 5686 5397 5871 
5694 5899 5340 4756 3266 3247 5997 5548 5573 
5320 5101 5575 4690 5122 4775 4087 4640 5072 
5200 3589 5120 3299 5747 5013 4942 2853 5924 
4175 4574 5513 5802 3895 4960 5490 4567 4158 
4145 3437 3604 1115 5852 3576 4405 3945 6055 
4120 4657 3684 6039 4653 4318 5925 5369 4012 
5244 3811 5862 5499 5785 3449 5666 3479 4643 
5226 4632 5478 5552 4082 5096 4378 4605 5209 
4947 2966 4893 5165 5484 4875 4342 5969 4542 
5547 4699 1816 5161 4777 3695 3843 4810 4217 
4349 5179 5264 4270 5681 5050 5067 3567 4313 
3614 4048 3787 4314 3716 4234 3543 3009 3994 
3727 2821 5688 2702 4026 3166 3852 3741 4752 
3068 4057 4162 3513 1596 5593 4751 3864 3560 
4584 4379 4301 3661 4123 3925 4241 4399 5034 