# vtk DataFile Version 4.2
Generated by LIGGGHTS
ASCII
DATASET POLYDATA
POINTS 5999 float
-0.0175261 -0.0414343 0.0101699 -0.0137519 -0.0427595 0.0101946 -0.0097476 -0.0429402 0.0100362 
-0.00609769 -0.04458 0.00975405 -0.00214574 -0.0438973 0.00982076 -0.00653635 -0.0405511 0.0100938 
-0.00277417 -0.0403216 0.011523 0.00171594 -0.0449376 0.00997378 0.00904802 -0.0440652 0.00976718 
0.00520665 -0.04297 0.0100475 0.00222311 -0.0401784 0.0100595 0.00849769 -0.0407106 0.0131466 
0.0150342 -0.0418947 0.0100436 0.0120255 -0.0433387 0.012348 0.0177376 -0.0413451 0.0130285 
-0.0302915 -0.0332707 0.00947867 -0.0317579 -0.0317862 0.0132348 -0.0245767 -0.0376481 0.010066 
-0.0210692 -0.0395743 0.010221 -0.0211114 -0.0313667 0.0100908 -0.0210205 -0.0353636 0.00993772 
-0.0245594 -0.0334982 0.00991786 -0.0276409 -0.0355066 0.0114915 -0.0268405 -0.031794 0.0127481 
-0.0140047 -0.031286 0.00988582 -0.0141233 -0.0354172 0.00966993 -0.0175589 -0.0333444 0.0100296 
-0.0115212 -0.0393519 0.00989309 -0.017598 -0.0374338 0.00989881 -0.0101186 -0.0322609 0.0101463 
-0.0146113 -0.0385108 0.0123629 -0.0113459 -0.0361868 0.0124538 -0.00830569 -0.0369502 0.0099619 
-0.00610451 -0.031137 0.010064 -0.00216573 -0.0304213 0.0102303 -0.00356006 -0.0340786 0.0111011 
-0.000571531 -0.0371507 0.010452 -0.00742305 -0.033996 0.0125409 -0.00522322 -0.0373393 0.0127191 
0.00756308 -0.035295 0.00993299 0.00651466 -0.0391881 0.00998958 0.00855779 -0.0314122 0.0100834 
0.00337176 -0.0363144 0.0100605 0.000578715 -0.0333179 0.010578 0.00462826 -0.0324852 0.0102546 
0.00995488 -0.0369677 0.0127788 0.00587211 -0.0368897 0.0132043 0.0105176 -0.0396637 0.00983689 
0.0143394 -0.0369731 0.00990262 0.0185412 -0.0388866 0.00992792 0.0170544 -0.0310904 0.0100365 
0.0114448 -0.0342174 0.010184 0.0180933 -0.0349483 0.0104661 0.0130409 -0.0304743 0.0103351 
0.0148072 -0.0335422 0.0122926 0.0132585 -0.039559 0.0127907 0.0166516 -0.037468 0.0132228 
0.0259012 -0.0367528 0.0101344 0.0220933 -0.0349576 0.0101729 0.0290365 -0.034124 0.0101704 
0.0210717 -0.0310324 0.010158 0.0225391 -0.0389474 0.0101999 0.0253474 -0.032579 0.0103519 
0.0284396 -0.0300176 0.0101614 0.0319678 -0.0316468 0.0115118 -0.0327984 -0.0296831 0.00993986 
-0.0397164 -0.021068 0.00962371 -0.0323899 -0.0221555 0.01011 -0.0362905 -0.0231053 0.0100998 
-0.0358385 -0.0271013 0.0102603 -0.032917 -0.0253645 0.0124439 -0.0297534 -0.0257839 0.0100117 
-0.0286299 -0.029638 0.00987824 -0.0211746 -0.0273598 0.00986012 -0.0281896 -0.0220613 0.0099827 
-0.0252745 -0.0255186 0.0102282 -0.024637 -0.029468 0.0101482 -0.0218398 -0.023418 0.0100809 
-0.0245119 -0.0204286 0.0099932 -0.0277 -0.0243407 0.0132385 -0.0175192 -0.0293045 0.00999998 
-0.0184281 -0.0213152 0.00995435 -0.0136971 -0.0258618 0.00989305 -0.0176687 -0.0253043 0.0100882 
-0.0144577 -0.0218108 0.0102984 -0.0106952 -0.0202654 0.0102585 -0.0119271 -0.0286525 0.0121515 
-0.0119599 -0.0229321 0.0132303 -0.00989919 -0.0242206 0.00998464 -0.00380367 -0.0237225 0.00995449 
-0.00859759 -0.0280056 0.00999072 -0.000990015 -0.0265905 0.0101236 -0.00673919 -0.0208956 0.0103699 
-0.00476604 -0.0274784 0.011158 -0.00681616 -0.0242592 0.0125364 9.9664e-05 -0.0227345 0.00998945 
0.00400032 -0.0218376 0.00993524 0.00570846 -0.0285808 0.00997168 0.00682325 -0.0246743 0.00986793 
0.00964435 -0.0275476 0.0100591 0.00291392 -0.0256889 0.00996629 0.00180856 -0.0295411 0.0101058 
0.00721818 -0.0215462 0.0123334 0.0141903 -0.024858 0.0099543 0.0175149 -0.0271155 0.00992716 
0.0168984 -0.0219081 0.0101006 0.0129898 -0.021041 0.0101781 0.0104096 -0.0239043 0.0115589 
0.0126145 -0.027274 0.012739 0.0202437 -0.0241868 0.0098794 0.0243532 -0.0237133 0.00995964 
0.0227987 -0.0274164 0.010033 0.027714 -0.0210714 0.0102556 0.0266881 -0.0266651 0.0115355 
0.0220043 -0.0218729 0.0126446 0.0237238 -0.0299614 0.0130283 0.0201108 -0.028167 0.0129695 
0.0303085 -0.0240508 0.0108839 0.0381028 -0.0237452 0.010059 0.0357189 -0.0273578 0.0105172 
0.0317359 -0.0277571 0.0103843 0.0341939 -0.0230753 0.0106624 0.0393871 -0.0214782 0.0131878 
-0.0427461 -0.0109566 0.00999645 -0.0421719 -0.0155486 0.0106838 -0.0409097 -0.018708 0.0128258 
-0.0400831 -0.0102487 0.0129738 -0.038622 -0.017196 0.00970268 -0.0315232 -0.0148597 0.00986078 
-0.030386 -0.0186914 0.0100411 -0.035522 -0.0146567 0.00981957 -0.0351356 -0.0192041 0.01019 
-0.0390877 -0.012834 0.0100065 -0.0333724 -0.0112921 0.0101156 -0.0364806 -0.0120539 0.0129437 
-0.0304787 -0.0123448 0.0127995 -0.0242046 -0.0106383 0.00975031 -0.0276548 -0.0131821 0.00988995 
-0.0233241 -0.0150055 0.0100901 -0.0267364 -0.0170775 0.0103732 -0.0211055 -0.0183793 0.0105767 
-0.0215117 -0.0121761 0.0122797 -0.0270152 -0.0102913 0.0128174 -0.012247 -0.0165185 0.0100954 
-0.0118999 -0.0124356 0.0100527 -0.0192971 -0.0148283 0.0101541 -0.0159834 -0.0180314 0.0101746 
-0.018268 -0.010915 0.0102784 -0.0154236 -0.0141309 0.0109041 -0.0131802 -0.0189618 0.0131231 
-0.00438571 -0.0132632 0.0099429 -0.0070264 -0.0102541 0.0100328 -0.00154188 -0.0160753 0.0102242 
-0.00830492 -0.0141906 0.0100404 -0.00553689 -0.0170795 0.0102922 -0.00270248 -0.0199009 0.0103815 
-0.00104311 -0.0125311 0.0120168 -0.00902467 -0.0172555 0.0125352 -0.00923564 -0.0116647 0.0131174 
0.00529932 -0.0180533 0.0099496 0.00936861 -0.0151034 0.00993088 0.00248719 -0.0128031 0.0100113 
0.00593834 -0.010773 0.0100311 0.00947783 -0.019103 0.0101133 0.00130411 -0.0188844 0.010092 
0.00579314 -0.0144531 0.0116347 0.0016861 -0.0157754 0.0125839 0.00996937 -0.0124645 0.0128823 
0.0171507 -0.0131809 0.00988708 0.0129246 -0.0170281 0.0100655 0.0127269 -0.0127779 0.00993726 
0.0168756 -0.0173906 0.0105892 0.0191932 -0.0105201 0.0121255 0.0151842 -0.0105589 0.0122479 
0.0147765 -0.0147103 0.0127806 0.0201681 -0.0195797 0.00989407 0.0278556 -0.0130561 0.00994498 
0.020393 -0.0155315 0.0100805 0.0224098 -0.0117961 0.0100599 0.0280175 -0.0170627 0.0100287 
0.0244123 -0.0152585 0.0103728 0.0241349 -0.0192827 0.010419 0.0251889 -0.0122739 0.0129427 
0.0215836 -0.0177823 0.0131807 0.0313985 -0.0149169 0.00997042 0.0367438 -0.0199944 0.0105201 
0.0318337 -0.0198275 0.0107461 0.0351806 -0.0132102 0.0101087 0.0396925 -0.0120308 0.0105795 
0.0382343 -0.0158188 0.0101799 0.0325972 -0.0104132 0.0113422 0.0344719 -0.0168844 0.0116478 
0.036635 -0.0108849 0.0130534 0.0423161 -0.0151142 0.0100599 0.0435903 -0.0111518 0.0101978 
0.0407722 -0.0190024 0.0101173 -0.0403601 -0.00740723 0.0101546 -0.0407303 -0.00329556 0.0100746 
-0.0443228 -0.00657132 0.0100452 -0.0444189 -0.00210746 0.0112313 -0.0369332 -0.00524228 0.00988171 
-0.0372536 -0.000407133 0.00980721 -0.0369133 -0.00942765 0.00984439 -0.0314698 -0.00612922 0.0101155 
-0.0321708 -0.00184914 0.0105828 -0.0341595 -0.00460444 0.0127007 -0.037981 -0.00288272 0.0129745 
-0.0344503 -0.00859685 0.0129295 -0.0349376 -0.000264807 0.0131928 -0.029698 -0.00971569 0.00979528 
-0.0274239 -0.00633779 0.0101345 -0.0207544 -0.00777979 0.0102166 -0.0281843 -0.00237864 0.0101565 
-0.0228991 -0.0043262 0.0100779 -0.0241908 -0.00746769 0.0122563 -0.0222987 -0.00119596 0.012698 
-0.025615 -0.00371623 0.0129772 -0.020314 -0.00477934 0.0131569 -0.0106756 -0.00860388 0.00996816 
-0.0194237 -0.00233291 0.0100354 -0.0146512 -0.00920811 0.0101127 -0.0154429 -0.00199072 0.0102607 
-0.0132698 -0.00540947 0.0103486 -0.0172608 -0.00576056 0.0107284 -0.0116415 -0.000711122 0.0102328 
-0.00279499 -0.00957789 0.00994735 -0.00595797 -0.00636575 0.0100308 -0.0038562 -0.00295803 0.0102367 
-0.00772818 -0.00176364 0.0102634 -0.000790748 -0.00550938 0.0105493 -0.00946727 -0.00513695 0.0115883 
-0.00345661 -0.00711177 0.0130645 -0.00125023 -0.00242758 0.0132282 -0.00470263 -0.000389988 0.0131883 
0.00317689 -0.00554564 0.0100091 0.00697801 -0.00688061 0.0100104 0.00117374 -0.00901448 0.0100769 
0.00562919 -0.00034082 0.010382 0.00135323 -0.00196838 0.0101865 0.00935934 -0.00181595 0.0120892 
0.00980861 -0.00974906 0.00993686 0.00587137 -0.00386909 0.0124545 0.00421844 -0.0083411 0.012709 
0.0133698 -0.00791174 0.00984844 0.0105168 -0.00499591 0.00950065 0.0173527 -0.00760203 0.010093 
0.014573 -0.00407981 0.00993133 0.0185668 -0.0037429 0.0100527 0.0126968 -0.000411438 0.0102899 
0.0165668 -0.000514149 0.0113138 0.0248741 -0.00859603 0.00999704 0.0285614 -0.000346743 0.0100166 
0.0279915 -0.00537674 0.0100427 0.0213559 -0.00661755 0.0101476 0.0251987 -0.00251233 0.0100642 
0.0287524 -0.00924445 0.01081 0.0214952 -0.00349018 0.0127724 0.0249792 -0.0055467 0.0126762 
0.027837 -0.0027802 0.0131198 0.0369208 -0.00831931 0.00989805 0.0317644 -0.00677162 0.00989565 
0.0349182 -0.00427307 0.00986795 0.0340547 -0.000228777 0.0100373 0.0380154 -0.0016894 0.0097985 
0.0313433 -0.00299123 0.0111556 0.0379369 -0.00528494 0.0123675 0.0344218 -0.00713685 0.0128668 
0.0448337 -0.00240148 0.0102469 0.0411563 -0.00416366 0.0101616 0.0445099 -0.00640126 0.0106764 
0.040921 -0.00817372 0.0107584 -0.0445322 0.00619409 0.0100342 -0.0410737 0.000764308 0.010262 
-0.0448742 0.00219177 0.0101764 -0.0412084 0.00451074 0.0117474 -0.0413353 0.00837895 0.0128299 
-0.0387399 0.00735355 0.00976076 -0.037322 0.00360125 0.00990097 -0.0352741 0.00946821 0.0100357 
-0.0337694 0.00176347 0.0099343 -0.0336645 0.00580526 0.00999883 -0.0313258 0.00901919 0.0112043 
-0.0297629 0.00134547 0.00996352 -0.0234353 0.00900762 0.0100983 -0.0274792 0.00865788 0.0100585 
-0.0211567 0.0054406 0.0101717 -0.0251656 0.0053533 0.0100277 -0.0209289 0.00145315 0.00992593 
-0.0251867 0.000319231 0.0103451 -0.0297196 0.00535595 0.0105192 -0.0272054 0.00297836 0.0125771 
-0.0232348 0.00268377 0.0129715 -0.017175 0.00580354 0.00989514 -0.0147373 0.00193637 0.00993769 
-0.01944 0.0092645 0.010094 -0.0100595 0.00305125 0.0100725 -0.0131789 0.00562745 0.0102297 
-0.0126113 0.00958741 0.0101848 -0.0177512 0.000585425 0.0122748 -0.0152943 0.00797205 0.0126954 
-0.00553412 0.00603589 0.00993645 -0.00132309 0.00469325 0.0100297 -0.00620201 0.00194033 0.00996368 
-0.000212317 0.00891855 0.0100019 -0.00226649 0.000717165 0.0101684 -0.00941657 0.00700777 0.0102314 
[...]
POINT_DATA 5999
FIELD FieldData 7
id 1 5999 int
544 514 482 144 333 828 27 856 1092 
1037 589 877 307 901 495 1045 19 924 
862 520 97 120 598 1044 379 135 145 
107 52 228 551 450 53 263 1095 426 
158 257 242 336 408 706 476 1008 501 
773 138 203 246 230 992 41 404 364 
777 567 109 245 247 760 608 690 46 
397 154 966 1316 274 440 557 512 115 
434 378 1019 623 874 816 344 33 63 
294 669 946 724 502 302 1476 11 546 
704 424 1015 199 1166 174 504 952 469 
365 684 776 371 276 114 8 149 758 
918 1042 310 614 876 54 1036 1176 844 
112 516 509 401 210 267 861 136 413 
1057 348 57 1107 437 787 349 659 223 
803 360 650 281 131 550 68 1537 664 
374 84 311 345 487 674 429 175 42 
99 113 296 815 190 951 616 168 205 
66 293 1126 1338 38 980 1144 317 1494 
875 1083 353 1185 396 117 39 848 1077 
256 630 1288 291 461 350 528 231 1035 
962 788 523 123 86 142 423 372 1214 
1262 853 1503 134 417 686 802 1584 1123 
399 615 163 783 126 1096 20 72 1359 
1772 1333 731 447 485 906 354 1071 1269 
221 821 58 612 584 1101 545 1130 727 
903 1105 931 1460 342 445 441 543 500 
427 1481 489 1486 627 1027 710 1142 305 
967 900 322 784 1692 855 537 393 410 
73 935 421 1161 896 389 48 1032 108 
458 241 914 418 367 1151 604 1014 673 
292 105 1516 12 224 755 857 766 813 
558 781 1351 775 16 5 463 1128 23 
971 330 607 352 1254 998 229 77 594 
462 667 682 1512 206 78 563 1277 346 
845 170 763 1106 886 273 193 370 498 
375 560 734 384 127 517 1478 81 432 
286 934 956 171 128 473 320 712 377 
564 380 88 1197 1073 155 313 1613 341 
295 182 847 745 1066 586 954 742 949 
387 1024 1072 657 535 915 214 303 836 
592 165 244 394 298 331 1193 572 436 
519 287 868 334 691 1237 301 721 640 
631 191 996 64 260 326 216 974 1150 
541 98 671 79 579 225 80 646 283 
3 1040 266 356 75 337 576 910 480 
159 944 524 522 103 1124 347 316 361 
197 656 51 573 21 212 104 288 1016 
1097 923 412 600 736 1220 146 660 91 
556 839 715 425 880 1745 160 121 290 
76 521 926 152 1248 332 628 28 569 
406 386 599 272 177 478 748 1611 235 
929 312 1103 1368 428 226 116 227 799 
928 1655 1084 220 705 1899 582 255 851 
513 304 96 388 1725 339 1134 118 629 
409 133 1703 204 1484 181 259 299 642 
264 973 140 15 1117 636 45 6 529 
173 289 769 213 916 507 433 327 129 
475 1025 132 141 899 497 207 904 111 
395 530 701 422 217 1489 268 829 343 
215 477 124 474 532 162 909 735 1790 
780 161 414 454 625 218 866 40 1461 
328 882 2618 1 913 602 18 455 250 
122 885 1323 67 995 1765 178 26 1386 
601 1119 430 1350 531 864 2254 1213 1433 
411 505 1171 200 100 680 1270 254 1098 
390 282 1477 997 1392 969 1957 2073 797 
1194 1564 153 271 407 1328 1575 1828 1164 
1620 647 1995 1861 795 566 1326 2364 1079 
2621 1506 2464 194 515 464 209 10 1286 
981 1650 1834 452 1289 1299 1589 1846 65 
1774 1690 1602 1882 1705 219 2157 1649 2527 
185 83 596 400 233 1446 665 892 2165 
772 1232 2065 883 1498 1878 1999 1718 2031 
1175 907 338 1033 391 1632 1067 696 1580 
707 1471 1677 1411 1688 852 1614 605 968 
47 1358 1387 1792 1284 1434 1608 147 449 
1543 1850 1421 1169 1251 1365 1519 1981 340 
1485 1756 1678 285 675 764 1280 443 580 
750 1188 323 1013 2027 889 662 1341 1187 
1186 2416 687 1952 713 94 1005 488 198 
1162 183 548 1563 493 574 1416 1017 279 
1275 1058 1785 854 1949 106 1733 2143 402 
119 49 1043 953 1639 1463 1836 2042 744 
2067 1026 2300 2781 2347 2145 1448 1633 1470 
2185 1028 1418 711 1640 55 818 1331 1242 
1023 1605 1647 1059 905 1843 1734 1768 1538 
2150 1943 1696 1437 1676 633 1285 1179 1754 
534 1789 2285 1855 1159 2292 1283 1210 1944 
2092 1883 2191 1908 970 1654 2470 641 937 
102 392 2221 1697 943 1862 1074 1609 2109 
1274 938 1550 1170 1691 2345 1456 1483 1919 
858 1412 2136 442 1217 1191 1491 785 69 
1468 872 2296 1182 1258 2161 248 1659 1780 
540 382 22 779 1114 90 689 643 617 
652 471 800 1652 902 1047 1962 1224 2053 
1403 249 921 2328 1178 1829 506 2776 1093 
1327 703 525 741 639 824 1113 578 1389 
1064 1398 961 319 1592 1265 1680 2228 2743 
1968 1184 2004 1858 125 243 533 1325 1407 
977 963 1683 2129 1345 1844 1561 655 1354 
1955 2066 1848 2557 2779 2430 668 1208 1623 
697 1722 1055 7 1672 9 832 2047 1749 
1687 1594 2209 2113 1562 2304 2714 2006 201 
964 808 403 747 990 986 179 1525 888 
1201 1597 1555 2490 1587 2093 1595 1814 2728 
1881 807 718 1152 1482 994 1404 1174 2128 
1012 1684 1644 1572 1240 1753 1701 1076 1061 
211 1203 1070 833 622 1177 1497 1710 726 
270 1377 1960 1913 1628 1852 1413 1183 1979 
1272 2091 1763 1141 2594 819 859 635 1508 
1931 1330 240 1383 1369 1406 987 1199 2312 
1223 611 1256 1552 806 2277 2301 2652 1775 
43 679 927 658 1319 1132 1243 834 518 
2278 1767 1347 1308 1417 1811 1685 1958 1642 
2426 1663 314 590 1180 739 754 1276 252 
805 1293 2565 1355 692 139 1372 1222 749 
1324 1948 985 653 2205 1397 1893 894 2366 
1730 562 1212 1961 898 1118 222 1679 835 
1385 1329 1860 1250 1505 1835 1215 1759 1776 
92 1233 1830 654 826 202 767 25 613 
1196 941 318 1500 978 2014 2194 2348 863 
1318 1268 2548 881 884 1443 496 369 619 
1231 1235 1310 1429 2307 1548 1472 694 2299 
1317 581 1109 1127 1643 1363 1133 278 1295 
1618 508 376 1622 1099 1822 1081 1536 1374 
661 351 1380 1513 1315 1155 2478 1586 1140 
1509 831 869 2104 1003 575 1839 491 1356 
1091 1263 2021 1479 1340 2297 1588 1888 1454 
1216 1088 1569 695 830 1728 1876 1428 1366 
1030 1125 1964 479 1529 483 2038 1425 1809 
1634 1049 865 1838 1206 1694 1202 1674 1281 
1444 1845 1181 893 1630 1967 812 1279 1492 
714 1348 2159 770 2240 1493 1120 1100 1145 
1060 1886 1982 1399 1702 1925 2346 959 1332 
1921 1573 2210 2395 1629 753 933 842 137 
751 1945 1914 1041 1517 1577 1935 1137 536 
172 693 796 870 1011 1557 1006 879 2043 
1624 2451 2036 1104 1009 756 24 1334 511 
1228 1038 1221 873 1353 1122 1719 2200 1002 
1940 2037 2052 860 2852 610 890 1111 1744 
982 983 110 1225 1842 1357 585 789 2453 
2024 2537 2232 1502 2441 702 499 920 1567 
988 1131 1522 1928 1362 2362 794 1158 2001 
2139 1804 1435 1252 1496 2379 2258 2154 1992 
871 677 280 1871 2018 1907 843 237 947 
29 743 1975 1615 1455 1361 1821 2425 2716 
2546 2140 945 1600 526 840 1300 1395 300 
355 1226 878 942 1480 728 838 717 1260 
1720 1787 1342 1541 2335 2589 2458 1599 1168 
1238 309 792 587 1320 1148 570 381 1305 
606 761 1518 1895 1750 1593 1578 1521 1466 
1970 678 297 719 189 362 1054 188 1089 
431 148 565 1707 555 1381 814 1046 1129 
549 1501 1304 975 527 730 368 1796 1010 
1487 1139 1831 723 993 1445 253 31 1306 
1031 1063 2264 2074 2400 1244 1911 1426 984 
1778 503 1112 1977 1812 1391 1291 187 757 
2072 1080 1149 1297 1450 1301 1673 2651 2269 
1524 1294 101 716 919 1439 1576 922 632 
2248 232 817 1370 366 2237 2319 2176 1110 
265 239 1018 1090 1523 867 167 1078 1052 
2279 2242 1312 1553 1499 1675 2260 1352 1910 
1007 700 2839 2414 827 32 419 588 778 
1344 1255 1884 1936 1826 1870 1556 1714 2398 
1337 2034 1997 1419 1998 672 2367 70 1086 
1490 1335 1430 1394 2114 737 1972 1879 733 
459 1367 1462 1339 2012 2133 1574 1218 36 
1020 746 1153 453 676 420 911 2452 1540 
1546 1721 1154 1664 82 1314 1766 2108 1898 
2658 180 1311 930 484 979 809 87 315 
164 568 1535 822 1743 1402 553 932 1302 
1241 1415 1229 186 955 130 648 958 609 
1976 1021 1682 192 940 708 2115 2148 1469 
1082 1115 2156 1190 1880 1075 448 626 765 
238 1321 554 1069 405 74 150 887 1236 
358 1230 2375 810 1207 539 1511 1559 1583 
50 1271 1400 1384 481 1056 1963 1441 2 
849 1135 13 740 60 1566 1532 620 1984 
1247 1029 1379 1849 2152 1827 2598 688 891 
1022 1343 841 1604 1459 435 559 1560 2010 
2225 2446 2318 2134 2750 2660 2223 1665 93 
472 357 771 1346 925 439 1349 1617 790 
1449 1726 2406 1257 71 1048 1373 1551 2119 
2259 258 1442 1004 62 603 1819 1001 1897 
774 644 325 1102 470 2910 948 1971 2101 
2155 2022 791 957 1246 683 793 618 1309 
1156 284 1625 681 1510 1669 1934 2203 2039 
1841 634 1085 35 277 251 725 1436 373 
685 846 698 1859 416 2158 456 2090 960 
2272 444 2040 1698 1375 1712 709 976 1227 
638 738 1670 820 583 547 1695 1582 752 
1424 2035 1467 2219 1163 637 1565 1393 2410 
2000 329 95 571 1205 991 850 561 34 
85 804 1273 1267 363 1423 1261 17 2198 
972 1121 494 151 1388 1959 1053 1136 306 
61 383 1165 1296 1875 169 1873 2460 1764 
468 1867 1116 2629 2243 2032 2064 2956 275 
798 14 89 1287 196 1534 624 1172 2055 
2049 2764 308 1755 2030 1760 1923 1932 2023 
1612 1298 1571 1641 2007 1160 1868 1167 1410 
1475 1303 4 2051 2127 2284 1795 2403 597 
2211 166 1068 811 591 649 184 538 2146 
1000 486 261 1631 1514 1195 917 1610 2474 
1401 1645 1758 2813 438 30 321 666 324 
1504 1108 1542 645 490 759 1651 1591 577 
1724 176 1627 651 1453 1050 823 195 415 
143 59 157 965 1249 801 466 1336 359 
1713 989 1708 2110 1422 1282 786 1752 1307 
1554 234 999 1173 1147 593 1495 1266 1530 
908 1290 552 729 510 56 269 762 156 
670 1364 1239 1062 451 621 1209 542 1816 
1390 1980 2081 2384 1922 1657 2327 1211 2569 
446 1189 768 1570 1143 2514 335 1579 1856 
2690 1717 2680 2122 2843 2554 2775 2518 3284 
1245 2196 2641 2046 2257 3086 2100 3465 2999 
2528 2911 2938 3002 2289 1638 1259 1598 3160 
2845 3808 3155 3564 2713 3025 3142 2633 1906 
2720 2686 1996 1777 1278 2349 2508 2918 2195 
1869 699 782 2247 2303 1581 2847 2102 2250 
2512 2977 492 3540 2588 2801 1547 2275 3348 
2245 1603 2987 3013 1783 2421 2417 1661 2208 
3098 2862 3529 2341 2851 2963 2612 2121 2106 
2526 1681 2084 1590 1626 2098 2840 2433 3413 
2968 3636 2958 2435 4100 3707 457 1420 1488 
2003 2825 1146 2383 2351 1800 2959 1414 2833 
2975 2761 2506 3033 3099 3256 2487 3315 1533 
2472 2455 2187 2684 2624 3174 2418 3271 2378 
2448 3207 3060 3095 3378 3008 2377 2075 2355 
2932 2517 2606 3464 2545 3215 3734 2871 3187 
3650 2855 4051 2499 2295 2735 2332 2809 2044 
1937 465 2611 2560 2689 2538 2675 1802 2806 
2443 1865 2669 2533 2568 2877 2339 1771 2391 
2646 1382 2314 2493 2601 1991 2041 2135 1458 
3193 2483 2645 2239 2330 2556 3469 3125 1779 
2869 2008 2746 2613 1746 3094 3425 3411 3391 
3851 3111 2427 2305 2009 2812 1253 2291 1619 
2767 3027 2396 3297 3303 2516 3122 2795 3492 
2276 3082 2532 2510 2661 1983 1376 1727 2486 
2368 2183 2498 3286 3539 2505 3360 1953 1686 
2511 2015 1978 2468 2522 2765 2111 2953 3079 
2048 1866 2402 3249 2824 3553 2808 2739 2673 
1699 2408 1693 2562 1989 2964 1716 3175 2338 
2423 2515 2415 2280 3015 2717 2848 3721 3699 
2659 1954 2013 37 2329 2173 2181 2298 3024 
2943 3124 1737 2105 2450 2025 1817 1711 3828 
2271 1378 2429 2859 2639 2610 3238 2667 1607 
2061 2886 1887 1065 1773 2491 2385 1700 2359 
2576 3252 2389 3451 2829 2805 2268 3799 2226 
2057 2177 2142 2282 722 3156 2151 2816 2668 
2363 2708 3375 2387 3247 2880 2858 3614 2983 
2231 3345 1662 1794 3173 2794 2399 2103 2674 
2457 3072 3338 1781 2581 3005 2477 1408 2190 
1636 1988 2916 2182 2944 2870 3040 1942 3180 
2694 1966 939 1671 1668 2600 1264 2804 2333 
2120 1889 2736 2540 3772 2050 1405 2666 2549 
1824 2671 2409 1840 3158 2846 2687 2520 2432 
3211 3690 2534 2519 3208 2461 3090 1087 2317 
2179 2440 2071 2745 2420 1965 2005 1987 1219 
1198 2370 2709 2322 2361 1531 3167 1905 1863 
1658 2116 2579 2083 3063 2202 3185 1805 2665 
1539 1924 2935 3339 2939 1896 3445 3368 1667 
2774 2163 1969 2141 2688 2773 3258 2206 2373 
2082 2482 3029 1890 3250 2787 3620 3548 2883 
1902 2796 1793 2712 1723 2861 2875 1807 3455 
2251 2772 2444 3039 1916 3892 3150 1806 1396 
1917 1993 1452 1736 1200 1815 1994 1877 2678 
2989 2407 2922 3890 2897 2915 1507 2172 2577 
1704 2392 1568 2521 1051 1558 2786 2950 2207 
3453 2741 2849 2704 2263 1927 2531 1637 2112 
2130 2326 2595 2737 2573 2820 3012 2676 2863 
3214 2323 2536 2309 2481 2449 2607 2215 2357 
2603 1786 2978 1545 3003 3189 2059 2405 2204 
1985 2125 3129 1094 1447 2256 1833 1920 2118 
2193 2192 2885 3569 2614 3336 2086 1832 2584 
1660 1732 1689 1941 2699 1900 2220 2798 3257 
1901 2749 2343 2835 1813 2466 1653 1803 2422 
2770 2940 2814 2881 3363 3316 1616 2290 3499 
1735 1946 3149 3506 3278 3633 3757 2951 1769 
1440 2488 3387 1885 1762 1990 2068 2473 1431 
2827 1938 2677 3246 2572 3121 2899 2169 2941 
2344 2653 2912 1808 2762 2026 2079 2077 2439 
2424 2752 2647 2070 2222 2504 2325 2306 1909 
1729 2356 1825 1585 1739 2564 2828 2632 3574 
2476 3112 3470 2733 1292 2830 2094 2630 2132 
2217 2969 2657 2164 2844 3071 3179 3308 2465 
2393 2738 2570 2552 2642 1432 2124 2095 2500 
1646 1851 2649 1820 1039 2887 2404 2865 1930 
2724 2854 2313 2337 3351 1857 2990 1360 1648 
1549 2636 2503 1798 1956 2442 3009 2725 2218 
3196 2249 2382 2620 3485 2524 2931 1515 1933 
2459 1738 2638 1621 1915 2682 2316 3054 2802 
3273 3439 2797 2919 3486 1528 1761 1810 1797 
2994 2253 3312 2431 1874 2445 2462 2017 2985 
2934 2011 2615 3505 2763 3006 2604 3085 3390 
2374 2785 3014 3429 1526 2529 1656 2799 3053 
2701 2592 1706 2342 1409 2587 3050 2789 2413 
3700 2890 2471 3213 3489 3448 3093 3480 2123 
2386 2178 3047 2902 2923 2352 2214 2274 1731 
2436 1947 2480 2273 3373 3337 2697 3087 2803 
2238 1740 2759 2199 1465 1892 1204 2543 2244 
1747 950 2167 2287 2447 1451 3105 1799 2213 
2201 2016 2961 2608 2162 2908 2535 3403 4017 
3123 2324 1473 2888 2702 2336 2230 2029 1894 
2492 3398 2137 3463 2753 1918 2555 1854 2609 
2723 2884 1974 2340 2175 2924 2456 2321 2751 
236 1872 2288 2625 3277 3304 2045 2730 3756 
3494 2233 2655 2925 1666 1457 2076 2186 1527 
1709 2281 2768 2261 2982 2654 3251 2153 2933 
1847 3432 2679 2437 1138 2020 2019 2700 2227 
2962 2705 1234 1192 2212 1427 1635 2898 1742 
2495 2744 3138 3070 2734 2605 2681 3178 3785 
1748 2622 2265 2626 1818 2174 2331 2602 3307 
2376 2578 3234 2315 3980 2097 2715 2672 3170 
4228 3546 3318 2731 2800 2837 2283 2160 3031 
1853 2900 1939 2810 2547 3232 2691 3280 3712 
2841 2525 2469 3733 3190 2635 3803 3017 1801 
1596 2310 2397 1864 3045 2502 2729 2561 3287 
2184 3225 3274 2496 2062 3893 3745 3559 2619 
2952 2917 3065 2559 3010 2583 1912 2089 2063 
2494 2078 2727 2644 3153 3301 3219 3358 3436 
3330 3369 3267 3836 2711 2590 2580 2936 2822 
2087 3202 2703 2390 2882 2949 2311 2485 2874 
3091 2054 1322 897 1601 2784 2360 2957 3371 
2627 3270 3145 2748 3116 2591 3818 2475 3367 
3248 3736 1757 460 2138 1544 2188 2903 2381 
2988 2401 2080 3292 1784 2663 3212 2831 3397 
2892 2388 3119 3704 2380 2766 2170 2876 1715 
1474 2394 262 2670 2948 3372 2706 2631 2171 
2945 2107 3747 2582 3114 3034 2236 2434 2234 
1791 1788 2513 2033 3400 2872 2942 2270 2593 
3460 2563 2294 3293 3081 3939 3937 3059 3357 
2099 2197 2180 2411 2575 2586 2350 3201 3120 
3171 3266 3073 1903 1926 2992 1034 3004 2758 
3442 3752 3684 3646 1313 1891 2497 2302 1770 
2229 2369 2650 2692 3561 3341 2255 3435 3444 
2085 1520 2811 2793 3467 825 2147 2523 2235 
2412 2778 2585 2909 3406 2144 2246 3401 2637 
3268 3396 2479 3115 2060 2662 2372 2126 2002 
2501 3172 3738 2266 1951 2542 1973 1823 2856 
1837 2937 3176 2574 2530 3591 3783 3410 3320 
3162 2970 3487 3089 3538 3525 2056 2131 2868 
3630 2058 3255 2866 2771 3509 3580 2069 3106 
2685 2879 3493 2742 3288 2836 3804 4039 3118 
3289 3955 3713 3722 3446 2718 3279 3834 4166 
3282 3792 4464 3703 4216 2507 3056 3958 3961 
4734 3331 3902 4367 3235 2623 3845 3639 4200 
2864 4060 4497 4618 4279 3972 3607 4124 3404 
3862 3758 4098 3319 2262 3677 2096 3471 3822 
2783 2891 4129 3790 3077 2634 3032 3440 3778 
3276 3058 3718 3654 3148 3532 2308 3362 3844 
3334 3194 3405 3302 3723 3632 3195 4149 3985 
3727 3547 3977 3670 3147 4257 4139 3682 4002 
3361 3472 2371 3433 3763 3831 3913 4326 4388 
2955 3764 4310 3349 2930 3761 3165 4248 3766 
3152 3967 3379 4066 3618 3735 4416 4642 4918 
4270 4738 4072 4390 5772 2747 2467 2616 3768 
3350 4439 3623 4211 3894 3800 3675 2967 3711 
4375 3083 5535 4415 3311 2553 4661 2596 1950 
3537 3500 3048 3437 3578 3811 3708 4086 3868 
3883 3717 4456 4536 4451 4395 4891 2597 3313 
2740 3067 3847 2973 3478 4170 4188 2189 4460 
2929 3037 4255 2834 4647 4389 3833 3450 4637 
2946 4813 3715 4169 4371 4664 4463 4420 5082 
2966 3920 3325 2904 3662 4000 3052 3449 3512 
3523 4480 3993 3264 4632 4284 3221 3346 2438 
2821 3186 2628 4056 2721 2832 3676 3983 3516 
4007 4946 4521 4775 4361 4705 4136 4742 3078 
2088 3522 3599 2842 3041 2907 3188 4286 3103 
3527 3794 3907 2980 4093 4797 3771 4648 4150 
3572 3028 2365 3769 3226 3751 4038 4317 3353 
3714 3898 3806 3347 4198 3412 5425 3990 4161 
4003 4202 4290 4519 2648 2216 3199 2896 3365 
3534 3370 3096 3298 4559 2976 2777 4068 4012 
3674 2656 3789 2867 3611 3774 4444 3528 4240 
4089 3477 3743 3615 3476 3826 3753 3482 4065 
3556 3409 3754 3642 4001 4646 3309 3000 3169 
3260 3594 3813 3462 3415 3317 3518 3231 4130 
4403 3126 2168 2696 3388 3651 2354 3136 3931 
3166 4504 3101 3634 3468 3242 3459 3963 4175 
3956 2693 2838 2788 2984 2857 2927 3020 3829 
4259 3624 4019 3344 3681 3773 4700 3376 4205 
3108 3821 3306 3679 3143 3183 3457 3848 3402 
3974 4134 3640 3672 3987 3323 4466 4328 3418 
3944 3294 2895 3616 3979 3244 3695 2698 3730 
3259 4525 4291 3253 4387 3951 4127 3988 4440 
3897 3817 3281 3924 2241 2732 3542 3508 2954 
1741 3590 3825 3504 4232 2726 4253 3705 4120 
3861 3011 4600 4374 3853 3849 2757 3557 4113 
2860 2769 3392 3706 4545 3092 3377 3474 4242 
3526 4359 3814 2286 3227 4281 2558 3655 3788 
4575 3881 4075 2544 3921 4699 3571 4590 2664 
4833 4806 4448 4485 3860 2995 3001 3100 3692 
3427 3649 4306 4133 4046 4597 4754 3886 3936 
4477 4970 3140 4560 3466 3157 3746 4154 3222 
4103 3422 3973 3819 4084 4979 4340 4263 3035 
3767 2894 3563 2993 3236 3237 3399 3926 3191 
4031 4099 3856 3652 4189 4184 3275 4393 2484 
2683 3748 2819 3952 3927 4125 2823 4688 4872 
3327 3326 2567 2541 3941 3545 2998 2617 2914 
3229 3638 2707 3685 3644 3204 4262 3598 3139 
3698 4142 3055 2986 3066 2293 3163 3109 3428 
3107 3272 3030 3680 3837 3424 4506 4753 3586 
4061 3127 4109 3097 3075 2947 2571 3925 3810 
4237 3241 4570 4295 3550 3104 4731 3786 4937 
4870 2539 3333 3181 3498 3393 4454 3408 3484 
3356 4112 3622 3744 4105 3592 3628 3473 4095 
3858 2780 3935 2850 3762 4335 3859 3588 3200 
4245 2419 3981 3877 3568 4233 4069 3324 4394 
4207 4465 4617 5179 5247 4443 4958 5076 3694 
3023 3864 3061 4402 4429 3888 4349 3452 3530 
3596 3007 4309 3230 2928 3243 3558 3283 3044 
4434 4528 2722 3665 3855 4128 3210 3970 4438 
4156 3458 3824 4484 3414 3016 3084 2358 2756 
3663 4217 2760 3946 4114 3332 3220 4246 3576 
2991 2971 3161 2599 3796 3022 2965 3197 2807 
3205 4024 3609 3867 3502 3443 4386 4008 3659 
3134 3838 3989 2320 2815 3617 2920 3501 4020 
3619 3613 3128 3520 4468 3689 3863 4239 2997 
4594 3602 3948 3135 3668 2817 2926 2893 2334 
3601 3544 3130 3198 4176 2974 3184 3144 3830 
4772 4083 2972 3305 3164 4365 3673 3117 4531 
3018 4315 4899 3608 3687 3380 4235 4327 2755 
3088 4344 4298 4452 3776 3891 3666 3431 3582 
3795 4053 4573 3872 3842 2906 3177 3560 3366 
3584 3874 3552 2643 4081 3686 4203 3479 3850 
4062 3750 3513 4369 3915 4331 3905 3300 4137 
3702 3239 3775 3359 2960 3110 3575 4479 4018 
4614 4347 3447 3996 4183 4747 3595 4555 3827 
4077 4193 3945 3991 3950 3395 3816 4472 3749 
4311 3805 4206 4811 3631 3610 4352 4338 5195 
4685 4116 4097 2826 3779 3719 4736 3159 3600 
4102 4673 4158 3589 3960 4249 3871 3419 3835 
2792 3777 2428 3643 3653 3720 3245 3541 3383 
3593 3637 4364 3739 4231 4080 4639 4990 3295 
3491 2463 4187 4163 3233 3043 3343 4090 3417 
3329 3314 1904 3299 3975 2889 4425 3262 3661 
3019 4486 4201 4256 4412 3488 3168 4565 3741 
3074 3760 4165 3394 2353 3832 3533 4288 3420 
4320 3514 3656 4204 3605 3218 3536 4033 3966 
3151 3182 3146 2224 3904 2979 2754 3441 3880 
3900 2853 3660 4058 4215 3554 3223 3042 3133 
3999 4146 3261 4487 4199 4561 4307 3737 3732 
4252 4250 4174 4219 4591 4258 3965 3865 3846 
3731 3426 3740 5123 3645 3716 3224 4108 3296 
3968 3627 3930 3793 3629 4152 3051 3876 2981 
4047 4598 3693 4341 4999 5224 5294 4727 3626 
3036 3407 2550 3878 3962 4157 4551 4860 4823 
4190 2551 3354 4041 3969 3597 3917 3697 3291 
3782 3064 4131 2921 4073 4042 3585 4178 3216 
3929 4078 2719 3688 4234 4182 3269 3901 3531 
4055 3916 4192 3587 3021 3852 4589 4377 3678 
4513 4140 3290 3352 3519 3787 3389 3141 3515 
2901 3382 3780 3131 3461 4238 3570 3954 3068 
2913 3603 3671 4625 4272 3507 3495 3454 3154 
3421 3132 3691 4391 3802 3658 3384 4273 3062 
4717 5101 3798 2791 3562 3069 3521 4505 3321 