# vtk DataFile Version 4.2
Generated by LIGGGHTS
ASCII
DATASET POLYDATA
POINTS 5999 float
-0.017942 -0.0412568 0.0121529 -0.0141844 -0.042615 0.0124307 -0.0101829 -0.0425339 0.0121274 
-0.00668143 -0.0445027 0.0121077 -0.00277162 -0.0436238 0.0122882 -0.00646695 -0.0405082 0.0123145 
-0.00277744 -0.0400109 0.014075 0.0010045 -0.0449689 0.0120851 0.00867624 -0.044126 0.0120945 
0.00472725 -0.0435214 0.0122949 0.00214937 -0.0400901 0.0123148 0.0103083 -0.0404637 0.0120865 
0.0144279 -0.0422909 0.0121822 -0.0307041 -0.0328988 0.0123988 -0.0251548 -0.033055 0.0120662 
-0.0249916 -0.0374016 0.0121442 -0.0217155 -0.0309084 0.0121626 -0.0217107 -0.0351146 0.0120687 
-0.0215515 -0.0394622 0.01216 -0.0278885 -0.0353028 0.0139337 -0.014724 -0.0312162 0.0122395 
-0.0147517 -0.0352458 0.0122622 -0.0182128 -0.0372557 0.012156 -0.0182141 -0.0331733 0.0122585 
-0.0120317 -0.0389723 0.0122921 -0.0106505 -0.0316376 0.0122268 -0.0085073 -0.0370533 0.0122862 
-0.00643844 -0.0307792 0.0123268 -0.00245358 -0.0301859 0.0122135 -0.000842581 -0.0369338 0.01235 
-0.00440849 -0.0342344 0.0122815 0.00633727 -0.0398592 0.0122371 0.00717989 -0.0351775 0.012056 
0.00835621 -0.0313534 0.0121438 0.00315235 -0.0360937 0.0120631 0.00436271 -0.0322768 0.0122706 
0.000302936 -0.0331033 0.0122066 0.0122714 -0.0304964 0.0121392 0.017679 -0.0393494 0.0119813 
0.016198 -0.0312676 0.0120157 0.0110981 -0.0343261 0.0120941 0.0175984 -0.0353203 0.012095 
0.0139915 -0.0371487 0.0120632 0.0207584 -0.0308118 0.0119351 0.0247181 -0.0375603 0.0122685 
0.0293965 -0.0339903 0.0122303 0.021597 -0.0348991 0.0120924 0.0253236 -0.0334021 0.0124305 
0.0278714 -0.0302547 0.0122817 0.0214007 -0.0395616 0.0134752 0.0322794 -0.0313292 0.0130387 
-0.0400974 -0.0204038 0.0121094 -0.033227 -0.0297882 0.0122836 -0.0360425 -0.0269293 0.0122119 
-0.0323881 -0.0216234 0.0123764 -0.0371942 -0.0231166 0.0125833 -0.0301483 -0.0251931 0.0122277 
-0.0217647 -0.0262092 0.0121069 -0.0223364 -0.0222433 0.0122571 -0.0255449 -0.0246478 0.0123552 
-0.0290427 -0.0292078 0.0121155 -0.028338 -0.0213745 0.0121233 -0.0249974 -0.0286104 0.0122541 
-0.01813 -0.0291147 0.0121348 -0.0178798 -0.0251189 0.0122478 -0.0185361 -0.0209481 0.0123103 
-0.0138707 -0.0252421 0.0123933 -0.0145559 -0.0212589 0.0125566 -0.0101491 -0.0237992 0.0121236 
-0.0125291 -0.0285405 0.0142535 -0.00695778 -0.0209391 0.0121856 -0.00890499 -0.027631 0.0121966 
-0.00399557 -0.0237045 0.0122073 -0.000166495 -0.0224991 0.0122904 -0.00107606 -0.026428 0.0134156 
-0.00501076 -0.0272876 0.0136863 0.00931248 -0.0274223 0.0121972 0.00655235 -0.0245252 0.0120826 
0.00373677 -0.0216112 0.0121185 0.00150782 -0.0292896 0.0122498 0.00542245 -0.0283807 0.0121706 
0.00266926 -0.0254599 0.0123962 0.0169219 -0.027327 0.0120585 0.0137274 -0.0247164 0.0121822 
0.0171567 -0.0226435 0.0121604 0.0138894 -0.0203066 0.0123159 0.0101125 -0.0237068 0.0137174 
0.0203214 -0.0250932 0.0121961 0.023388 -0.0276941 0.0119146 0.0241131 -0.0237479 0.0120504 
0.0271235 -0.0210839 0.0122259 0.0269798 -0.0263675 0.0131117 0.0300641 -0.0237345 0.0128361 
0.0376245 -0.0245723 0.0120993 0.0310993 -0.0275725 0.0122854 0.0339408 -0.0229323 0.0122239 
0.0351756 -0.0278701 0.0125088 0.0367609 -0.0200854 0.0122064 -0.0436216 -0.010915 0.0120099 
-0.0424523 -0.0148165 0.0126775 -0.0387226 -0.0166472 0.0121751 -0.0314201 -0.0141388 0.0122262 
-0.033661 -0.0107441 0.0121778 -0.0357786 -0.0193725 0.0123262 -0.0393374 -0.0123309 0.0122882 
-0.0305718 -0.0180548 0.0122778 -0.0354148 -0.01438 0.0123083 -0.028028 -0.0120142 0.0121143 
-0.0234499 -0.0144966 0.0126198 -0.0249598 -0.0192088 0.0122222 -0.0272005 -0.0159176 0.0126138 
-0.0211992 -0.018026 0.0129172 -0.0214864 -0.0113879 0.0141981 -0.0124837 -0.0161979 0.0122965 
-0.0120142 -0.0118268 0.0123064 -0.0162326 -0.0176097 0.0125066 -0.0180917 -0.0106451 0.0122076 
-0.0108015 -0.0198463 0.0126112 -0.0194491 -0.0144225 0.0124701 -0.0155358 -0.0136689 0.0128604 
-0.0046684 -0.0132484 0.0121914 -0.00861153 -0.0139557 0.0122545 -0.00722691 -0.0101472 0.0122521 
-0.00157263 -0.0161015 0.0123637 -0.00312151 -0.01979 0.0123141 -0.00600468 -0.0170019 0.0125697 
0.00176412 -0.013133 0.0121899 0.00201353 -0.0179985 0.0121011 0.00572155 -0.0110142 0.0126618 
0.0060323 -0.0182164 0.0121545 0.00867353 -0.0149557 0.0122591 0.00502068 -0.014755 0.0139036 
0.00986558 -0.0198344 0.0121884 0.0169684 -0.0131196 0.0121829 0.0123198 -0.0166082 0.0123355 
0.0122716 -0.0126045 0.0123 0.0195719 -0.0194352 0.0121689 0.0163061 -0.017121 0.012546 
0.0202007 -0.0154814 0.0122515 0.0236431 -0.0191109 0.0122787 0.0221342 -0.0116929 0.0122208 
0.0276953 -0.0171124 0.0121149 0.027673 -0.0130731 0.0120475 0.0242006 -0.0151426 0.0123241 
0.0309846 -0.0196453 0.0123782 0.0349519 -0.0138003 0.0121217 0.0311538 -0.0150803 0.0122761 
0.0382303 -0.0160564 0.012603 0.0392154 -0.0121874 0.0123243 0.0326856 -0.0106987 0.013423 
0.0342427 -0.0174271 0.0139021 0.0422163 -0.0154794 0.0122867 0.0406648 -0.019222 0.0123213 
0.0435008 -0.0114609 0.0124177 -0.0445749 -0.00122763 0.0130399 -0.0413162 -0.00750535 0.0122286 
-0.0406209 -0.0029993 0.0123213 -0.0446797 -0.00528105 0.0122261 -0.0303724 -0.00846514 0.0121092 
-0.0314053 -0.00459566 0.012083 -0.036981 -0.00476683 0.0121525 -0.0375171 -0.00875929 0.0122389 
-0.0328832 -0.000814423 0.0122945 -0.0246063 -0.00992288 0.0121188 -0.0234942 -0.0034571 0.012237 
-0.0207754 -0.00679151 0.0125553 -0.027409 -0.00547817 0.0122829 -0.0285471 -0.00160436 0.0125043 
-0.0156672 -0.00148475 0.0122919 -0.013094 -0.00455437 0.0122783 -0.01183 -0.000346501 0.0121519 
-0.0106621 -0.00806298 0.0122291 -0.0195916 -0.0023268 0.0123814 -0.0146802 -0.00855831 0.0123088 
-0.0169688 -0.00530481 0.0129392 -0.008009 -0.00153168 0.012212 -0.00254822 -0.009584 0.0123198 
-0.00636643 -0.00623937 0.0122007 -0.0042281 -0.00284977 0.0122567 -0.00106233 -0.00532883 0.0122123 
-0.00954029 -0.00471204 0.0141082 0.00950143 -0.00972077 0.0121852 0.00678242 -0.00672073 0.012053 
0.00147829 -0.00912581 0.012154 0.00299825 -0.00540215 0.0120962 0.00111896 -0.00187214 0.0123473 
0.00528799 -0.00140934 0.0119157 0.00906805 -0.00181842 0.0143144 0.0104407 -0.00490991 0.0121517 
0.0184248 -0.00402252 0.0121757 0.0171119 -0.00780129 0.0122219 0.014407 -0.00416512 0.0122145 
0.0130826 -0.007939 0.0121109 0.0124278 -0.000681459 0.0122875 0.0163509 -0.000720429 0.0130682 
0.0289411 -0.000627777 0.012039 0.0248735 -0.008778 0.0121589 0.0276943 -0.00555992 0.0120137 
0.0215862 -0.00649392 0.0122124 0.0253486 -0.00235108 0.0124851 0.0287662 -0.0093145 0.0129344 
0.0220269 -0.000128818 0.0122727 0.0315868 -0.00661417 0.0120268 0.0352046 -0.00489472 0.0119676 
0.0365624 -0.00875126 0.0119774 0.0380737 -0.00209099 0.0122517 0.0319792 -0.00285737 0.0134027 
0.0346027 -0.000101059 0.0121574 0.0448884 -0.00262939 0.0123204 0.0412925 -0.00446686 0.012434 
0.040732 -0.00849178 0.0126228 0.0444357 -0.00694636 0.0126973 0.0416508 -0.000270694 0.0122508 
-0.0411647 0.000970908 0.0122631 -0.0448208 0.00269946 0.0122868 -0.0444642 0.006715 0.0123047 
-0.0400892 0.00762173 0.0122089 -0.0416527 0.00447133 0.0141517 -0.0372201 0.00020802 0.012175 
-0.0381638 0.00410181 0.0121332 -0.03137 0.00789667 0.0125692 -0.0352069 0.00681335 0.012166 
-0.0341806 0.00296723 0.0126048 -0.0300493 0.00213333 0.0121556 -0.0368521 0.00987144 0.0142071 
-0.0235118 0.00925196 0.0123086 -0.0246764 0.00524802 0.0122793 -0.0209815 0.00151343 0.01224 
-0.0273821 0.00821596 0.012377 -0.0206752 0.00553769 0.0123235 -0.0253272 0.000919557 0.0123461 
-0.0195135 0.00937902 0.0122481 -0.0167773 0.0064575 0.0121881 -0.0147416 0.00242442 0.0121819 
-0.0127398 0.00982661 0.0121855 -0.0128843 0.00588759 0.0129331 -0.00997401 0.00321485 0.0121491 
-0.00187673 0.00473951 0.0122215 -0.00601641 0.00202552 0.0121276 -0.00561542 0.00621745 0.0121749 
-0.00206727 0.000698982 0.0122142 -0.000219989 0.00890277 0.0122489 -0.00936513 0.00765082 0.0121647 
0.00179286 0.00207316 0.0123887 0.00254315 0.00600854 0.0122788 0.00614754 0.00427828 0.0121618 
0.0091662 0.00165282 0.0122861 0.00730134 0.00828165 0.0125394 0.0036461 0.00990907 0.0124511 
0.0186429 0.00245363 0.0122486 0.0183059 0.00643925 0.0122186 0.0107204 0.00538057 0.0122528 
0.014357 0.00704945 0.0124506 0.0144406 0.00282395 0.0124892 0.0111215 0.00931902 0.0131366 
0.0223544 0.00395606 0.0121949 0.0220201 0.0079713 0.0123117 0.0256456 0.00164106 0.0122022 
0.025988 0.00563036 0.0121872 0.0293292 0.00344489 0.0124368 0.0257533 0.00964833 0.0121863 
0.0290535 0.00782603 0.0135254 0.0365625 0.00617798 0.0121862 0.0381049 0.00190737 0.0121504 
0.0333715 0.00372287 0.0122759 0.0328597 0.00769024 0.0122886 0.040567 0.00603277 0.0121389 
0.0445644 0.00609696 0.0117547 0.0449304 0.00210659 0.0118783 -0.0425558 0.0145312 0.0122086 
-0.0437202 0.0106452 0.0122034 -0.041249 0.0179462 0.0138541 -0.0378402 0.0167105 0.0121572 
-0.0398189 0.0116136 0.0121382 -0.030226 0.0158378 0.0122297 -0.0339271 0.0172593 0.0127918 
-0.0323697 0.0118306 0.0126463 -0.035743 0.013696 0.0137611 -0.0263147 0.016678 0.0121797 
-0.0223097 0.0167792 0.0121617 -0.0241876 0.0131958 0.0123066 -0.0283558 0.0120906 0.0126588 
-0.0201887 0.0133961 0.0125365 -0.0183152 0.0170102 0.0123183 -0.0109865 0.0175118 0.0121931 
-0.0155216 0.0199075 0.0122523 -0.0164521 0.0119884 0.0122129 -0.0145822 0.0155688 0.0122493 
-0.0111571 0.0135024 0.0121966 -0.00779353 0.0113336 0.0121747 -0.00387125 0.0105351 0.0121828 
-0.00204202 0.0186128 0.0122272 -0.00388775 0.0145346 0.0122667 -0.00774894 0.0153724 0.0132059 
2.45813e-05 0.0128959 0.0122373 0.00181647 0.0164754 0.0122311 0.00841595 0.0121567 0.0123246 
0.00474589 0.0137555 0.0123963 0.00748742 0.0166685 0.0124971 0.0182593 0.0104466 0.0122517 
0.0171777 0.0143011 0.0122348 0.0114102 0.0148114 0.0123344 0.0181054 0.0194835 0.0121683 
0.0146548 0.0174092 0.0122778 0.0109011 0.0187961 0.0124395 0.0141185 0.0119612 0.013356 
0.0285831 0.0187373 0.0121142 0.0273291 0.0138164 0.0122249 0.022305 0.0119616 0.0121624 
[...]
POINT_DATA 5999
FIELD FieldData 7
id 1 5999 int
544 514 482 144 333 828 27 856 1092 
1037 589 203 307 1045 120 924 520 97 
862 598 379 135 52 145 107 228 53 
263 1095 158 426 408 336 706 476 501 
1008 364 230 992 41 404 246 608 245 
760 247 46 397 690 154 1316 966 557 
274 440 115 378 816 623 434 1019 874 
63 946 294 669 724 11 302 1015 704 
546 174 424 199 365 469 504 776 952 
684 114 276 8 149 758 1042 614 310 
876 54 112 516 401 210 509 350 861 
136 348 57 659 787 349 1107 437 650 
281 344 131 550 68 664 374 311 345 
502 84 487 429 99 175 42 296 113 
205 1126 66 616 168 1338 293 1144 317 
1494 396 875 39 630 848 1077 117 256 
528 231 461 962 1035 788 523 86 423 
142 853 372 1214 1262 163 686 1503 417 
802 360 20 126 783 1096 906 354 1269 
731 447 485 1071 612 221 821 58 584 
1101 441 1105 931 903 342 1460 445 1481 
627 489 1486 427 1027 710 305 1142 967 
900 322 784 498 410 73 393 421 1161 
935 48 1032 458 108 128 914 418 241 
604 367 134 1014 1516 105 292 12 673 
224 766 813 755 857 558 463 16 5 
971 23 1128 1254 998 352 77 229 594 
78 563 206 1277 346 334 170 763 886 
1106 193 273 375 560 384 734 517 579 
127 81 1478 286 432 712 473 320 380 
88 1197 155 1073 182 341 313 1613 847 
745 1066 586 214 1024 657 1072 387 535 
915 165 592 394 298 244 836 436 868 
287 691 260 631 996 640 191 721 64 
79 80 671 98 225 1040 356 337 266 
75 3 910 576 159 944 524 522 347 
197 1124 361 316 103 21 212 104 288 
1016 954 1097 736 1220 146 660 949 556 
425 880 91 715 839 521 926 519 160 
121 290 76 152 628 332 406 28 569 
529 177 478 1611 1103 748 929 235 312 
226 1368 428 116 227 799 928 1899 705 
1084 220 582 304 851 513 255 388 96 
629 1134 409 118 133 1703 1484 181 259 
299 642 15 140 45 6 1117 636 289 
213 173 769 916 507 327 1025 475 129 
899 497 141 207 701 111 395 530 904 
217 1489 268 477 215 124 474 532 780 
162 909 735 1790 414 454 161 625 218 
866 40 1461 328 882 1 2618 250 877 
122 455 18 1119 1323 885 67 995 1765 
178 864 26 1386 601 901 495 430 907 
1350 531 2254 19 1213 1433 1044 1171 505 
200 153 271 100 680 1270 1098 390 282 
1477 997 969 1392 797 450 551 1328 407 
1828 1575 1164 1620 647 1995 1299 566 795 
1861 1326 1079 2364 2621 257 242 209 194 
515 464 10 1286 981 1650 1289 1834 452 
1589 1846 65 1774 1602 1882 1690 1705 219 
2165 138 773 185 83 596 233 1446 1232 
892 665 772 883 2065 1498 1999 1878 1718 
1411 777 338 567 109 1033 391 1632 1067 
696 707 1580 1677 1471 852 2109 1688 605 
1176 47 1358 1387 968 1792 1284 1608 1434 
147 449 1850 1543 1421 1251 1169 340 800 
1485 1756 512 285 675 764 1280 580 443 
750 1188 1162 323 1013 889 2027 411 662 
1187 1341 1186 2416 1058 119 33 94 713 
1005 254 183 488 198 548 574 493 1785 
1017 1416 1275 279 2300 402 1476 1506 49 
55 953 1043 1463 1639 1836 2042 744 2067 
1026 2781 2347 1538 1166 1028 711 1640 1331 
818 1242 1023 1605 1059 905 2292 1843 1768 
1734 2150 1943 1696 371 400 633 1676 1285 
1179 1754 534 2285 1789 1855 1159 1283 1210 
1883 2092 1944 2191 918 844 641 102 937 
392 1217 1697 943 1074 1862 1609 1274 938 
1550 1691 1170 2345 1456 1036 1412 858 248 
2136 442 1191 785 1491 69 1468 872 1365 
1258 2296 1182 2161 1330 267 382 779 22 
90 1114 689 617 643 652 471 1047 1652 
1224 902 1962 2053 1403 518 739 413 249 
1678 921 2328 1327 1178 1829 2776 223 803 
703 525 741 639 1113 824 1389 578 1064 
1398 961 1265 1592 319 2228 1680 125 243 
1325 533 668 854 977 963 1683 1563 2129 
1345 655 1844 1561 106 1354 1955 2066 674 
1623 1208 1722 697 1055 7 1448 1672 9 
832 2047 1749 1687 1594 2209 2113 1562 815 
190 1418 951 201 964 808 747 990 403 
986 1647 179 1525 888 1597 1201 2490 1555 
2093 1595 980 38 718 1482 1152 994 1404 
1174 2128 1012 1684 1644 1572 1753 1240 1701 
1076 1061 1203 211 1083 353 1185 2221 622 
833 1177 1497 1710 726 1406 1377 270 1960 
1913 1852 1628 1413 1183 1979 1272 2091 1763 
1288 291 859 635 819 1508 1931 240 1383 
987 1369 2312 1199 1223 1256 611 1552 806 
2277 1308 123 1775 927 43 679 658 1319 
1132 834 1243 1767 2278 1347 1493 1811 1417 
1685 314 590 1180 754 1276 252 805 1057 
1355 692 139 1372 1222 1324 749 1948 506 
653 985 2205 399 1584 1123 562 1212 92 
898 1961 1118 222 1679 25 1385 1329 1860 
1250 2348 1505 1835 72 1537 1359 1772 1333 
1407 1830 826 202 767 941 613 1196 881 
318 1500 978 2014 1109 2194 863 1848 1318 
1443 884 496 369 1231 619 1618 1310 1235 
1429 2307 1548 694 1472 2299 1317 581 545 
1130 727 1133 278 1295 508 376 1622 1099 
1822 1081 1536 1374 1587 661 351 1380 1513 
543 500 1586 1509 1140 831 869 2104 575 
1003 1839 491 1356 1263 1091 2021 1479 1425 
1340 2297 1588 1088 1569 830 695 1876 1728 
1428 1030 1366 1964 1125 479 1529 483 2038 
1809 1049 865 1838 1634 855 1692 537 1202 
1674 1281 1444 1845 1181 893 1630 1967 812 
1279 1492 714 1348 2159 770 2240 896 389 
1120 1100 933 1060 1145 1886 1982 1796 1702 
1399 1925 2346 959 1332 1921 1573 2210 2395 
842 137 751 1914 1945 1041 1517 1577 1935 
1137 1391 1151 796 693 870 1557 894 1006 
879 2043 1104 1624 2036 2451 781 615 1009 
1334 24 756 1228 511 1038 873 1221 1353 
835 1122 1719 2200 1002 1940 2037 1351 775 
610 1233 890 654 1111 982 1744 983 1225 
110 1842 789 585 1357 2453 2024 330 607 
702 499 920 1131 1567 1522 2362 794 1928 
1362 1158 2001 2139 1804 1435 1252 1496 2379 
462 677 1512 667 682 280 29 1871 843 
1907 2018 947 237 743 1455 1821 1615 1975 
1361 526 845 840 1300 300 1395 355 1226 
878 942 1480 728 838 717 1260 1720 1787 
1342 1518 1541 2335 370 792 1168 974 678 
309 1238 587 1320 1148 381 570 1305 606 
761 1895 1750 1593 1578 719 297 362 189 
1054 1089 188 431 565 148 1707 555 1381 
814 1046 1129 549 1501 934 956 975 527 
171 730 368 1010 1487 1139 1831 723 1445 
253 31 1306 1031 1063 2264 2400 377 1426 
564 984 1778 503 993 1112 1400 1812 1977 
187 1291 1080 1297 1011 1149 1301 1673 2269 
2651 295 101 716 1439 1576 1294 919 922 
632 2248 232 817 1450 1370 2237 366 2319 
2176 265 742 1018 1523 239 1090 167 867 
700 1078 1052 2279 2242 1553 1312 1499 2260 
1675 1910 1352 303 988 419 827 32 588 
778 1344 1255 1449 1884 1936 1826 1714 1870 
1556 2398 2034 1337 1997 331 1193 572 70 
1086 1335 1490 1430 1394 2114 737 1972 1879 
733 459 1367 1462 1339 1574 2012 1218 36 
301 1237 1020 180 746 1153 453 676 911 
1540 420 2452 1664 1546 1721 568 1154 82 
1314 1766 541 216 326 1085 1150 930 1311 
484 979 87 809 164 315 822 1535 1402 
1743 553 932 1302 283 646 955 130 186 
709 958 648 609 1682 192 1021 940 708 
2115 1469 2148 2156 1082 1190 480 448 626 
238 765 1321 554 1069 405 561 1976 74 
150 887 1236 1207 358 1115 1230 2375 539 
1583 50 1271 1384 481 1056 1524 656 688 
849 51 2 1135 13 740 1532 1566 60 
620 1110 1984 1247 1029 1379 1849 923 412 
600 891 1022 1604 1459 841 1560 435 2010 
2446 2225 2318 2223 2750 2660 2134 357 472 
771 1346 925 439 1343 790 1349 1617 1726 
559 1257 71 1048 1373 1551 1760 93 258 
1442 62 1004 603 793 1819 1001 1897 644 
2406 325 774 470 1102 1971 2910 948 1248 
599 957 791 683 1246 618 1309 1156 284 
1625 681 1510 1195 1669 2203 1934 272 251 
386 277 35 373 725 846 1436 685 456 
698 1859 416 2158 960 2090 444 638 1227 
1670 738 820 547 1695 965 1582 752 1424 
2035 1467 2219 637 1565 1393 329 95 976 
571 1205 850 34 85 1273 804 1267 363 
1163 1261 1423 17 2198 972 1121 991 573 
1655 151 1959 1053 306 61 1136 383 1296 
1165 1875 169 2460 1873 1764 1388 468 1867 
1116 2629 2243 2032 1725 339 798 275 14 
1287 1534 196 1172 2055 624 2764 308 2030 
1755 1923 1932 1745 204 89 1641 1298 1571 
2007 2049 1160 1868 1475 1410 1303 4 2023 
1795 2284 2051 2127 2403 597 2211 166 973 
264 1068 811 591 649 1167 1000 538 2146 
486 184 261 1631 1514 917 1610 2474 1401 
30 438 829 321 324 1504 666 1108 759 
490 645 1591 1651 577 1724 176 651 1627 
1453 1645 1050 433 195 143 415 59 157 
583 1249 466 801 1336 1713 359 1579 989 
2110 1708 786 1752 1307 234 999 1173 1147 
593 1266 1530 908 132 552 1290 729 510 
269 762 1495 156 670 1239 1364 422 621 
451 1209 542 1816 56 1390 1980 2384 2081 
1922 1657 2327 1211 343 446 1542 1189 768 
1570 1143 2690 1717 2680 2122 2843 2554 913 
602 1245 3284 2196 2046 2641 2257 2100 3086 
3465 2999 2528 2911 2938 2289 1638 1259 1598 
3160 2845 3808 3155 3564 2713 3025 3060 2633 
1906 2720 2686 1777 1278 2349 2508 2918 1194 
2073 1957 1869 699 2195 782 2847 2247 2303 
1581 2102 2250 2341 2512 492 2977 2588 3540 
1547 2464 2275 1856 2245 3348 1603 2987 3013 
1783 2421 2526 2417 1661 2208 3098 2862 3529 
2851 2157 2527 1649 2121 2612 2106 2084 1681 
1590 1626 2098 2840 3413 2433 2968 2958 3636 
4100 2435 2031 457 1175 1420 1488 2003 2825 
1146 2351 1800 2383 2959 1414 2833 2975 2761 
2506 3033 3682 2487 3256 1614 1519 1533 2472 
2455 2187 2684 2624 3174 2418 3271 2448 2378 
3207 3095 2295 1981 2377 3008 2075 2355 2932 
2517 2606 3464 2545 3215 3734 2871 3187 3650 
2855 4051 2735 2332 687 1952 2044 1937 465 
2560 2611 2689 2538 2675 1802 2135 2443 1865 
2669 3193 1949 1733 2143 1771 1564 2391 1382 
2314 2646 1746 2493 2601 1991 2041 2963 1458 
2483 3411 2645 2239 2330 2145 1633 1470 2185 
1779 2869 2008 2746 2613 3425 3391 3851 3111 
1437 2009 2427 2305 2291 2812 2767 1619 2396 
3027 3297 2276 3303 2516 3122 2795 3492 2498 
1908 970 1654 2470 2510 3082 2661 1983 2532 
1376 1727 2486 2368 2183 3286 3539 3360 2505 
1919 1483 1953 1686 1824 2511 2015 2468 1978 
2522 2765 2111 2953 3079 2048 1866 2402 3249 
3553 2824 2808 2739 2717 1405 1659 540 1780 
1699 2408 1693 2562 1989 2964 3175 1716 2071 
2338 2423 2515 2415 2280 3015 2848 3721 1954 
1958 2013 37 2329 2173 2181 2298 3024 2943 
3124 1737 2105 2450 2025 1711 1817 3063 1093 
2271 1378 2429 2859 2639 2610 2743 1968 1184 
1858 2004 2667 1607 2061 2886 1065 1887 1773 
2491 2806 1700 2359 2385 2576 2389 3252 3451 
2779 2557 2430 2226 2057 2177 2816 2142 722 
2282 3156 2151 2668 2363 3375 2708 2387 3247 
2858 2304 2714 1662 1794 2794 3173 3094 2399 
2103 2457 2674 3072 3338 1814 1881 807 2728 
1408 1253 2190 1988 2916 2944 2182 2870 3040 
3180 1942 1070 1966 939 2050 1668 1671 2600 
1264 1840 2804 2333 2120 1889 1141 2594 2549 
2666 2671 2409 3158 2846 2520 2687 2432 3211 
3690 2534 2519 3208 2301 2652 1087 2317 2179 
2440 2745 2420 2005 1965 1987 2426 1642 1663 
1219 1198 2709 2370 2322 2361 1531 1905 1293 
2565 1863 1658 2116 1803 2579 2083 2202 3185 
2366 1397 1893 1730 2665 1924 1539 2935 3339 
2939 1896 3445 3368 1667 1215 1759 1776 2774 
2163 1969 2141 2773 2688 3258 2206 2373 2082 
2482 3029 1890 2787 3250 3620 1268 2548 1902 
2796 2712 1793 1723 2861 2875 1807 3455 2772 
2251 3039 2444 2880 1916 3150 3892 1127 1643 
2006 1363 1396 1917 1993 1452 1200 1736 1815 
1994 1877 2678 2989 2407 1781 1155 2478 1315 
1507 2577 2172 1636 2392 1704 1568 2521 1558 
2786 2207 2950 3453 1888 1454 1216 1927 2531 
1637 2130 2326 2595 2573 2737 2820 3012 2676 
2863 3214 2323 2536 2309 2481 1206 1694 2449 
2607 2215 2357 2603 1786 2978 1545 3003 3189 
2059 2405 2204 1985 1094 1447 2256 1833 1920 
2118 2699 2193 2192 2125 2885 3569 1629 753 
1832 2086 2584 1660 1689 1732 1941 1900 2798 
2220 1901 3257 2749 2343 536 172 1813 2466 
1653 2422 2770 2940 2814 2881 1616 2290 1805 
3499 1735 1946 2488 3149 3506 3278 3633 2951 
2052 860 2852 1440 1769 2883 2537 1502 2441 
2232 1885 1762 2068 1990 2473 1431 2827 1938 
2677 3246 2572 3121 2899 2169 2941 2344 2258 
1992 871 1808 2154 2762 2026 2079 2424 2077 
2439 2752 2222 2647 2070 2504 2325 2306 2716 
2425 2546 1600 2140 945 1909 1729 1825 2356 
2564 1739 1585 1051 2849 2632 3574 2476 3112 
2828 2589 2458 1599 2112 1292 2830 2094 2630 
2132 2657 2217 2969 2164 2844 3071 3179 3308 
2393 2465 2738 2552 1521 1466 1229 1970 1432 
2095 2124 2500 1851 2649 1646 1820 1039 2887 
2404 2865 2724 1930 2854 2753 2313 3351 1304 
1360 1648 1549 2175 2503 2636 1798 1956 2218 
2725 2442 2625 3196 2249 2382 2620 2524 2074 
1244 1911 1515 1933 2459 1738 1621 2638 1915 
2682 3054 2316 2802 3273 3485 3251 3439 2072 
757 1528 1761 1810 1797 2994 2253 2431 2445 
1874 2462 2934 2017 2985 2763 2011 2615 3006 
2604 3390 2374 3085 2785 1007 2839 2414 2529 
1656 1526 2799 2701 3053 2342 1706 1409 2587 
3050 2789 2413 3700 2890 2471 3213 3489 3093 
3448 1419 1998 2123 2367 2386 3047 2178 2352 
2902 2923 2214 2274 1731 2480 2436 1947 2273 
3373 3337 2803 2697 3087 672 2133 2238 1740 
1465 2759 1204 2199 1892 2543 2244 2108 1898 
2658 950 1747 2167 2287 2447 1451 3105 1799 
2213 2201 2961 2016 2608 2162 2908 2535 1415 
1241 2324 1473 2888 2336 2702 2230 1894 2029 
2492 2137 1918 3463 3398 2555 1854 2609 2723 
1880 1075 2340 2924 2456 2321 2751 1872 236 
2288 3277 3304 2045 2730 3756 3494 2233 2925 
3145 810 1511 1559 2655 1666 1457 2076 2186 
2281 1527 1709 2261 2982 2654 2153 2933 1847 
3432 1963 1441 1138 2768 2020 2019 2700 2962 
2227 1827 2152 1192 1234 2212 1427 1635 2898 
1742 2495 2744 3138 3070 2605 2681 2734 1665 
2598 1748 2622 2265 2626 2592 1818 2331 2174 
2602 2376 2578 2315 3234 2097 3980 2715 3170 
2283 2119 2259 2160 2837 3031 1853 1939 2900 
3017 2810 2547 3232 3307 2691 3280 2841 3712 
2469 2525 3733 4228 3190 2635 2022 2101 2155 
1801 1596 2310 3045 1864 2502 2397 2729 3287 
3274 2184 2496 3225 2062 3893 3559 1841 2039 
634 2559 3010 2561 1912 2583 2063 2089 2078 
2644 2727 3301 3358 3153 3219 3436 3267 3330 
3369 2272 1375 2040 1712 1698 2711 2494 2590 
2580 2936 2822 2087 3202 2703 2390 2882 2949 
2311 2650 2485 2410 2000 2054 1322 897 1601 
2784 2360 2957 3371 2627 3270 2748 2246 3116 
2591 3818 3367 2475 3248 494 2138 460 1757 
1544 2903 2188 2401 2988 2080 3292 1784 2663 
3397 2831 3212 2892 2388 2380 2766 2876 2064 
2956 1715 1474 2394 262 2670 2948 2170 3372 
2706 2631 2171 2945 2107 3747 2582 3114 2672 
1612 2236 1791 2434 2234 1788 2033 2513 3400 
2270 2942 2872 2593 3460 2563 2294 3293 3081 
3939 3937 2197 2180 2411 2575 3120 2586 2350 
3201 3171 3266 3073 1758 2813 1903 1926 2099 
2992 1034 3004 2758 3442 3444 823 1313 1891 
2497 2302 1770 2229 2131 2369 2692 3561 3341 
2255 3435 3752 2085 2811 2793 1520 1422 1282 
825 2147 2523 2235 2412 2778 2585 3406 2909 
2144 3401 2058 3268 2637 3396 1554 2060 2381 
2662 2372 2126 2002 3172 2501 3738 2266 1062 
1951 2542 1973 2856 1837 2937 3176 2574 2530 
3591 3783 2569 3162 1823 2970 3487 3089 3538 
2514 335 2056 2868 3630 2775 2518 3002 3255 
2771 2866 3288 3580 3509 2069 3106 3493 2685 
2879 2742 3804 2836 3118 4039 3834 3446 3142 
3289 3955 3713 3722 3279 2718 3792 3282 4166 
2507 1996 3703 4216 3056 3958 4464 3961 2801 
3331 3902 3235 2623 3845 3639 2864 4060 4618 
4497 3972 3607 4124 3404 4367 3862 3758 3319 
2096 2262 3822 3471 3677 2891 3334 2783 3790 
4129 3077 3032 2634 3440 3778 3718 3058 3276 
3654 3707 3362 2308 3844 3723 3194 3302 3405 
3632 3195 3985 4149 3727 3547 3977 3147 3670 
4257 3315 3099 4002 3472 2371 3361 3763 3433 
3831 3913 4388 4326 4139 2955 4310 3349 3764 
3378 2930 3761 3165 3152 3766 2842 4390 4248 
3967 3379 3618 4066 3735 4416 4270 4918 4072 
4642 4738 2499 2747 2467 2616 3768 3350 4439 
3623 4211 3894 3800 3675 2967 3711 4415 3083 
4375 4038 2809 3311 2553 2339 2533 2568 2877 
1950 2596 3500 3048 3811 3437 3708 4086 3578 
3868 3717 4456 4536 3883 4451 3125 2556 3469 
2597 3313 4200 2740 3067 4279 3847 2973 3478 
4170 4188 2189 2929 4255 2834 4647 4389 3833 
4637 3450 2946 4813 3715 4664 4169 4520 4550 
5082 2966 3920 3325 2904 3662 4000 3449 3052 
3523 3512 4567 4480 3993 4632 4371 3264 4475 
3221 3346 2438 2628 2821 3186 4056 2721 3516 
3983 3676 2832 4007 4946 4775 4521 4286 4361 
2673 3078 2088 3522 3599 3041 2907 3188 3103 
3527 3794 3907 2980 4797 3771 4093 4648 4150 
3699 2659 3572 2365 3028 3769 3226 3751 4317 
3353 3898 3714 3806 3347 3412 4198 5425 3990 
4161 4003 4202 4290 2648 3828 2216 3199 2656 
2896 3365 3534 3370 3096 3298 4559 2976 2777 
4068 3238 3789 3743 2867 3611 3774 4444 3528 
4240 2829 2805 2268 3799 3537 3826 3615 3476 
3477 3462 3753 4065 3482 3556 3409 3642 3754 
4001 3614 2983 3345 3309 2231 3000 3169 3260 
3594 3813 3415 3317 3518 4403 4130 3231 4560 
2581 3005 3037 2477 3651 2168 2354 3166 3388 
2696 3931 3634 3468 3101 4504 3242 3963 3459 
3956 2694 2693 2788 2838 2984 2857 3020 2927 
4259 3829 4019 3624 3344 3773 3681 4205 3376 
2540 2736 3772 3306 3679 3143 3183 3848 3457 
3402 3974 4134 3640 3672 3987 3323 4466 4328 
3944 4742 2461 2895 3090 3616 3979 3418 3244 
3695 3730 2698 4525 3259 3253 4291 4387 3951 
4127 3988 4440 3853 3924 3542 2241 2732 3508 
2954 1741 3590 3504 3825 4232 2726 3897 4253 
4120 3705 3861 3011 4600 3167 2757 3181 2860 
3557 4113 3392 2769 3706 3849 4545 3377 3474 
3092 4374 4242 2286 3227 2558 4281 3655 3788 
3859 2850 3881 4075 2544 3568 3921 3571 4699 
4590 2664 4833 3548 3001 2995 4089 3100 3427 
3649 4306 4046 4133 4597 3886 4754 1806 3140 
3466 3157 3746 4154 3222 4103 3422 3973 3819 
4084 2922 3890 2897 2915 2894 3136 3767 3563 
2993 3236 3237 3926 3399 3191 4099 3856 4031 
3652 4189 2741 2704 2263 2484 2683 2541 2819 
3952 3927 3748 4125 2823 3108 4688 4184 3326 
3327 2567 3941 3545 2998 2617 2914 3229 3638 
2707 3644 3685 3204 4262 3598 3139 3698 3055 
3129 3066 2986 2293 3163 3428 3107 3272 3109 
3030 3680 3424 3837 4506 4753 3127 3490 3613 
2614 3336 3097 3948 3075 2947 2571 3925 3810 
4237 4295 4570 3786 3550 3241 3104 4731 2539 
2835 3333 3498 3393 4454 3408 3356 4112 3622 
3484 3744 4105 3592 3628 3473 4095 4315 2972 
3363 3316 3858 2780 3935 3762 3431 4335 3588 
3891 3200 4245 2419 3757 3877 3981 3324 4069 
4207 4394 4465 5179 5247 4958 4443 4233 3387 
3694 3023 3692 3864 3936 4402 3061 4429 3888 
2653 2912 3530 3007 3230 2928 3243 3558 3044 
3596 4434 3283 2722 3665 3855 4128 4156 3210 
3414 3824 4438 3970 3470 2733 3016 3084 2358 
2756 3663 4217 2760 3946 4114 3332 3220 4246 
2570 2642 2991 2971 3161 2599 3796 2965 3022 
3197 2807 3205 4024 3609 3502 3867 3443 3659 
4386 3009 2990 2337 3576 1857 2320 3617 2815 
2920 3501 4020 3619 3128 3520 4468 3689 3586 
3863 4239 3602 3135 3668 2817 2893 2926 2334 
4083 3601 3544 3130 3198 4176 2974 3184 3144 
3830 2931 2919 2797 3486 3305 3164 3673 3117 
4365 4165 4531 3018 4235 4899 3608 3687 3380 
4327 3312 3666 3582 3795 3088 3146 4053 3776 
4573 2979 3872 3505 2906 3842 3177 4617 3560 
3366 3429 3014 3874 2643 3552 4081 3479 3686 
4062 3750 3850 4349 4369 3513 3480 4077 3300 
3702 4309 3239 3775 2960 3359 4137 3110 3575 
3447 4614 3996 4347 3827 3945 3950 3991 4193 
3816 3395 3749 4472 3805 4311 4018 4811 3631 
3610 4338 5195 4352 4206 4685 2619 4116 3779 
3600 3719 3159 4736 4102 4673 4158 3960 3403 
3123 3871 3835 3419 2792 3777 2428 3653 3643 
2826 3720 3245 3383 3593 3637 3541 4364 3739 
1974 2884 3091 3295 3491 2463 4187 3216 2997 
4163 3233 3043 3343 4090 3329 3314 1904 3299 
3975 2889 4425 3262 3661 3019 4201 4486 3488 
3852 4412 4256 3168 4565 2437 3741 2679 3760 
3074 3352 3394 2353 3533 3832 4288 3420 4320 
3514 3656 3218 4204 3605 3536 2705 3151 3182 
2224 3068 3904 2754 3441 3178 3900 3785 2853 
3660 4058 4215 3554 3223 4203 3042 3133 3999 
4146 3261 3584 3915 4199 3546 2731 3318 3737 
2800 4174 3732 4250 4479 4219 3731 3865 3965 
3846 3645 3426 4791 4792 3803 3224 3296 4108 
3627 3968 3930 3793 3629 4152 3716 3876 3051 
2981 3693 4598 4999 4341 5224 2952 2917 3745 
3065 3626 3036 4097 2550 3407 3878 4300 3962 
4157 4551 4860 3836 4017 2551 3049 3354 4041 
3597 3917 3969 3291 3697 3782 3064 4073 2921 
4131 3585 4042 2874 3929 4078 2719 3688 3725 
4234 3385 4182 3736 3269 3901 3531 4055 4192 
3916 3021 3587 4377 4589 4513 3678 3704 3119 
3141 3290 3787 3519 3389 3217 3515 3340 2901 
3382 3131 3780 4238 3461 3603 3671 4625 3034 
3507 3495 2913 3154 4252 4258 3421 3132 3691 
4591 4391 3802 3384 3658 4272 3062 4273 4717 
5101 3059 2791 3069 3562 3521 3321 4505 3798 
3535 4336 4047 4044 4274 3566 5294 4943 4727 
3625 4094 4604 3869 4035 3263 3895 3565 4194 
3254 3342 3430 4578 3322 4023 4926 4135 5232 
3684 3646 2489 3683 4096 3517 3192 3355 4118 
2905 4316 4212 3635 4009 4801 4224 4428 4040 
3647 4638 3843 3823 3467 3934 4459 4087 3503 
2878 3203 4305 4292 3664 3942 3765 4254 4530 
4185 4921 2479 3080 3884 2028 3240 4107 3026 
3038 4091 4346 3076 3709 4043 3543 3982 4447 
3667 3604 3115 4079 3386 4076 3357 3285 3912 