# vtk DataFile Version 4.2
Generated by LIGGGHTS
ASCII
DATASET POLYDATA
POINTS 6000 float
-0.0167596 -0.0169663 0.0148798 -0.0169847 -0.016745 0.0168832 -0.0152327 -0.0184637 0.0148485 
-0.0113863 -0.018433 0.0146997 -0.00968122 -0.0218105 0.014623 -0.0114749 -0.0209524 0.0148843 
-0.0131786 -0.0198814 0.0146895 -0.00984997 -0.0196718 0.0152011 -0.0133158 -0.017887 0.014738 
-0.009818 -0.0171824 0.0144859 -0.0164118 -0.0173624 0.0187529 -0.0121814 -0.0181405 0.0165558 
-0.0123539 -0.0204237 0.0166077 -0.010607 -0.0194338 0.0170476 -0.0104558 -0.02146 0.0170411 
-0.00914011 -0.018148 0.0164578 -0.0155382 -0.0181635 0.0168421 -0.00860328 -0.0218862 0.0178937 
-0.00857402 -0.0198041 0.0176072 -0.0137685 -0.0175344 0.0176145 -0.0106202 -0.0174777 0.0176327 
-0.0137017 -0.0195272 0.0178009 -0.0117813 -0.0188472 0.018565 -0.0114673 -0.0210436 0.0189268 
-0.00985448 -0.0191593 0.0190174 -0.00954191 -0.021231 0.0195501 -0.0130942 -0.0179851 0.0198049 
-0.013042 -0.0199781 0.0196352 -0.014923 -0.0187004 0.0194187 -0.00929577 -0.017189 0.0191909 
-0.0112125 -0.017303 0.0197551 -0.0112591 -0.0194974 0.0204032 -0.0140589 -0.0192885 0.0212576 
-0.0108825 -0.0213426 0.0211197 -0.0100385 -0.0181022 0.0211664 -0.00872717 -0.019576 0.0208367 
-0.00901907 -0.0220761 0.0212952 -0.0158603 -0.0177875 0.0209827 -0.0145631 -0.0167341 0.0192705 
-0.00824649 -0.0184985 0.014661 -0.00814342 -0.0205252 0.0144928 -0.00285824 -0.0179232 0.0149504 
-0.00337701 -0.022391 0.0145637 -0.00104413 -0.0237885 0.0150974 -0.00116702 -0.0193624 0.0147312 
-0.00669594 -0.0219311 0.0144443 -0.00637999 -0.0197976 0.0150979 -0.00468551 -0.0187379 0.0152352 
-0.00479803 -0.0209888 0.0147773 -0.00166426 -0.0213227 0.0148175 -0.00309307 -0.0199228 0.0149573 
-0.00636578 -0.0177084 0.0147201 -0.00514407 -0.0233047 0.0143345 -0.000963597 -0.017352 0.0146561 
-0.0082121 -0.022327 0.0159746 -0.00720367 -0.0187182 0.0165989 -0.00691884 -0.0208768 0.0169336 
-0.00463264 -0.0217783 0.0169813 -0.00615641 -0.0231434 0.0161424 -0.00292567 -0.0188772 0.0169502 
-0.00250682 -0.0210591 0.0166196 -0.00107144 -0.0181528 0.0166288 -0.00338344 -0.0233925 0.0164835 
-0.000765299 -0.0221827 0.0164733 -0.00472063 -0.0197668 0.0170999 -0.00448485 -0.0172609 0.0165863 
-0.00787906 -0.022537 0.0197077 -0.00791694 -0.0186469 0.0191667 -0.000662485 -0.0199553 0.0177266 
-0.00154238 -0.0222119 0.0183326 -0.00593099 -0.0177057 0.0179013 -0.00753221 -0.0205684 0.0195745 
-0.00613163 -0.0195999 0.0185149 -0.00352474 -0.021885 0.0186486 -0.00676719 -0.0229711 0.0180799 
-0.00244789 -0.0201235 0.0186405 -0.00088684 -0.0181675 0.0186459 -0.00254519 -0.023738 0.0192665 
-0.00583022 -0.0214983 0.0190731 -0.00346999 -0.0183817 0.0190222 -0.00480807 -0.0233727 0.0182716 
-0.0043475 -0.0201648 0.0192667 -0.00528583 -0.018195 0.0198444 -0.000940068 -0.020848 0.0197412 
-0.000144578 -0.0238222 0.0192356 -0.00790936 -0.0172308 0.0177427 -0.00223907 -0.0168214 0.0192503 
-0.00584449 -0.0232138 0.020106 -0.00604376 -0.0198686 0.0207311 -0.00357437 -0.0172806 0.0206983 
-0.00700277 -0.0181158 0.0208746 -0.00264151 -0.02208 0.0204562 -0.00164861 -0.0189978 0.0203178 
-0.00207676 -0.0238187 0.0213849 -0.00457986 -0.0215308 0.0207263 -0.00399165 -0.0235139 0.020825 
-0.00310056 -0.020194 0.0210194 -0.000808944 -0.02215 0.02126 -8.90127e-05 -0.0198633 0.0212717 
-0.00156981 -0.0171426 0.0211239 -0.00254088 -0.016785 0.0166147 -0.00664608 -0.0167148 0.0194865 
0.000220519 -0.0219679 0.0146316 0.00489926 -0.019834 0.0146175 0.0012375 -0.0194759 0.0145664 
0.0039102 -0.0236619 0.0146373 0.00405196 -0.0216635 0.0146593 0.00656422 -0.0209547 0.0146499 
0.000965406 -0.0238348 0.0146365 0.00439753 -0.0181239 0.0155535 0.00103283 -0.0174832 0.0146643 
0.00308692 -0.0196397 0.0154601 0.00208947 -0.021272 0.0148097 0.00633684 -0.0176794 0.0147082 
0.00572396 -0.0227752 0.0147077 0.00802395 -0.0196277 0.0150222 0.00771893 -0.0225979 0.0145898 
0.000264088 -0.0238525 0.0169385 7.85799e-05 -0.0204281 0.0159295 0.00628176 -0.0192421 0.0159617 
0.00526814 -0.0213491 0.0162249 0.0025037 -0.0237504 0.0160797 0.00333677 -0.0217351 0.016578 
0.0025131 -0.0178299 0.0161808 0.00128486 -0.0221942 0.0164272 0.000847435 -0.0185029 0.0170857 
0.00653231 -0.0229382 0.0165962 0.00438221 -0.023449 0.0168951 0.00163864 -0.0203422 0.0172091 
0.00461842 -0.019451 0.0171406 0.00562425 -0.0176748 0.0170724 0.000377254 -0.0216387 0.0181241 
0.00199377 -0.0237515 0.0180469 0.0040134 -0.0179268 0.0182954 0.00638839 -0.0178915 0.0191705 
0.00325523 -0.0203437 0.0183944 0.00636676 -0.0213703 0.0178982 0.00446977 -0.0219237 0.0182245 
0.000466457 -0.0194396 0.01939 0.00219977 -0.0186771 0.0187296 0.00570162 -0.019747 0.0188747 
0.00590391 -0.0231154 0.0190022 0.00266259 -0.0221384 0.0190621 0.0039648 -0.0236546 0.019139 
0.00744025 -0.0197226 0.0175217 0.00217856 -0.0168553 0.0179036 0.00779167 -0.0225919 0.0185935 
0.00023113 -0.0238762 0.0212069 0.00207315 -0.0237746 0.0200678 0.00376336 -0.0190569 0.0199542 
0.000250395 -0.0179314 0.0208667 0.00202428 -0.0205156 0.0200539 0.000852912 -0.0221606 0.020034 
0.00445343 -0.021866 0.0203006 0.00527649 -0.0201025 0.0207967 0.00648939 -0.0214438 0.0199369 
0.00199756 -0.0188568 0.0211767 0.00594428 -0.0230866 0.0212703 0.00255587 -0.0221203 0.0211382 
0.00392941 -0.0236406 0.0211683 0.00740763 -0.0192768 0.0201989 0.00480094 -0.0173591 0.0204643 
0.00200501 -0.0169427 0.0205762 0.00773763 -0.0167372 0.0203523 0.000602884 -0.0168823 0.0191372 
0.00825362 -0.018111 0.0183937 0.00801832 -0.0225304 0.0206634 0.00834077 -0.0177091 0.0145482 
0.00960289 -0.0218998 0.0146256 0.00997261 -0.0199229 0.014626 0.0119503 -0.0202476 0.0146421 
0.010969 -0.0181938 0.0147719 0.0138172 -0.019536 0.0150717 0.0129735 -0.0177233 0.0146633 
0.0152865 -0.0182571 0.0146158 0.0108373 -0.0212503 0.0160846 0.00846278 -0.0224064 0.0165093 
0.009039 -0.0204909 0.0165463 0.0088275 -0.0184834 0.0164868 0.012607 -0.0202971 0.0165681 
0.0119906 -0.0178136 0.0164838 0.0106566 -0.0193236 0.0168117 0.0140298 -0.0171625 0.0162973 
0.0142603 -0.0192464 0.0170772 0.00960819 -0.0218999 0.0180997 0.0103274 -0.0176105 0.0178637 
0.0130942 -0.0200559 0.0185509 0.0113351 -0.0208828 0.0180192 0.00961779 -0.0195754 0.0185621 
0.0114636 -0.0190162 0.0191529 0.00835318 -0.0208735 0.0194485 0.0145972 -0.0189751 0.0193103 
0.0130725 -0.0180803 0.0181936 0.0157971 -0.0178911 0.0170343 0.014796 -0.0170917 0.0186206 
0.0091175 -0.018193 0.0203416 0.0131475 -0.0195767 0.0206275 0.01161 -0.0208413 0.0208556 
0.00987319 -0.0217484 0.0204111 0.00998633 -0.0197502 0.021272 0.0159533 -0.0178475 0.0202607 
0.0168104 -0.0169628 0.0145686 0.0169742 -0.0168049 0.0183121 -0.01935 -0.0138834 0.0146921 
-0.0204732 -0.0121835 0.0147955 -0.0188832 -0.0108741 0.014733 -0.0172693 -0.012086 0.0147189 
-0.0181224 -0.0155021 0.0146906 -0.0167888 -0.00950473 0.0146224 -0.02039 -0.00954728 0.0147179 
-0.0185748 -0.00897538 0.0153605 -0.022236 -0.00888548 0.0152261 -0.0187855 -0.0124274 0.015994 
-0.0175877 -0.0107541 0.0163619 -0.0173485 -0.0138085 0.0157826 -0.0215034 -0.0105245 0.0161131 
-0.0183436 -0.0152842 0.0167278 -0.0195641 -0.0103135 0.0165737 -0.0169332 -0.00887354 0.0166405 
-0.0205608 -0.0120777 0.0169499 -0.0195483 -0.0137695 0.0172912 -0.017659 -0.0132583 0.0177163 
-0.0188333 -0.0116476 0.0178811 -0.0211989 -0.0110359 0.0185484 -0.0168777 -0.0113635 0.0181953 
-0.0177968 -0.015878 0.0189141 -0.0191517 -0.0144387 0.0192776 -0.0201748 -0.0127385 0.0188895 
-0.0183101 -0.0126388 0.0196057 -0.0170916 -0.0142139 0.0198121 -0.0181818 -0.00978739 0.0182267 
-0.022072 -0.0092957 0.0180705 -0.0196293 -0.0103415 0.0195755 -0.0197141 -0.0134064 0.0209002 
-0.0208056 -0.0116898 0.0204746 -0.0177045 -0.0107553 0.0199271 -0.0184085 -0.015039 0.0211155 
-0.0217769 -0.0099478 0.0201879 -0.018995 -0.0115581 0.0213146 -0.0202136 -0.00935728 0.02129 
-0.0207946 -0.00872724 0.0166389 -0.0202603 -0.0086564 0.0186944 -0.0185896 -0.00865177 0.0198408 
-0.0165766 -0.0149379 0.0176361 -0.0160207 -0.0149131 0.0147634 -0.0154385 -0.0109752 0.0147643 
-0.0119533 -0.0163936 0.0146829 -0.0148076 -0.0165114 0.0145941 -0.010325 -0.0152303 0.0147597 
-0.0125979 -0.0123361 0.0145822 -0.0139922 -0.0147002 0.0150575 -0.0146129 -0.012806 0.0147549 
-0.0120041 -0.0142034 0.015204 -0.0101369 -0.0129481 0.0150303 -0.00929299 -0.0109348 0.0147588 
-0.00850918 -0.0143923 0.0146723 -0.0114178 -0.0110673 0.0156195 -0.0138371 -0.00976915 0.0146005 
-0.0109945 -0.00921492 0.0149616 -0.00840555 -0.00913507 0.0149031 -0.0165474 -0.0122884 0.0204855 
-0.0162427 -0.0123019 0.0165264 -0.0132755 -0.0161982 0.0161869 -0.0113359 -0.0158951 0.0166276 
-0.0136476 -0.0112736 0.0159159 -0.0129075 -0.0130832 0.0168407 -0.0102106 -0.0142349 0.0165618 
-0.00989005 -0.0100129 0.0164309 -0.00910741 -0.0120036 0.0165028 -0.00891096 -0.0157918 0.0162889 
-0.0150305 -0.0138417 0.0169442 -0.0155818 -0.01042 0.0168001 -0.0125012 -0.00959028 0.0164417 
-0.016452 -0.00941947 0.0207322 -0.0150833 -0.0161369 0.0170491 -0.00832626 -0.013763 0.0170448 
-0.0134552 -0.0148441 0.0176616 -0.0108511 -0.0124948 0.0173643 -0.0159072 -0.0130522 0.0186585 
-0.014513 -0.0119877 0.017596 -0.0123805 -0.0112179 0.0176072 -0.0126454 -0.0163278 0.018757 
-0.0149914 -0.0148057 0.0189517 -0.0115291 -0.0144534 0.0180561 -0.0139402 -0.00996455 0.0178565 
-0.0120035 -0.0128084 0.0190934 -0.00971423 -0.0137073 0.0184969 -0.00988768 -0.0156544 0.0180523 
-0.00944638 -0.0107998 0.0182188 -0.0111665 -0.0109895 0.0192253 -0.013143 -0.0112038 0.0194561 
-0.0151513 -0.0113526 0.0193944 -0.013998 -0.0130115 0.0193192 -0.0127596 -0.014564 0.019693 
-0.00911542 -0.012174 0.0196384 -0.0160161 -0.00964991 0.0187622 -0.0108848 -0.00933496 0.0181187 
-0.0160773 -0.0158646 0.0203095 -0.0141681 -0.0154828 0.0207816 -0.0107807 -0.0152065 0.0199072 
-0.0093732 -0.00961099 0.0199026 -0.010612 -0.0132388 0.0204767 -0.015266 -0.0138141 0.0206675 
-0.0120144 -0.0119139 0.0210059 -0.0122632 -0.0160758 0.0209489 -0.0101665 -0.0111156 0.0209774 
[...]
POINT_DATA 6000
FIELD FieldData 7
id 1 6000 int
508 727 1047 587 49 561 534 1053 837 
393 1576 708 1048 204 186 2497 104 391 
896 1167 100 618 1155 803 854 1265 1797 
800 1128 2097 2160 466 2204 1261 1253 905 
2022 309 1703 224 83 12 477 296 719 
1416 1473 195 1789 889 785 1017 14 904 
1455 1180 1704 1243 547 64 790 1739 630 
148 1174 1110 1015 1143 957 1018 572 1685 
1643 1013 2040 1690 2 1572 1025 1145 364 
2136 152 1312 1988 781 656 10 1414 1951 
1592 1597 60 619 1316 1355 11 1152 1022 
1681 584 1884 234 179 287 68 624 289 
789 1081 1464 443 158 639 608 714 428 
828 1674 620 412 2220 217 1504 944 1273 
1655 214 1176 1202 48 981 367 1517 1291 
1147 1914 349 1766 2081 1486 585 1633 2184 
1439 1012 206 2072 1119 2163 417 1680 2328 
1605 1733 1554 2423 1153 2233 314 1552 1369 
2006 2418 1510 525 1737 73 556 533 986 
115 717 298 305 37 17 192 108 297 
1054 1540 256 1188 222 279 1555 687 1543 
348 591 438 483 876 637 435 332 33 
1201 1357 117 13 46 1426 1212 569 441 
941 151 552 685 817 1106 494 1260 588 
888 372 176 260 1130 210 493 1793 563 
378 197 723 271 1006 816 1574 1673 1329 
1310 1084 735 1093 460 1034 701 908 814 
94 1169 961 1141 632 353 383 562 846 
223 456 259 67 1004 399 301 479 1362 
901 874 407 1317 598 131 521 498 738 
285 102 418 778 84 237 764 1452 225 
344 32 468 1224 713 380 242 275 1120 
155 241 576 775 72 999 160 704 782 
1021 1421 347 1682 1462 1652 510 368 276 
557 606 1612 1334 1274 1611 925 154 1246 
741 1132 500 1070 1300 1095 1266 663 1549 
248 366 455 497 1360 274 207 772 318 
570 850 1060 522 61 545 683 166 373 
753 244 558 1309 947 86 873 369 449 
983 949 302 891 829 465 523 18 406 
792 1083 1995 39 1000 1233 1323 1664 718 
1575 1193 133 2384 294 1413 1515 579 2280 
2118 437 1571 261 586 615 980 81 1395 
1429 1087 532 253 638 777 550 700 946 
664 300 205 34 1158 156 725 724 885 
235 56 1074 1045 1799 958 712 90 710 
375 631 394 703 975 1638 974 559 680 
734 458 462 1557 1164 1538 1144 1016 502 
1223 66 1237 779 201 190 1548 698 1064 
1441 99 219 123 1518 1658 867 199 227 
1092 1221 581 326 989 1103 646 239 879 
419 352 1228 230 2113 797 1428 129 172 
794 360 1255 1038 1698 1716 1363 1367 2093 
1937 2238 1562 1723 1869 1603 715 1476 1407 
1843 758 2293 1978 1475 1692 722 1906 1813 
1007 1584 4 548 1390 1096 1100 1948 26 
273 605 578 371 833 268 691 3188 910 
45 1136 1908 1772 3275 1827 1313 1380 955 
1052 2013 334 3168 596 3911 2141 1904 1023 
878 1936 1553 1139 2393 2997 2673 3346 1102 
1098 2533 1621 1753 231 539 793 15 992 
628 1890 1154 894 549 20 1651 647 2061 
1278 1405 191 1586 954 1585 1615 1986 454 
840 595 1226 1569 8 21 1203 1370 1089 
501 832 909 426 232 1535 629 1435 1640 
2011 1714 2470 2171 1662 599 1820 1388 1107 
1138 1307 2147 716 3853 706 1860 4160 5020 
4536 2194 1247 2658 3467 542 695 142 143 
872 97 693 616 392 404 333 189 1502 
1028 265 258 690 141 511 574 1443 650 
459 1447 139 1588 757 295 162 688 795 
1142 2010 416 322 356 402 858 871 161 
726 848 641 811 1044 655 43 1609 1878 
1397 1738 382 859 213 1993 526 1850 1828 
565 1434 1484 146 126 1254 182 1804 163 
1366 2209 1035 2647 820 1332 762 607 1331 
1024 551 834 451 678 469 1031 1001 721 
611 988 540 211 825 819 627 220 1080 
7 763 756 457 410 175 312 1151 481 
23 173 1387 931 892 93 932 180 272 
1111 387 489 350 1293 16 63 1036 518 
85 1311 165 1613 229 1837 118 895 1731 
1566 1344 339 1567 956 1384 1166 928 2210 
1472 1325 515 150 59 1118 357 808 153 
362 315 658 447 345 805 1770 860 132 
359 994 1275 1108 101 341 138 411 1051 
771 973 959 1913 1506 852 1479 613 1148 
2156 1851 496 1787 1786 185 1086 1348 1354 
1695 567 791 1889 720 1376 1137 2045 838 
863 1059 286 1385 1417 27 1450 476 2429 
1379 280 766 649 1565 1949 1262 836 70 
665 1929 1842 696 673 92 543 692 1219 
323 2960 495 856 1205 1104 1718 171 1980 
1123 774 264 351 634 433 1186 461 1377 
1105 342 177 238 823 1085 113 564 245 
897 919 728 1539 1654 676 560 1519 1925 
2083 1189 355 2157 1436 788 62 571 159 
699 524 409 42 1065 855 906 1537 746 
1499 471 1494 527 488 1713 54 512 467 
768 2711 1544 1287 1720 226 969 1520 912 
3170 1197 1063 1764 215 1938 174 415 784 
88 594 266 604 396 327 1248 2852 2601 
1285 71 1868 636 918 590 446 707 1725 
30 998 966 208 478 2793 1950 1368 711 
1968 105 1460 307 491 95 423 1131 270 
269 1159 2399 2020 2402 953 2142 1263 78 
1207 530 1 188 686 1645 1886 390 934 
434 765 473 938 267 2104 3083 122 5775 
4056 3090 614 5281 3713 4036 6070 2549 2424 
2595 4073 818 431 1492 4697 3248 5766 4055 
3440 2674 5018 5824 4679 4388 3997 3295 5931 
4843 4470 5850 5568 4671 6014 4473 5563 3117 
5472 5833 5709 5904 5891 4909 6058 4191 5677 
1823 5957 5980 1069 1715 1072 749 2169 144 
3538 1530 124 4628 537 810 4001 1099 4248 
5068 2215 3152 2625 4019 1299 1809 2535 2246 
1127 5430 1495 4426 2802 2167 2249 4222 2500 
1454 4207 4408 1545 5047 2847 2569 3078 3193 
761 3462 3894 3477 2240 2551 4757 3191 4639 
5910 5154 5610 385 1671 1217 1468 308 1040 
866 499 504 2358 1647 751 1117 652 3546 
2799 1399 845 65 1356 134 3027 1349 2098 
1126 2532 2307 1989 3401 340 3259 3108 335 
2504 1337 1420 668 849 116 2179 354 1187 
2152 929 2621 1627 2094 1761 2177 2117 1466 
2262 1541 3186 2516 2703 1957 1438 936 2761 
1678 2828 2405 1650 1315 2463 4400 1665 1206 
3578 2553 2666 2043 2603 2146 1717 200 58 
520 1477 196 669 1250 127 1392 140 529 
737 743 386 1945 651 799 1330 821 1347 
119 1214 813 2604 2492 346 1058 1290 770 
1427 853 1097 145 880 400 377 164 1281 
659 2772 667 877 2132 1773 861 1109 2127 
1412 28 2202 2453 2818 1594 1003 773 622 
482 1822 968 1149 635 783 1286 513 869 
1116 376 1635 754 82 1225 1442 135 381 
752 681 1668 798 733 626 807 841 1066 
1784 580 1050 38 945 674 1801 316 1192 
583 1872 660 2107 149 1614 1269 1162 306 
75 1547 1796 1341 281 31 1691 1706 1653 
528 915 2501 420 2449 1875 1670 1836 1782 
1478 1365 731 1005 25 228 824 111 440 
1931 582 221 1500 263 448 74 943 35 
1146 389 1008 1481 935 1181 321 1580 110 
492 3 5 642 1408 450 516 597 1445 
424 181 490 1009 1386 167 187 942 1301 
325 233 1318 487 421 1458 414 835 1211 
1056 178 1846 439 809 1179 2165 914 996 
971 6002 4887 5793 4446 3730 5155 3492 2720 
4969 4332 5353 5199 5139 3517 951 5977 3349 
5774 6001 1879 4571 3388 3478 5492 4356 3594 
5714 5287 5082 4484 5616 6008 5119 5708 4277 
5002 5861 2708 1561 2417 3524 2608 3494 3345 
2154 3131 2923 3649 2618 1333 4430 5740 3652 
5011 5400 4748 2920 2941 5223 4819 5670 5474 
5938 2430 4303 3838 4172 2064 4539 4107 5847 
3642 5171 5741 5246 4110 5527 5939 4735 4912 
4525 3736 5520 4675 5701 5521 3219 4938 5435 
5757 6024 4150 5424 5585 5046 5236 4787 1630 
4422 313 2481 1352 3918 3080 2642 4545 1381 
168 107 1689 3382 3606 3064 2391 2313 1871 
2912 4014 3681 5394 3960 2677 4917 4910 4924 
2954 5703 4598 5612 5301 3731 3603 4413 4901 
2995 3424 4546 4602 5158 3740 5099 3249 5647 
4178 5405 4338 4389 4711 4939 4986 4017 4261 
3963 5449 1076 960 544 47 1234 666 979 
689 52 254 1927 278 4514 4167 1600 2583 
1424 2297 303 1785 2291 2993 4726 1848 2351 
470 2335 2684 2867 3373 2486 2223 3863 3225 
1876 2281 2116 2879 3862 1916 2947 2789 3151 
2714 4158 2661 4436 4100 4188 2760 3563 3539 
3572 2933 3430 4531 3047 3084 1867 57 1027 
1617 311 397 517 3410 865 427 2268 184 
2536 1043 2633 79 2245 684 169 786 485 
1579 1378 3447 19 1883 76 1185 2099 1915 
1728 702 41 2522 575 96 621 1453 2436 
2354 2041 2865 1068 1661 2103 2699 1524 2242 
1383 3227 3859 2284 2018 1984 343 425 304 
317 939 679 198 1032 2379 240 1322 804 
2643 398 363 282 2640 2851 612 830 780 
505 464 277 291 1182 112 2596 2004 480 
1656 2381 907 890 670 1806 3051 2657 255 
4101 2432 3762 2570 5204 4541 5360 243 3962 
5248 4246 4368 4213 4198 3819 4950 4895 4166 
5800 5684 4974 3591 5808 5736 5630 5403 5650 
5928 5411 6065 5118 5075 5261 5699 5886 4723 
5869 6 1249 3402 3377 5764 4176 4032 2308 
2735 2829 5959 98 4117 3996 3836 5348 5195 
4063 4118 5344 4903 5280 5185 4058 5844 5557 
5066 4610 3742 5704 5381 5311 4874 5392 5786 
5692 4489 5414 5760 5514 5828 5767 5721 4407 
4330 6020 5300 5491 6018 1350 2458 3463 3022 
995 3632 3924 1258 1133 336 4561 3101 4519 
3873 5006 4076 4147 3043 3279 3845 2524 3566 
5037 4323 3861 4937 3655 3957 3437 3635 3812 
4145 3945 4582 4070 5369 1115 4494 4012 4580 
4405 4657 4605 6055 4653 4318 4523 5142 5166 
3611 3254 2288 1965 776 2296 2682 3949 3672 
4463 1011 91 328 1156 3395 2290 3811 3604 
1073 2585 2050 3434 3766 3122 2164 3614 2786 
2729 3799 3009 3787 2721 2203 1314 1457 320 
1075 1829 913 1747 370 2250 2396 662 2411 
1498 990 1954 69 1905 2023 962 2143 3129 
1482 1057 3016 3497 3024 6063 3700 4385 2563 
1078 2389 1523 1382 55 923 1865 1844 965 
1628 2059 1684 3281 2148 1854 3735 2940 2906 
2431 2962 1859 2332 1590 1953 2125 2189 1514 
1493 1997 2190 4420 2725 2407 2872 2987 2378 
589 1805 2614 2781 5831 2928 2425 1907 5840 
3017 3738 2891 4766 3037 2434 1121 976 2612 
2542 1808 2078 193 1701 2261 2234 1759 3561 
1840 553 1346 2144 2031 2738 2046 1215 2513 
2653 2447 2416 2456 1432 2348 2697 2617 2237 
1485 3002 1570 1909 2972 2016 1866 2862 2791 
3322 2663 2713 1763 2096 2566 1373 3297 3020 
4273 2466 3458 4647 2541 3211 3464 3030 3035 
4098 3023 2572 3602 293 1319 1242 2123 1231 
1389 2616 2519 1729 2000 442 2264 1636 2732 
374 2267 2076 2216 2543 2594 3155 3198 3216 
3797 3909 2796 216 3104 1026 682 40 603 
1463 2341 1400 2028 1751 429 1371 1288 509 
868 2129 769 1339 617 114 750 2455 1235 
1449 760 1030 1425 1679 2345 384 2491 444 
2224 2644 1343 183 2067 1251 2217 2579 3165 
2227 330 920 1619 250 1173 1264 519 1091 
2075 1779 89 1222 284 970 36 337 1077 
1932 2175 1513 1992 884 1917 1508 1527 1295 
2111 1184 1767 857 2185 1041 1336 507 2092 
1529 2376 1531 1280 1194 2850 2737 1960 50 
1239 9 2007 453 1991 993 2159 2309 1525 
2037 463 1707 2502 2366 2680 2730 1930 2958 
1067 1577 2814 2212 5074 2622 1975 2033 2734 
2380 1732 694 408 1719 2260 218 1900 2452 
927 329 2201 1232 1113 203 422 2057 2350 
1802 1568 740 661 247 2315 1990 1268 2091 
1161 1345 2058 1648 1526 1536 283 2609 1587 
299 2581 2176 1754 2200 1838 2333 2174 1912 
2733 2170 128 2765 2830 3328 2021 3801 609 
2736 2813 2525 249 2641 2337 2686 3421 2211 
1198 538 1631 1042 1892 1775 1841 653 1327 
358 1134 1488 1999 1398 432 1020 886 815 
1657 1082 1210 2406 2321 1852 1227 842 2252 
1741 1625 1853 1289 2229 2155 1430 982 1238 
1471 2559 1903 1359 2982 1677 2222 2531 3075 
2610 2027 2555 1444 1304 1245 1676 2226 2323 
1542 2124 2507 1364 2247 2178 2320 2667 1888 
2881 3280 2756 1324 2314 1140 2468 2362 2370 
1660 1602 2025 3590 1415 977 2329 2443 331 
1208 1241 1901 5048 1800 864 1964 1942 2413 
2119 2651 2540 2270 1792 1922 2192 2620 3187 
2890 1918 3073 4375 1578 1939 3331 2773 2419 
1270 3262 2963 3706 3291 2139 2628 2592 1338 
1788 2488 3592 2285 1487 2882 4121 2748 3067 
2978 2745 2994 3189 1749 2068 3535 2917 2561 
4103 1928 1810 4281 3149 2115 2919 130 4712 
2977 4285 4351 1705 3359 4861 2747 4390 3774 
4792 3765 2606 4490 2886 5001 4083 4090 3126 
3532 3303 3223 541 1213 1963 1921 2931 1175 
1342 514 87 395 2482 5508 1292 1422 1940 
1750 1593 1564 1283 1037 978 3526 2462 4497 
1199 640 1480 2272 1877 1814 1411 1982 1491 
3014 5581 3455 2243 2082 2834 2515 137 2754 
2605 2554 3196 2969 2705 4386 1229 2742 2186 
3763 3324 3950 2102 3071 5293 3062 5012 887 
677 1328 1994 1150 1124 3302 2514 2269 1620 
1744 1303 2051 1642 1122 806 2085 1817 1899 
2518 2014 1461 1933 2807 2258 1934 3362 1898 
3031 2277 2195 1855 1791 1598 739 4593 3099 
2302 2283 2743 3586 1546 3074 930 2671 2327 
3059 883 1781 2840 2755 2403 2193 3489 755 
1558 1437 1599 898 1178 310 2248 922 252 
1321 1372 1663 1114 319 1666 2017 1267 484 
991 1639 1856 1244 2956 1163 997 1765 1659 
1209 1743 1815 1271 2577 643 1305 2768 1783 
1711 1252 1061 1183 1465 2151 2401 1196 2048 
1282 1774 2114 2066 1171 3205 1955 2889 3715 
3175 2675 2521 2511 3174 2692 2259 3012 2088 
882 403 1326 405 1700 1618 843 1589 950 
2145 1079 194 1699 1135 2052 2298 2153 1256 
697 1795 940 2567 1862 1393 1794 1456 2106 
2255 1055 2483 1824 2084 2254 831 1294 2001 
2331 1845 1129 2557 1946 1062 1634 1667 413 
2377 2024 2365 1165 1353 2547 2032 2517 1961 
2367 1551 2095 1776 1236 2412 2346 1088 2976 
2305 1694 2550 2316 1550 2670 2086 2584 2441 
2580 2182 2552 2273 2883 1641 2479 2359 964 
1394 1308 1623 916 1512 257 1595 645 730 
902 654 1919 601 1157 475 1297 1474 365 
577 452 1996 1591 1029 705 3011 948 1894 
1973 610 2008 1683 1200 933 1049 1606 2710 
1839 1760 2505 2528 1516 1637 862 2460 251 
2582 2343 1002 2388 2574 3360 1790 1911 2357 
1629 1358 2571 3627 170 900 125 3536 2105 
546 1220 2669 1501 623 1696 1039 2166 3121 
3250 593 1259 1374 474 3150 77 531 671 
147 1947 2339 729 1601 2751 2588 1190 985 
675 921 106 1090 1406 3397 1757 1624 926 
767 2520 2049 3319 633 1608 648 2400 2722 
2253 1284 1375 1858 736 1819 893 2087 1451 
2035 2437 2545 3332 1489 1279 1298 967 899 
759 937 555 288 554 120 870 5773 4720 
5486 3422 5663 5324 4137 5926 6064 4421 5334 
4443 5556 6017 5779 5900 5567 4358 3109 5815 
5805 5901 5799 5930 5052 5141 5173 5073 4880 
5987 5623 5539 4459 5576 5882 4534 4335 3607 
5605 5464 5266 5690 4976 5794 5635 5788 5538 
5728 3837 3618 2395 3792 5220 5946 5994 4651 
5446 4728 5229 5986 5737 5804 4700 5846 5231 
3648 5208 4310 4848 1923 4319 5432 3160 3045 
3922 3171 4965 3507 5342 3348 6038 3822 3292 
4105 3926 4203 4028 5027 5292 5196 5029 3892 
5494 4761 4807 4003 5310 5150 4758 5877 5631 
4425 3553 3630 5163 4771 4862 4452 5856 5858 
4595 3870 4274 4522 5551 3745 4088 4226 4500 
4237 4782 5123 3940 5543 5447 6006 4604 4660 
4181 4612 3816 4855 5878 5565 5420 5592 3021 
3335 3053 1864 1687 4696 2626 3623 3050 3970 
2360 2191 1830 2128 2438 3238 3179 3628 4872 
1755 3192 2968 2257 2723 2619 2218 3975 4278 
2390 4164 1972 2631 3625 2627 3300 2861 3645 
2496 2770 2414 4592 3598 5085 3181 3815 2392 
3375 4382 3394 2948 3407 3605 3143 3414 3076 
2196 2926 3136 4556 2326 3135 4693 3817 3680 
2415 2949 3533 4814 3574 3318 5008 430 2183 
2168 324 1402 1831 1881 2784 2480 2336 2911 
136 1505 2408 2353 2815 2312 1722 1924 1616 
1702 2587 2797 2019 1910 2613 748 2440 3209 
2090 2292 1626 3419 2896 2849 2383 1727 1857 
3802 2845 3333 2967 1825 1170 3001 2908 2980 
1896 3848 2638 3000 2795 2660 2900 1112 3624 
2864 2646 4106 1409 157 1710 1736 1094 338 
1019 1983 2029 2866 592 1497 1985 1748 2162 
917 1622 1335 1423 2100 3154 1758 1230 2063 
1160 1204 787 2573 1895 2624 1780 1688 742 
1712 2398 2172 1483 1257 2239 1803 1818 503 
1969 1724 1419 972 2904 1974 2877 1735 3353 
1418 1887 536 121 2055 1861 2073 2778 2465 
2311 2205 2679 3534 2779 51 2131 1528 963 
202 1125 802 379 847 1582 1496 826 486 
1752 987 1046 1272 361 844 80 1847 566 
109 1556 1959 445 1240 1926 2687 812 1101 
236 1952 2112 506 600 2282 1010 2219 246 
2471 1172 29 1509 1979 1191 3234 2324 1216 
984 1967 2038 2197 747 1033 2228 1583 1756 
1071 1340 22 1646 2752 1503 2120 2137 53 
839 24 875 1403 5359 5825 6028 5515 5951 
6048 4209 5976 4860 6031 5993 4367 5339 5604 
4417 5599 5100 5932 5967 5722 5966 4659 5105 
5143 4461 5731 5271 5213 5571 5883 5356 3696 
5975 4201 6000 5466 3881 5898 5744 4650 5999 
4037 4900 5256 5252 5608 5398 5806 5660 5619 
5923 5178 4616 5138 5308 4157 4851 4299 4719 
5017 5409 5745 6040 6050 4365 5839 6053 6007 
5519 4972 5177 5335 5669 5227 5870 5719 5813 
4833 5724 5674 5875 6029 5836 4997 5235 4995 
5470 4119 6023 5817 6037 4677 6022 5288 4977 
4568 6068 5025 5535 5625 4617 5475 5996 5028 
5189 5676 5501 5404 4229 5948 5964 5678 6060 
4235 4266 5144 5153 5627 4512 4727 5590 5909 
5366 5224 5863 4423 4889 5587 4513 5984 5845 
3826 4661 4759 3660 3325 4197 4049 4232 4665 
4186 4669 4656 5390 5198 3865 5389 5471 3142 
3409 4925 3069 4954 3457 3954 4021 3872 5523 
4256 3903 4668 4350 4878 3776 4403 5791 4562 
5570 4827 5637 5387 5230 4946 5201 4263 4973 
4124 4170 5167 5960 4781 4552 5192 5137 4813 
5933 3164 3451 5718 4102 4891 5243 4845 5259 
4304 4795 5145 5415 4981 4583 4540 4966 5889 
4773 5903 4410 4684 4530 5944 4929 4340 2300 
3393 2373 3709 2724 3449 3504 2812 4692 2899 
2476 2950 3127 3898 2140 2798 4486 4127 3221 
5393 4317 5298 4211 2846 3285 2562 2913 3712 
3453 3525 3288 3601 3941 3499 3433 4242 4154 
3366 5096 5552 3998 4427 5067 3790 4329 4200 
4041 3991 3443 4632 2648 4142 2607 4547 3392 
4875 4060 3780 3286 3701 5234 5862 2632 2880 
2056 3134 881 2325 3361 4268 1769 2484 2074 
2548 4006 2649 2109 3885 2121 3469 2787 3355 
3347 1885 2374 3471 2158 3460 4130 3549 2854 
3141 4016 2925 3626 2409 2421 2231 1734 3771 
3725 3431 2964 3343 4424 3905 1762 4260 3132 
2902 4334 3184 3659 3231 3019 2922 3520 3446 
3294 3220 2888 2538 2265 3921 5516 3907 3844 
3350 4133 2426 3639 3354 4313 2433 2080 3106 
1467 2375 2110 2071 2478 2499 1834 1742 1897 
2915 2306 1014 2718 1981 1771 1672 2991 3038 
2831 1573 3237 2746 1649 1446 2652 2984 3380 
2126 2934 1935 3521 3041 2494 2615 2349 3379 
3562 2893 3311 6003 4913 5498 5522 3778 4991 
5816 4214 5458 5600 5460 4585 4907 5667 5383 
4852 5792 5351 5712 5713 5730 6049 5888 5707 
5241 4846 5485 5245 6051 5410 4756 4732 4387 
5015 4439 5336 4432 5469 5207 5908 4987 5907 
5985 4346 5110 4701 5624 5896 5222 5550 5998 
5140 5763 5168 4383 5818 3542 5927 5322 5879 
5762 4821 5317 5379 5936 5345 5340 5206 5914 
4369 4393 5917 5526 5941 4575 4837 5871 5575 
5694 4165 5320 5548 5500 5651 5906 5961 4856 
5997 5397 5106 5686 4698 5354 5349 5200 5010 
5070 4521 5513 5327 5857 4775 5036 5573 5490 
4175 5979 3968 3981 5122 5094 3267 4956 5333 
5614 6045 4643 4599 3537 4960 3576 4812 3936 
5013 5925 5307 3242 4378 4342 5244 5969 5852 
4120 5428 5422 3068 5355 5785 4947 5782 4683 
5083 4893 3695 6039 3684 4640 5072 4998 5132 
5899 5666 5478 5226 3895 3871 5827 5120 5101 
4255 5747 3741 3567 3479 4301 3775 2821 3543 
3274 4314 3661 4162 3166 3864 3513 4777 3777 
4234 4048 4217 3727 3716 5688 4487 3791 4584 
3072 4112 4039 4752 3671 4667 3631 5589 4399 
3843 3261 4690 3988 5974 3006 2556 3376 2946 
3573 4608 3705 5778 2838 5553 4658 4983 3133 
3185 4996 3066 3408 4267 4715 4394 4936 3585 
5765 4736 2457 3650 2560 2726 3569 4506 3678 
2537 5270 4948 3982 3374 5190 5209 5251 5218 
4532 3005 4984 5880 4050 2386 3013 4254 5937 
6033 5653 4830 3638 4896 3256 4094 3450 3664 
3293 5053 4042 4680 4434 6005 5365 4943 3944 
5528 5559 5212 4244 4327 4828 3485 4606 5406 
3222 3979 3803 3733 4466 4029 3290 3470 3558 
4224 3102 3798 3252 2364 3210 2992 4040 3384 
4817 3689 3784 5583 4908 2065 4760 3239 2927 
3475 5378 3714 4456 5958 5254 3327 4824 3930 
5000 3381 3910 3749 3939 4839 4205 3296 4184 
4633 4173 4433 3619 3860 4629 4482 4148 4292 
3646 4353 5169 3548 5835 4810 3516 3699 4648 
4520 5662 5380 3750 4695 4927 2568 4239 5640 
2053 5595 4786 4355 5659 5043 3882 5217 1863 
2009 2274 2578 3418 3356 3707 2759 3925 103 
2597 2905 2820 1807 3486 4384 3480 1970 5962 
5395 4298 2295 4284 4538 2188 5971 1448 3847 
3115 3224 2469 3540 3061 4169 2495 2892 2916 
3308 1821 2744 3476 2937 2134 2944 2278 3753 
4183 3746 4745 5172 3283 4847 4238 5698 3178 
3880 2873 4474 3519 4371 3137 3890 5375 4533 
4397 5720 5866 2728 5156 2817 3172 2101 3015 
4832 3197 2832 2498 2451 2988 3086 3123 3125 
4155 3363 2701 2241 2512 2999 3426 4187 5019 
4219 2951 3063 4347 5639 3807 3677 4109 3048 
2523 5286 4259 2690 2758 4796 5076 2464 5893 
2965 4079 4857 4898 3032 4724 4454 2069 3758 
4508 5483 2801 4283 4904 3827 3806 3531 4517 
5417 4199 3352 3560 3365 2173 4744 2539 2012 
1532 3570 2394 2319 1746 2427 2790 2387 3371 
3357 2694 2271 2827 2039 2235 3269 5299 2932 
2473 2207 5748 2750 4182 5798 3891 4321 4826 
4765 5532 4065 3413 3510 2472 3214 3934 5041 
4800 4190 4361 2792 2696 3095 1560 3156 3025 
3992 1943 3448 3358 2576 4271 3857 3769 3372 
3928 3551 3840 4193 3708 4645 4687 2044 3465 
2860 4678 4230 3846 2678 3245 5848 2369 3314 
5250 5268 2998 5440 2903 3886 5807 4881 5038 
5978 2816 3370 3529 3788 4502 3966 5628 3461 
3878 3060 3444 2935 3897 2564 4808 3118 3622 
4730 4143 3579 5626 4655 2970 3472 3908 4673 
4914 6047 5385 3230 4135 4297 4095 4637 2645 
3505 3902 5194 2639 3232 3146 822 2445 2979 