# vtk DataFile Version 4.2
Generated by LIGGGHTS
ASCII
DATASET POLYDATA
POINTS 6000 float
-0.0234677 -0.00303801 0.0130282 -0.0155711 -0.0180851 0.0140323 -0.0125074 -0.0202877 0.0141791 
-0.00992474 -0.0217185 0.0142587 -0.00901294 -0.0183547 0.0143845 -0.0107912 -0.019277 0.0144139 
-0.00848477 -0.0203297 0.0143994 -0.0107877 -0.0172173 0.014436 -0.0163903 -0.017372 0.0176627 
-0.0140981 -0.0192395 0.0148162 -0.013371 -0.0173403 0.0147319 -0.0153754 -0.0182848 0.0160389 
-0.0113308 -0.0210989 0.0155814 -0.00983269 -0.0198619 0.0161004 -0.0123461 -0.0188607 0.015771 
-0.00871404 -0.021547 0.0160278 -0.00829428 -0.0185394 0.0162678 -0.010409 -0.0179762 0.0164429 
-0.0159751 -0.01781 0.0200528 -0.0139092 -0.0193879 0.0169224 -0.0104737 -0.0215051 0.0173747 
-0.0122609 -0.0204861 0.0172717 -0.0106127 -0.0196032 0.017991 -0.00864474 -0.0198935 0.017712 
-0.00862974 -0.0222404 0.0179386 -0.0122217 -0.0184373 0.017745 -0.00859639 -0.0173057 0.0178873 
-0.0138973 -0.0174206 0.0173213 -0.0150201 -0.0186204 0.0184908 -0.013379 -0.0197419 0.0188219 
-0.00983765 -0.0217171 0.0194497 -0.0116705 -0.0208951 0.0191788 -0.0101031 -0.019804 0.0201218 
-0.0117983 -0.0188457 0.0196641 -0.00823995 -0.0205294 0.020203 -0.00997506 -0.018076 0.0191217 
-0.0134005 -0.0177157 0.0192535 -0.0144161 -0.0190144 0.0203969 -0.0127786 -0.020152 0.0208724 
-0.0110631 -0.0212689 0.0211018 -0.00920113 -0.0220048 0.0213276 -0.00926522 -0.0183231 0.0212895 
-0.0128046 -0.0181517 0.0212579 -0.0109903 -0.0174198 0.0208202 -0.0115745 -0.0168843 0.0189225 
-0.0143608 -0.0169448 0.0208712 -0.0080238 -0.0224048 0.0143469 -0.00696144 -0.0190225 0.014428 
-0.00153627 -0.0217997 0.0144242 -0.00500916 -0.0195233 0.0144174 -0.00399639 -0.0234815 0.0143556 
-3.04339e-05 -0.0238883 0.0143819 -0.00745136 -0.0170614 0.0144119 -0.00810127 -0.0185969 0.0196861 
-0.00793427 -0.0225161 0.0198661 -0.00658703 -0.0210165 0.0145169 -0.00606248 -0.0229565 0.0144745 
-0.00459349 -0.0214746 0.014557 -0.0020865 -0.0191003 0.0146797 -0.00201677 -0.023789 0.0146592 
-0.00309067 -0.0221994 0.0156692 -0.003775 -0.0181853 0.0152484 -0.000347645 -0.0177282 0.0154484 
-0.000149702 -0.0196025 0.0147322 -0.00550288 -0.0175073 0.0144879 -0.00215132 -0.0170832 0.014846 
-0.00718683 -0.0227991 0.0163604 -0.00720539 -0.0202256 0.0163073 -0.00374131 -0.0202042 0.0158735 
-0.00590339 -0.0187186 0.0160989 -0.00500951 -0.023343 0.0162328 -0.00560944 -0.0214336 0.0163078 
-0.00173636 -0.0205807 0.0160246 -0.00238388 -0.0178971 0.0167765 -0.00319122 -0.0236501 0.0170733 
-0.000746251 -0.0190396 0.0169189 -0.000388263 -0.022853 0.0162837 -0.00487228 -0.0169649 0.0164271 
-0.00697172 -0.0170655 0.0166262 -0.00709918 -0.0186311 0.0178757 -0.00674284 -0.0229342 0.0183146 
-0.00561841 -0.0199676 0.0177229 -0.00193273 -0.0221096 0.0173164 -0.00393619 -0.0214784 0.0174064 
-0.00418062 -0.0187032 0.0171372 -0.00269138 -0.0199311 0.0176629 -0.00142731 -0.0239312 0.0181777 
-0.000878849 -0.0206265 0.0181491 -0.00479187 -0.0233868 0.0182432 -0.00537848 -0.0177618 0.0184346 
-0.00717828 -0.0209553 0.0185619 -0.00623411 -0.0193222 0.0197037 -0.00584023 -0.0232158 0.0202242 
-0.00529887 -0.0215631 0.0188888 -0.00310028 -0.0225463 0.0189129 -0.00285741 -0.0184067 0.0189795 
-0.00410669 -0.0199681 0.0190795 -0.00251687 -0.0208873 0.0198736 -0.000833571 -0.0180962 0.0190303 
-0.00193713 -0.0238347 0.020229 -0.00451528 -0.0183283 0.0201527 -0.00388808 -0.0235203 0.0205363 
-0.00114791 -0.0222664 0.0192652 -0.000556466 -0.0205587 0.0201278 -2.30131e-05 -0.023889 0.0196388 
-0.00643356 -0.021329 0.0205196 -0.00421874 -0.0215518 0.0207334 -0.00187638 -0.0191262 0.0205833 
-0.00526924 -0.0199341 0.0213563 -0.0029942 -0.0175942 0.0212258 -0.000873241 -0.0174295 0.0209217 
-0.00217287 -0.0220984 0.0214296 -0.00019692 -0.022258 0.0211223 -0.00595376 -0.0170514 0.0206999 
-0.00703221 -0.0168025 0.0190318 0.00562831 -0.0231929 0.0144503 0.000503598 -0.0216396 0.0145207 
0.000218286 -0.0207286 0.0164228 0.000449758 -0.0188757 0.0205232 0.00179022 -0.0237902 0.0152097 
0.00178162 -0.0201196 0.0147906 0.00247448 -0.0219916 0.0146488 0.00611945 -0.0179233 0.0145528 
0.004509 -0.0195985 0.014656 0.00642184 -0.0213548 0.0144909 0.00369377 -0.0236779 0.0145992 
0.00812434 -0.022477 0.0146219 0.00249061 -0.0182569 0.0146177 0.00443195 -0.0215917 0.0145089 
0.00428467 -0.017724 0.015325 0.0072872 -0.0195503 0.0145498 0.00124563 -0.0166903 0.0147509 
0.000415537 -0.0175128 0.01752 0.000799083 -0.0238462 0.0176268 0.000620774 -0.0193193 0.0183556 
0.000592108 -0.0219715 0.0183175 0.0011807 -0.0189483 0.0163327 0.00150942 -0.0222585 0.0165073 
0.00277783 -0.0237392 0.0169667 0.0031647 -0.0192255 0.0162336 0.00238992 -0.0173574 0.016474 
0.00342497 -0.0216633 0.0164747 0.00590606 -0.0192846 0.0160553 0.00667625 -0.0228788 0.0161923 
0.00537557 -0.0212295 0.0163554 0.00592785 -0.0172105 0.0166798 0.00466644 -0.0234363 0.0163654 
0.00737308 -0.0210062 0.0163073 0.00764562 -0.0178851 0.0158999 0.00196741 -0.0204909 0.0173706 
0.00257794 -0.0222237 0.018269 0.00414009 -0.0178393 0.0173188 0.00459706 -0.0197786 0.0175152 
0.00744623 -0.0192908 0.0173333 0.00775668 -0.0225848 0.0179974 0.00248182 -0.0186244 0.0181143 
0.00626229 -0.0207298 0.0180858 0.00583387 -0.0231348 0.0179928 0.00449525 -0.0216614 0.0181817 
0.00589056 -0.0185424 0.0184086 0.00140445 -0.020551 0.0197297 0.00195873 -0.0237823 0.0193637 
0.00132896 -0.01749 0.0193773 0.00394672 -0.0236573 0.0185937 0.00411892 -0.0183887 0.0193258 
0.00321832 -0.0203017 0.0189253 0.00507463 -0.0201263 0.0196551 0.00360665 -0.0219573 0.0199834 
0.00634903 -0.0220633 0.0196234 0.00697828 -0.019542 0.0198399 0.00243575 -0.0188898 0.020283 
0.00498351 -0.0233741 0.0202922 0.00304273 -0.0167759 0.0186325 0.00504191 -0.0167223 0.0187124 
0.00828923 -0.0224527 0.0199422 0.00817957 -0.0206082 0.0186486 0.00175631 -0.0222811 0.0206715 
0.00579361 -0.0181723 0.0207027 0.00312052 -0.0237183 0.0212593 0.00274196 -0.0206282 0.0212222 
0.00416618 -0.0192167 0.0212484 0.00322049 -0.0170491 0.0209233 0.00516682 -0.0214681 0.0211375 
0.00709122 -0.0209069 0.0213432 0.0125862 -0.0188254 0.0144417 0.00876045 -0.0201525 0.020513 
0.00902628 -0.0206847 0.0146999 0.00906472 -0.0186246 0.014641 0.00918868 -0.0167032 0.0152837 
0.0106345 -0.0213526 0.0157394 0.0107683 -0.019678 0.0146326 0.0108157 -0.0176567 0.0145367 
0.0145756 -0.0190204 0.0145714 0.016126 -0.0176734 0.0145815 0.0143458 -0.0167667 0.0144408 
0.00897752 -0.0222376 0.0164514 0.00914853 -0.0202969 0.0169241 0.0123674 -0.0203107 0.0159752 
0.0142276 -0.019285 0.0165257 0.0119874 -0.0179866 0.0161583 0.0166264 -0.0171722 0.0165136 
0.014114 -0.0172884 0.0165303 0.00972695 -0.0218371 0.0183408 0.0107274 -0.0191086 0.0172318 
0.0126504 -0.0193762 0.0177615 0.0113976 -0.0209394 0.017689 0.0155451 -0.0182722 0.0178119 
0.0125959 -0.017178 0.0178891 0.0100469 -0.0199561 0.018953 0.0140702 -0.0191263 0.0191991 
0.0117135 -0.0207891 0.0196805 0.0120249 -0.0188162 0.01958 0.0159135 -0.0178966 0.0198738 
0.0127507 -0.0171792 0.0204715 0.0143152 -0.017153 0.0189269 0.0100764 -0.0216575 0.0204433 
0.0147436 -0.0188877 0.0211669 0.0131128 -0.0200191 0.0208883 0.0105877 -0.0194076 0.0208485 
0.0147178 -0.0168305 0.0212077 0.0168211 -0.0166131 0.0211244 0.0169443 -0.0168466 0.018488 
-0.0170196 -0.0165976 0.0137094 -0.0175824 -0.0130685 0.0140974 -0.0210036 -0.0112791 0.0138308 
-0.0184735 -0.0151789 0.0137738 -0.0177198 -0.00963543 0.0140646 -0.0198251 -0.00963468 0.0136945 
-0.0219795 -0.00921727 0.0135847 -0.0196943 -0.0133746 0.0145541 -0.018926 -0.0114738 0.0142961 
-0.0188462 -0.0146204 0.0160211 -0.0181602 -0.0125558 0.0159841 -0.01678 -0.0141969 0.0158604 
-0.0172375 -0.0162696 0.0159784 -0.0203579 -0.0119946 0.0162385 -0.0175589 -0.0106425 0.016036 
-0.0215737 -0.0103847 0.0158694 -0.0193438 -0.00967837 0.0161185 -0.0168661 -0.0115552 0.0177131 
-0.018097 -0.0133718 0.0179119 -0.0189154 -0.0112995 0.0175125 -0.0210295 -0.0110094 0.0178472 
-0.0166677 -0.00952518 0.017709 -0.0172701 -0.0164452 0.0192511 -0.0181056 -0.0154811 0.0176792 
-0.0200366 -0.0129142 0.0181019 -0.0169317 -0.014452 0.0191999 -0.0191903 -0.0143601 0.0193328 
-0.0176874 -0.0104281 0.0191877 -0.0196979 -0.0100741 0.0190462 -0.0218246 -0.00987552 0.0194285 
-0.018885 -0.012006 0.0194753 -0.01821 -0.0154544 0.0207301 -0.0166975 -0.012369 0.0195344 
-0.0179068 -0.013454 0.0207193 -0.0199486 -0.0131033 0.0207851 -0.0173626 -0.0111915 0.0210125 
-0.0208417 -0.0115982 0.0198098 -0.0195121 -0.0108137 0.0210921 -0.0215776 -0.0103912 0.0213887 
-0.0203993 -0.00889293 0.0205393 -0.0175281 -0.00856858 0.0161363 -0.0185647 -0.00877436 0.0178507 
-0.0206471 -0.0087373 0.0175973 -0.0183487 -0.0088458 0.0202458 -0.022388 -0.00848765 0.0207731 
-0.0164085 -0.0111505 0.0141921 -0.0159898 -0.014705 0.0139508 -0.0152481 -0.0127935 0.0142176 
-0.00980515 -0.0154643 0.0144197 -0.0132905 -0.0132934 0.0141973 -0.0122622 -0.0114562 0.0143236 
-0.0138044 -0.0152242 0.0143134 -0.0102768 -0.0117006 0.0142175 -0.0118074 -0.015468 0.0143911 
-0.0113013 -0.0135128 0.0142413 -0.0092555 -0.0134773 0.0142085 -0.0146671 -0.0100357 0.0140676 
-0.0107921 -0.00975039 0.0144544 -0.0127379 -0.00926911 0.0141951 -0.00883651 -0.0102625 0.0145523 
-0.0139642 -0.0116812 0.0153965 -0.0161171 -0.0153991 0.0174326 -0.0158821 -0.0121326 0.0160557 
-0.0152901 -0.0163252 0.0154461 -0.00896656 -0.0166978 0.0157718 -0.0147249 -0.0139541 0.0158926 
-0.0119334 -0.0167507 0.0160089 -0.0108244 -0.0148043 0.0160247 -0.00887934 -0.0117555 0.0159274 
-0.0126588 -0.0139769 0.0159779 -0.0106709 -0.0127097 0.015972 -0.0104893 -0.0106399 0.0163599 
-0.0137099 -0.0156199 0.0164681 -0.00927556 -0.0138498 0.0168711 -0.0124743 -0.010391 0.0161031 
-0.0156598 -0.00998497 0.0159608 -0.00951187 -0.0088929 0.0160188 -0.0139158 -0.00900325 0.0157946 
-0.0160108 -0.0133658 0.0177685 -0.0101546 -0.0161767 0.017321 -0.0122895 -0.0121715 0.017017 
-0.0120191 -0.0154799 0.0175538 -0.00878604 -0.0102486 0.0173762 -0.0141659 -0.0105068 0.0171908 
[...]
POINT_DATA 6000
FIELD FieldData 7
id 1 6000 int
1823 941 508 561 224 837 1053 1141 1426 
1169 441 1260 534 587 632 186 2497 393 
1130 727 1048 1047 708 204 1265 874 738 
285 888 104 803 618 1155 1167 854 407 
84 1576 1128 800 1261 2160 1703 468 562 
210 49 1017 944 195 14 608 1132 100 
1015 83 1455 1416 719 68 477 12 1464 
158 1300 904 391 896 785 1473 547 1704 
889 1739 789 234 624 1095 781 1180 2040 
790 296 1789 64 957 367 1674 630 572 
1685 1643 364 1243 217 2 1690 981 1273 
1988 1174 828 349 2081 2220 1025 148 1766 
2136 656 1510 1633 1680 1884 2097 37 412 
1176 2163 1655 443 108 227 533 986 556 
297 1081 192 300 298 980 1012 214 1504 
1605 287 428 206 179 1517 73 1242 687 
591 419 1737 1540 1054 289 1914 1439 620 
717 1555 1202 1543 222 714 348 1147 585 
458 1153 525 1733 2612 193 1201 332 2078 
17 48 1869 33 483 2261 435 314 1486 
1552 1291 1554 1357 1136 1319 13 1255 123 
117 230 1367 955 605 26 305 256 326 
876 172 3168 2013 1188 794 46 216 1553 
331 722 3104 637 2616 1810 1942 4351 438 
3774 2519 293 4792 3149 3346 1212 1753 1585 
1154 894 1651 647 539 1714 595 1278 701 
817 628 21 4536 909 501 1226 1203 8 
832 260 588 1569 372 1574 1307 1640 1435 
1535 1793 232 908 1662 1107 629 1138 1860 
2147 2011 5020 3853 541 1921 1890 552 793 
456 176 143 231 399 142 404 301 2061 
1443 1502 97 992 685 954 569 353 549 
961 383 690 102 1317 418 151 1004 872 
15 1447 141 840 223 154 846 459 191 
1405 521 598 380 2010 295 1588 493 1106 
426 494 1120 131 650 901 416 32 1089 
713 983 1609 816 716 1452 344 563 606 
782 155 275 565 43 161 1370 1254 333 
848 1434 67 479 1332 741 772 498 259 
1070 500 1360 663 1395 762 497 946 274 
1429 570 551 248 615 850 455 207 1266 
366 584 522 61 753 1549 724 1060 457 
819 1233 655 318 931 1158 885 1110 558 
166 545 683 373 1275 156 235 710 237 
244 829 891 1309 792 1323 449 1638 406 
949 462 975 1799 63 873 523 302 465 
1083 718 133 947 734 261 892 712 703 
974 190 777 279 700 1658 219 1103 253 
1064 532 56 638 99 115 639 879 1087 
581 550 1518 680 1045 958 81 664 1698 
1428 1716 725 352 394 715 375 631 1562 
1074 90 2157 1407 779 1476 559 1813 1369 
2418 201 1843 1964 488 2329 239 1092 578 
129 1007 867 2113 360 199 989 1390 1038 
1096 273 1772 1827 3188 797 2093 327 2293 
1228 1603 1221 1978 1723 1904 1139 2793 2238 
878 1948 1908 1363 1937 1100 5048 1692 334 
2192 3073 4281 4375 2393 1475 1906 1065 2413 
758 2443 1241 2890 257 4121 3262 596 4103 
833 371 2141 1052 1098 1380 1023 691 1313 
1936 2606 3275 1621 2399 3911 2673 2115 1928 
1705 1102 2997 2402 4390 2977 2886 4502 3765 
4285 4083 5001 3359 3303 3788 3532 4861 122 
3083 3997 2595 6014 5833 3090 818 4470 6070 
5904 3467 2424 5556 5018 1247 4055 2658 5324 
5850 4388 2674 454 3295 3422 5824 5931 4843 
2470 3117 5773 5987 5926 5334 4443 5472 2931 
4160 5508 5930 5012 5539 4880 4358 1804 4497 
5882 5946 3526 5815 3607 5073 5464 5231 4335 
5805 1492 2194 392 693 1986 616 189 4697 
3713 265 511 1388 1615 4001 810 431 614 
1028 20 695 3152 162 574 1069 1495 1809 
1127 4426 1586 795 139 726 688 757 356 
322 2246 213 402 4222 2167 2171 858 811 
641 859 1397 1878 2647 4207 2535 1993 1738 
182 1142 3302 1850 2209 1545 2240 3171 2482 
3892 537 1001 385 607 469 1031 258 540 
451 678 825 611 834 211 1671 808 1040 
721 627 526 515 7 1024 220 763 1151 
175 34 150 335 1399 845 1044 229 354 
410 312 1331 1770 756 2500 481 994 173 
93 1387 165 932 16 272 382 1080 1337 
1613 1293 387 350 23 2156 1111 180 118 
489 1036 1311 1376 1166 895 518 1566 1438 
1384 85 1731 1366 59 132 1219 447 1385 
988 345 495 692 205 362 646 315 658 
1441 673 357 805 856 1118 1913 1348 153 
4 634 897 613 959 863 341 101 411 
860 1108 973 238 1186 564 138 1051 771 
1557 1085 676 852 2045 2083 1851 1506 1086 
1786 1479 698 1787 1695 496 720 1148 355 
1354 649 1565 1417 1889 1137 791 471 906 
788 567 185 1450 476 2429 1499 770 543 
1104 1584 174 3170 323 1205 1980 88 1718 
351 30 1285 2960 171 268 1248 919 177 
42 2601 1105 571 433 1377 478 461 1654 
1368 1263 855 491 1436 1539 342 1537 768 
2020 113 1189 728 1925 1713 1207 746 62 
560 1308 1519 1494 1501 548 2711 125 527 
1512 902 1996 730 1 475 1394 1624 1601 
1287 1208 916 1919 1591 2008 1090 1063 215 
1460 1197 45 1938 953 1764 1725 594 71 
2852 707 2669 1868 105 998 1950 1968 910 
966 95 2533 2105 2166 2142 1220 1645 3250 
2520 130 78 3536 474 3121 1374 3319 1947 
3397 1406 729 147 2339 2751 3150 767 3223 
2400 1190 633 2588 926 1608 1375 675 985 
77 2545 2437 1284 1819 1451 593 1259 784 
1886 307 5353 5957 5793 3730 6001 5775 4671 
5774 5287 2549 5155 5623 5677 4137 5486 6028 
5891 4473 5567 4679 4909 5709 6064 4976 4421 
5141 6058 5901 5737 6031 4720 5052 5779 5788 
6017 5900 5605 5538 5994 5799 5229 5576 4728 
4459 3648 4834 5208 5794 5569 5266 5635 5804 
3258 5125 3792 4959 5846 4961 5446 4801 4674 
4776 5429 4370 4807 5607 5554 6052 5326 5281 
4887 4036 4056 5068 542 1530 3538 5766 1072 
5082 2215 5740 4534 4073 3248 5568 2625 2104 
4639 4628 4191 5563 5430 5047 4965 4848 4408 
1454 5432 3078 5027 5029 5728 5178 3922 761 
6038 5292 2551 5196 4757 3894 3462 4319 5420 
3160 4522 5150 3822 4758 5565 3348 5877 4105 
5310 3926 124 652 749 866 308 2154 499 
3546 4248 2358 1468 1126 2169 504 1217 1356 
1715 1099 200 1349 144 340 3027 3108 2532 
134 751 65 1717 1299 2802 2098 3191 3401 
4019 849 668 2504 116 2179 1420 2307 2262 
2492 3259 1466 2177 1187 1957 2847 2249 2094 
2152 2516 1761 2405 2117 929 2621 2828 1627 
2761 2703 3193 3578 2463 936 1923 1678 3477 
2553 2043 2569 3053 2666 1290 1541 1117 737 
264 669 1477 140 58 127 696 359 529 
520 196 622 386 1989 1647 1058 92 1347 
799 1330 1250 346 135 1392 119 743 635 
159 1059 1427 853 880 164 821 1214 377 
1097 813 583 400 659 1109 877 1281 145 
838 969 861 1412 2132 1773 1949 2453 467 
1547 1822 912 636 783 1123 1149 604 1146 
1286 731 774 968 773 482 1635 263 582 
1066 823 754 681 245 513 1668 1116 699 
1442 381 841 226 869 674 1225 82 943 
321 807 580 524 798 1784 1801 1211 473 
512 1050 1192 1720 38 942 945 409 626 
1796 1872 281 660 54 2107 316 1691 1520 
149 1341 452 1019 1408 1269 1614 528 31 
915 420 157 645 752 440 415 711 590 
765 25 208 396 1005 266 1481 3 1159 
450 5 1478 516 270 935 530 1580 1131 
269 934 423 181 188 167 938 918 389 
446 597 390 546 267 434 187 686 1458 
414 623 325 1696 1009 490 202 531 51 
1056 1039 921 671 2131 486 2165 826 1125 
178 1046 1846 914 80 802 812 106 1240 
445 844 439 1445 111 1386 3440 6002 1879 
5951 5139 5663 951 5708 5744 3837 5199 4367 
5143 5466 4209 5722 5339 5966 4659 6000 4557 
5356 5105 4201 3696 5758 4900 4343 4920 5419 
5040 5135 4152 5821 5919 5656 5622 4894 4360 
5980 5610 3131 3492 5171 4446 3345 5825 5011 
3349 1561 5977 4356 3517 5599 2720 4748 5571 
5670 5910 5976 5246 4819 5119 4912 4277 4539 
5492 5714 5839 5271 4310 5252 5938 4616 3388 
4157 5847 5836 5741 5335 5660 4675 5537 3881 
3642 4727 5967 5398 5213 5674 5520 5235 4299 
5288 4617 4428 5256 5308 4677 5470 6040 3045 
5590 5177 4769 4229 5638 5519 5724 5501 5028 
4719 5578 2417 2920 3524 1689 2618 1352 4422 
6007 5939 2799 4430 2923 168 2481 2642 5701 
3219 2608 3838 3494 4303 2941 3652 4545 5223 
5703 5138 1871 5474 4107 2430 3064 5394 5527 
3649 4110 5154 5619 3186 4172 3681 4910 3736 
5301 4924 4598 2146 6024 5046 2064 3603 2677 
4150 5099 4938 5405 4178 3382 1945 3080 1234 
651 3918 1630 1076 544 47 254 1381 979 
1670 666 960 3606 1594 313 1848 2313 303 
2583 1927 2291 1785 107 2912 4118 2351 2684 
2335 2486 2867 4413 4917 2954 1600 4610 3225 
3960 3863 3279 2995 2772 3862 2281 2099 2223 
2789 4514 3373 1876 3424 3740 1782 2308 689 
397 311 1617 2268 517 52 3410 184 865 
1867 2245 1027 1043 2536 939 1133 2297 448 
1424 376 1378 485 169 76 1579 427 343 
786 79 684 733 3447 2633 35 1728 2379 
1162 306 1453 1836 41 19 2993 75 96 
702 1883 621 575 612 2640 2284 1068 2041 
1661 1185 57 804 363 304 228 221 824 
240 1931 317 425 1322 1365 492 110 1008 
679 74 1500 398 198 1181 2643 487 282 
642 233 830 835 424 1301 421 1318 809 
505 464 780 291 277 112 4571 5757 5616 
4332 4484 4860 4850 3478 3591 2708 4969 3594 
4461 5604 6008 5261 4735 5411 5928 5002 5359 
5515 5993 5100 5521 5999 6048 5932 5923 4417 
5861 5719 6003 5975 5409 4037 5806 3762 5808 
1249 4246 6050 4101 4541 1333 2432 3996 4974 
5360 5204 5248 4787 2391 4213 5800 4166 3962 
5692 4198 5185 4903 4063 5280 4176 5424 5816 
5684 4014 2570 5236 4368 4117 5650 5066 4950 
5498 5400 5612 5118 4991 4525 4895 3819 5736 
5630 5869 5414 5760 5311 4214 4907 6065 5403 
5585 5828 5721 5886 6020 5449 2458 6 5514 
5392 5767 4032 5348 278 3463 3742 98 3402 
1350 995 5959 3377 5704 5557 2829 243 2735 
5195 5764 5344 3873 5786 3836 4519 5381 5844 
5006 4323 3022 5037 4058 3101 4076 4070 4874 
4489 3635 3845 4582 3924 4937 336 1258 2682 
1965 3254 4561 3632 776 4147 3861 2288 2290 
2296 1011 3611 3949 3395 255 3957 3566 2524 
91 3672 328 3043 2018 1073 1156 3766 3604 
2164 3655 3945 1984 3811 3434 3122 2050 2585 
4463 1032 723 1797 466 309 197 1329 114 
2204 1457 320 2022 1253 368 1314 94 378 
1747 2396 370 1829 884 1021 735 1026 1498 
662 990 2250 913 1865 1075 337 2028 1513 
857 2129 69 2023 1078 1421 519 89 905 
1246 1143 10 1145 2072 1119 2328 1572 152 
1018 1013 417 2389 923 1592 1414 1701 422 
11 965 1312 1215 1844 1382 619 1316 1355 
1152 1597 1022 2332 1523 60 1684 1681 694 
1953 2059 3281 2431 2713 2148 1859 3735 1854 
2962 2987 2378 4647 2940 1628 1590 2143 1514 
2189 2906 1493 2725 2872 1997 2614 4420 2928 
5831 2407 2125 2190 55 2423 976 2184 2233 
2006 553 2123 1389 1231 2416 2617 1866 1121 
2513 1808 3002 3017 2234 2653 1840 1759 2447 
2456 2264 374 1729 3561 2566 2542 2000 1909 
2046 3198 2697 2732 1346 2031 2016 1657 2348 
2144 589 3464 3020 3322 2862 1485 2738 1432 
2756 1570 4098 2466 2972 2791 2663 2096 1763 
3602 3297 2541 3035 1636 442 2076 2919 3155 
2216 2267 2543 2594 4090 2796 5217 3216 4173 
3797 4482 3860 3619 3909 4469 2745 5169 3230 
1673 1093 599 706 514 1828 1310 1034 395 
1342 1400 1963 603 87 1593 2341 1940 429 
1750 1449 868 1037 1480 1751 769 1235 1173 
1982 640 1371 1343 2243 1339 250 1229 617 
2554 1814 1422 1199 822 814 271 1820 764 
347 576 704 242 146 871 1682 460 1084 
1224 241 225 1612 778 72 820 999 925 
775 1484 1994 1283 40 1006 1175 1462 1362 
510 2075 276 36 1652 1274 1779 682 1463 
1091 1077 1334 1611 284 1932 1508 1767 507 
1620 1288 509 1992 1527 2111 1222 1917 1295 
1184 1041 1336 50 1194 2605 1899 760 750 
1529 2376 1239 1531 1960 1280 453 2037 1930 
2380 1744 160 86 369 1995 437 1664 1538 
1951 2384 18 1164 1193 39 2118 502 1035 
557 1575 1000 408 2280 1413 579 653 1113 
218 1042 203 1571 1515 294 1232 1719 1321 
1198 329 2452 1900 299 970 1802 2260 661 
740 2350 1732 927 1568 991 2201 1536 1161 
2315 2609 538 2057 2058 2091 247 1990 1345 
1648 1526 1268 1587 2333 1853 1711 643 2174 
2176 283 2200 2733 1754 1912 609 1223 1144 
1548 1892 1901 1016 66 864 358 1841 1398 
1134 1775 1792 3187 842 1237 1999 886 1852 
1327 2252 432 1020 2572 2321 815 1918 977 
1922 1210 1973 2237 1227 1488 1741 2025 1471 
697 1625 2773 1903 2406 1082 2155 2559 1430 
1238 1359 982 1677 2419 2229 1487 1304 1289 
1338 2222 2610 2507 2555 1245 3075 2027 1364 
1444 2531 2881 2667 2124 2320 2247 2323 1602 
1415 2226 3458 2178 2370 1676 1140 1256 1800 
2540 3706 2620 3535 2882 3529 3331 2747 3590 
3370 1578 2748 1683 2722 2651 2119 2270 3592 
3126 4490 3897 4193 2488 2628 2978 4687 3857 
2561 2564 1270 2963 3291 2285 1939 3878 2678 
3195 1788 4673 2592 1749 2917 3025 3067 3992 
5978 3314 2139 3095 3708 1943 2068 1560 3928 
3358 2994 3769 3448 2819 3189 2860 3846 3156 
3840 5302 4271 2935 2253 3966 3461 3060 4808 
4712 2970 4655 3444 4730 3118 2461 5628 3472 
5385 3908 3622 4143 4135 4287 5769 5626 4914 
5533 5636 5659 3087 4020 4881 2645 2816 3207 
5091 5043 2957 3685 5596 4134 3703 3315 2462 
3109 5293 1564 3062 5690 3014 1877 2395 5131 
1213 3618 3071 3455 2082 2102 4700 5581 1491 
5220 2969 2705 2272 5173 137 978 3763 2979 
2135 2834 3324 3272 3196 2742 2186 3938 3620 
4386 3950 2515 2929 3980 3146 4312 1849 2275 
2804 3901 4418 2876 3818 5004 3416 3233 5056 
103 4818 5524 4573 3849 5734 4670 126 3292 
163 1150 887 2514 1292 2518 806 3586 1124 
1303 1642 2269 1546 2258 4425 1328 1411 2754 
4593 3031 1817 1122 2085 3362 3074 3099 1461 
1791 1933 3059 1855 1934 2051 1898 2302 2840 
2193 2014 2807 1598 2755 3489 2195 2671 3326 
1781 2327 3175 2403 739 286 1567 586 1437 
1837 956 1372 1472 1325 1326 339 1344 2210 
3507 677 928 755 1558 252 310 922 1599 
898 2248 1856 2768 2017 1178 1267 484 1666 
319 1663 1114 1244 1765 1163 2956 997 1393 
1783 1862 1639 831 2577 1209 2048 1743 2401 
1659 1815 1271 1305 1183 1465 1631 1196 2277 
2151 1282 1955 1774 1252 1171 1061 2066 3205 
2283 2114 2743 2895 2675 665 766 1623 70 
27 405 1544 1379 1262 1842 280 1157 950 
2088 882 836 1618 1589 1700 403 601 194 
940 2145 2052 705 1079 1699 843 2153 2567 
2298 1456 1795 2084 1294 1055 1794 2483 2106 
1088 1824 2255 2331 2254 1845 1606 2557 1946 
1760 2001 1062 1961 2377 2460 2024 1129 2365 
413 2346 1667 1634 2547 1165 2367 1353 2032 
2095 2517 2479 1637 2550 2086 2441 1776 1236 
2412 1641 1551 1694 2182 2316 1550 3011 2049 
1297 365 2582 654 1029 1474 577 251 1757 
648 3666 3332 948 2710 2343 1595 610 1858 
1629 900 1894 3627 2505 1049 933 1200 1790 
1002 862 3360 1276 2230 2528 1839 1516 2574 
1803 3782 1902 2357 2388 1911 1302 2108 2700 
2187 1873 3613 2571 2161 3044 1358 2352 2322 
1977 972 1697 2035 796 1489 893 1279 736 
1298 870 745 967 2289 899 937 1604 2087 
759 2809 2286 288 1987 1835 1812 827 1675 
2589 2810 2221 4718 2785 1277 2303 3232 1361 
3831 1607 2777 2304 3917 2739 2855 5776 3190 
5269 625 1320 2634 2898 4651 5296 5631 5860 
5911 5725 4799 5675 5214 5239 4768 3883 4854 
4177 4979 5309 3176 5377 4897 4391 6015 5065 
5561 5761 5950 5777 5181 4008 3820 5442 3097 
5705 4156 5829 4125 5323 5511 5438 5081 3868 
2558 4703 4071 5279 5711 4515 3914 4729 4944 
5887 5054 2887 2805 5668 5865 5240 3278 5580 
4015 6021 3547 3194 5602 5509 4888 5219 5752 
2884 4820 4028 4203 4595 5494 6006 5858 4862 
5163 5986 5878 5856 4003 3870 5095 4902 5543 
4664 4761 4237 4660 4452 4212 5123 4782 4771 
4612 4274 4088 3553 4226 4500 4855 4604 4181 
3630 3745 4326 3816 3940 5129 3965 3989 4111 
5107 3958 2695 3533 3723 3212 3004 5205 4926 
3715 1315 1650 1665 2626 1206 1864 1687 4696 
3335 3623 3021 2128 3970 2191 4278 3179 1830 
2360 3192 3625 3050 2438 1755 3238 2218 2968 
4592 2619 3975 4164 2723 2257 2627 1972 2390 
2889 2631 2770 3076 3300 2496 2861 2414 3645 
2948 3598 3394 3815 3375 3181 3407 2392 2521 
3605 3802 3776 3817 3135 2952 3143 3414 3136 
3680 2926 2949 4382 2196 4528 2415 28 1003 
1929 2202 2127 667 2116 2336 2604 338 430 
324 2183 2784 2818 1402 2168 1881 1135 2760 
1831 964 1616 2480 136 2063 1924 1505 2911 
1722 2976 1702 2815 2353 2408 2797 748 2312 
2440 2019 2587 2613 1910 3419 3209 2090 2896 
1626 1857 2864 2292 1825 3499 3848 3333 2383 
2967 2845 2849 3285 1094 1706 1985 1710 1959 
1653 2449 170 1748 787 2501 1983 1409 1496 
1483 1736 1497 1423 1895 592 917 2029 2100 
2573 963 1818 1622 1160 503 1230 1335 2162 
1204 3154 2398 1257 2624 742 1688 1712 2172 
2904 1969 1974 121 2239 1735 2055 1724 536 
1419 2877 1861 2205 3353 2465 2334 1306 1418 
1887 3725 2214 2073 3347 2282 987 1752 120 
1926 1272 1528 555 361 1101 1010 379 847 
1172 2219 1979 1509 2687 1952 1191 246 236 
1847 554 984 1582 1967 2324 1756 29 3234 
2038 262 2197 2112 747 1721 1216 2471 22 
1340 1646 1891 1708 1033 1573 1470 1071 2752 
2263 1503 1433 1296 1693 2120 2138 2206 3943 
53 1897 1893 2510 1583 1403 566 5685 5644 
5116 5130 4890 5039 4023 5358 5716 5080 4739 
5872 5112 5059 3856 2921 5488 4935 5216 4793 
3552 5751 5995 4437 6011 3644 6009 5505 4932 
5273 4763 3337 5588 4002 4451 5290 5803 5817 
5017 6029 5669 6026 4681 5321 4341 5459 5592 
4235 4702 4922 5996 5475 6060 4995 5534 5090 
5439 5366 5676 4952 5873 5909 5687 5584 4747 
5276 5551 5625 5918 4401 4046 4631 4527 5989 
5144 5678 4618 4024 4266 4324 5863 5992 5968 
5224 4549 4649 4734 4962 5530 5618 5929 5447 
5157 5890 5671 4398 5649 4945 4710 5147 3813 
5594 5211 5811 5427 3833 4652 5416 4249 4750 
3201 4779 4717 4833 4901 3731 5435 4546 4939 
4400 5647 4759 5870 3249 5342 5085 6023 4872 
6053 4661 4665 5745 4338 4986 2603 4049 5845 
4389 4232 6022 4119 5227 4197 4669 4365 4668 
4977 5471 5198 4925 4954 3903 3142 4656 5791 
5025 4568 3628 4827 3872 5637 3069 5964 5933 
5387 4263 4256 4403 3954 5137 4512 5201 4552 
4350 4562 5167 4889 4814 4102 4973 4946 5903 
5718 5482 4170 3164 4501 4556 5723 5889 4124 
5906 5243 4966 4540 5008 5960 4602 5158 2714 
4167 470 2879 4100 4436 1916 1915 4186 3826 
4261 2947 4188 4726 3151 4711 3572 3563 2933 
2724 3047 3084 2300 3539 3430 3504 4017 3393 
3709 2476 3660 3898 2812 4531 3127 4021 2140 
3865 2950 3409 2798 4878 4599 5393 3453 2913 
4692 4486 2562 3457 4127 5298 3221 4317 5428 
2646 5570 2846 5862 3941 3712 3601 3433 4154 
3288 5230 3525 4242 3242 4330 2436 2522 1875 
2699 1524 2354 4211 2632 1383 2242 2865 2103 
2056 2880 2899 2373 2866 3799 3361 881 2325 
2433 2484 1758 1769 2004 3449 4268 3134 2649 
1556 1780 3227 2109 4006 2787 2548 3626 3355 
4313 3469 3998 3343 2374 2158 4130 3141 1885 
2074 3885 1734 3460 2231 4016 2925 3471 3771 
2121 3549 2964 2409 3431 3905 2854 3274 3859 
996 1179 907 1182 971 480 2596 3019 2851 
1656 109 670 1806 3106 506 2381 24 890 
2478 839 600 2080 1014 875 2375 1467 1834 
2071 2306 3051 2831 2915 1446 2652 1649 2499 
1981 1771 1742 2494 2126 2718 2746 3775 2110 
5461 4797 4129 5739 4851 5600 5549 5608 6068 
5731 6004 5898 5875 5792 5813 6037 5079 4844 
4650 5883 5203 5153 4742 4689 5948 4788 5410 
5864 4770 4913 5652 3875 4635 6016 4316 5469 
4513 4406 5071 5506 5468 4988 4686 3923 5063 
5643 4852 5460 5535 5699 3778 5491 4723 5389 
4972 5896 5713 5241 5015 5075 5351 5300 5522 
5624 5667 3963 5998 5984 5523 5627 5283 5189 
5712 5458 5818 5587 5730 5383 4997 5222 4585 
4383 5707 5336 5245 5404 6049 5888 4846 5206 
5390 3542 4369 4387 4165 6051 5485 5941 4987 
5207 4732 5936 4346 4756 4393 5914 4423 4439 
4813 5686 4775 4521 4698 5145 4464 5908 4432 
5997 3981 5106 5548 6018 5110 2661 3812 4407 
4657 5879 5917 5526 4158 4494 4580 5142 1115 
5345 5140 5763 4701 5550 6045 4523 4012 4405 
5166 5379 5168 4812 5307 3537 4575 5320 5927 
5322 3936 4821 5762 5013 5782 4683 4653 4643 
6055 4318 5355 5694 4856 5575 5317 5340 5785 
4837 5422 4120 5083 5852 5244 5072 5925 4960 
5349 5010 3684 5871 6039 3437 4145 3576 2786 
3614 2729 5369 5969 4378 3009 4605 3741 3787 
3567 4342 3479 4314 4301 4162 2821 3661 3068 
3543 3513 2657 1905 1954 1057 2411 3016 2007 
2185 1679 2345 2721 1482 2203 3700 4322 4460 
2737 962 3129 1907 3738 4766 5840 2781 2537 
2425 3497 3024 1805 2891 3678 3037 4254 6063 
3005 4506 5251 2951 2563 4992 3066 3988 5190 
4496 3733 5841 4919 4458 6033 5270 1373 3211 
4273 3023 4224 3030 2434 1998 3374 3102 3798 
3252 3475 2992 3384 5820 5365 3210 3784 3570 
4760 3699 2927 4040 3239 5061 4029 3714 4238 
3689 4292 4629 4433 5848 2696 4520 5662 4148 
5661 5053 4817 3646 3548 5835 4353 4648 4258 
4810 4695 4968 4829 5595 3214 5531 3643 5265 
3979 5658 4544 5380 3516 4964 4591 2568 2363 
1251 1619 1030 2656 384 183 2491 2067 330 
2009 2217 5778 2274 2188 3165 444 4169 4394 
2227 3588 5479 2455 1425 1991 2092 1525 2159 
993 2502 2309 2850 2730 920 2457 1707 2680 
3224 463 1577 2958 2366 2734 2579 2644 2224 
2622 3115 2814 2892 3638 3185 2175 1264 2578 
5373 3800 5156 3061 9 2469 4364 3986 2744 
2556 3925 2905 3993 3540 4921 1067 1542 2021 
1838 128 2211 2736 4948 2212 249 3328 2170 
2525 2581 2830 2817 3172 2832 3474 2686 2765 
2337 3801 2641 4187 3125 3677 3426 5074 2813 
3421 2801 3123 2386 2512 5912 3251 4042 2988 
2464 4288 3086 2668 3785 3006 3985 4466 5853 
3558 2982 3470 3280 1888 1660 2012 2314 1324 
2364 2694 5263 3637 5583 2539 2635 2319 2362 
2790 2468 3363 3357 2427 3891 1746 5299 2999 
2394 3371 2701 2932 4182 4155 3029 5532 5748 
5639 2235 3063 5943 2750 3560 5545 4905 4311 
5026 4414 4590 3650 3432 3982 3365 3372 1532 
2576 2639 3263 3551 3465 4645 4927 5958 3413 