# vtk DataFile Version 4.2
Generated by LIGGGHTS
ASCII
DATASET POLYDATA
POINTS 5999 float
-0.0172871 -0.0415606 0.00399865 -0.0135855 -0.0428226 0.0048313 -0.00983341 -0.0439269 0.00399902 
-0.00589608 -0.0446272 0.00399937 -0.00221017 -0.0430757 0.00399938 -0.00611328 -0.0407541 0.00497215 
0.0087818 -0.0441125 0.00400011 0.0049605 -0.0429171 0.00400054 0.00131415 -0.0449668 0.00399991 
0.00214402 -0.0400694 0.00400007 0.0149002 -0.0411892 0.00399955 -0.0307908 -0.0328135 0.00400003 
-0.0211684 -0.0396335 0.00400342 -0.0244979 -0.0335823 0.00399903 -0.02106 -0.0356242 0.00399807 
-0.0210208 -0.031642 0.00436715 -0.0246828 -0.0375865 0.00457999 -0.010902 -0.0399781 0.00399829 
-0.0175326 -0.0375687 0.00399992 -0.0139849 -0.0354873 0.00400016 -0.0175361 -0.0335698 0.00399987 
-0.0139519 -0.0313094 0.00400689 -0.00995662 -0.0315659 0.00399956 -0.00788143 -0.0373015 0.00399902 
-0.00597782 -0.0310634 0.00399897 -0.00197917 -0.0309961 0.00399789 -0.00375998 -0.0345768 0.00399894 
-0.000721597 -0.0371903 0.00403605 0.00691058 -0.0392886 0.0040025 0.00390303 -0.0364087 0.00400088 
0.00524396 -0.0324235 0.00400434 0.00790924 -0.0354051 0.00399852 0.00905333 -0.031197 0.00399977 
0.0010782 -0.033576 0.00400077 0.010918 -0.0390571 0.00399514 0.0145258 -0.0371047 0.00402072 
0.0185202 -0.0391216 0.00399919 0.0173172 -0.0312575 0.00399898 0.0133642 -0.0305073 0.00401519 
0.011719 -0.0341903 0.0039991 0.0183606 -0.0351255 0.00400987 0.0251936 -0.0320969 0.00404403 
0.0223675 -0.0349776 0.00399774 0.0213144 -0.0311175 0.00399978 0.0291178 -0.0340715 0.00399966 
0.025983 -0.0366906 0.00401102 0.0225191 -0.0389703 0.00418608 0.0286271 -0.0300403 0.00400427 
-0.0359674 -0.0270399 0.00399943 -0.0398336 -0.0209504 0.00399906 -0.0326496 -0.0292728 0.00399953 
-0.0328089 -0.0216444 0.00439454 -0.0365228 -0.02312 0.00457166 -0.0301916 -0.0255863 0.00399853 
-0.0288339 -0.0218255 0.0039986 -0.0248866 -0.0211829 0.00399857 -0.0286387 -0.0292719 0.00399924 
-0.0218022 -0.0237275 0.00402329 -0.0210832 -0.0276607 0.00399866 -0.0253584 -0.0255575 0.00400018 
-0.024645 -0.0295209 0.00399982 -0.0186026 -0.0213277 0.0039986 -0.0142703 -0.0273117 0.00399863 
-0.0177853 -0.0252468 0.00401291 -0.0111862 -0.0247657 0.0039995 -0.0146965 -0.0221874 0.00399972 
-0.01757 -0.0295707 0.004002 -0.0110511 -0.0204378 0.00401411 -0.00450694 -0.0234601 0.00399872 
-0.00858558 -0.0278063 0.00401821 -0.00704702 -0.0203706 0.00399954 -0.000778823 -0.0271269 0.00399999 
-0.00468594 -0.0273693 0.00482372 -8.60062e-05 -0.0231827 0.00399989 0.00227768 -0.0297414 0.00399869 
0.00680401 -0.0245772 0.00399967 0.00608524 -0.0285127 0.00400056 0.00383524 -0.0218967 0.00399946 
0.00299858 -0.0258078 0.00399946 0.0100928 -0.0272824 0.00401747 0.0172065 -0.0272598 0.0039972 
0.013813 -0.0251441 0.00399899 0.0171332 -0.0228209 0.00400099 0.0134512 -0.0211614 0.00401322 
0.0245583 -0.0239471 0.00399826 0.0235872 -0.0278263 0.00399888 0.0206326 -0.0247778 0.00400125 
0.028272 -0.021094 0.00399916 0.0202873 -0.020038 0.00399877 0.0304061 -0.0244756 0.00405277 
0.0343245 -0.0232474 0.0039993 0.0383192 -0.0234345 0.00399911 0.0323067 -0.0279948 0.00399942 
0.0361426 -0.0268156 0.00411189 -0.0431885 -0.0113627 0.00399948 -0.0421361 -0.0157197 0.00467165 
-0.0357293 -0.01425 0.00399888 -0.0394643 -0.0128208 0.00399902 -0.034578 -0.0180802 0.00399961 
-0.0384739 -0.0171788 0.00399919 -0.0304456 -0.0181653 0.00399961 -0.0335732 -0.0108814 0.00399893 
-0.0315199 -0.0143131 0.00401322 -0.0264964 -0.0175223 0.00399991 -0.0240714 -0.0111982 0.003999 
-0.0232971 -0.0151219 0.00399941 -0.0216875 -0.0187828 0.0040393 -0.0296022 -0.0104088 0.00399951 
-0.0272386 -0.0136115 0.00438557 -0.0118918 -0.0164861 0.00399777 -0.0161176 -0.0181829 0.00400678 
-0.0192827 -0.0155814 0.00400081 -0.0155057 -0.0142259 0.00399948 -0.0119097 -0.0125048 0.0043643 
-0.0185446 -0.0116643 0.00444985 -0.00278664 -0.0198497 0.00399941 -0.00422375 -0.0129138 0.00399879 
-0.00810695 -0.0138767 0.00399985 -0.0053291 -0.0167582 0.00399999 -0.00144601 -0.015798 0.00401031 
0.0066394 -0.010407 0.00399785 0.00109549 -0.0188872 0.00399925 0.00316039 -0.0124388 0.00400004 
0.00561902 -0.018307 0.00410781 0.00990972 -0.0192826 0.00401558 0.0101302 -0.0150127 0.00400036 
0.0184389 -0.0130357 0.00399924 0.0133508 -0.0120453 0.00400031 0.0135041 -0.0171631 0.00399888 
0.0175036 -0.0171657 0.0039985 0.0244567 -0.0198075 0.0040519 0.0234672 -0.0124311 0.00399763 
0.0213224 -0.0158061 0.00399863 0.0293599 -0.0168819 0.00400044 0.0274568 -0.0127037 0.00399764 
0.025216 -0.0158987 0.0049787 0.0364479 -0.0198579 0.00400044 0.0324422 -0.0197189 0.00399953 
0.0382428 -0.0162829 0.00399965 0.031393 -0.0134144 0.00400006 0.0395556 -0.011199 0.00399992 
0.0359702 -0.0129739 0.00399977 0.0422194 -0.0154822 0.00399891 0.0436279 -0.0109012 0.0039992 
0.0404561 -0.0196124 0.00403606 -0.0405982 -0.00348454 0.00399958 -0.0408407 -0.00751448 0.00400476 
-0.0445782 -0.0060231 0.00409656 -0.0446233 -0.00202248 0.00414764 -0.0368541 -0.00512716 0.00399771 
-0.0328734 -0.0065869 0.00400036 -0.0329441 -0.00221687 0.00406752 -0.0372859 -0.00939484 0.00400248 
-0.03662 -0.00045979 0.00399796 -0.0220249 -0.00450648 0.00400048 -0.027792 -0.00684303 0.00399921 
-0.0271868 -0.00288995 0.0039994 -0.02055 -0.00823013 0.00400003 -0.0241609 -0.000274058 0.0039994 
-0.0170775 -0.00624157 0.00399923 -0.0107147 -0.00870688 0.00399884 -0.0149203 -0.00960978 0.00399986 
-0.0185427 -0.00252047 0.00399928 -0.0146023 -0.00183769 0.00400387 -0.0131498 -0.00555055 0.00431616 
-0.00691585 -0.00995616 0.00399815 -0.00529088 -0.00586879 0.00399962 -0.00287785 -0.00914436 0.00400023 
-0.00334543 -0.00237401 0.00399791 -0.00725059 -0.00151361 0.00399906 -0.00919717 -0.00500691 0.00400732 
-0.000988881 -0.00561588 0.00408789 0.00694887 -0.00635002 0.00399913 0.00127841 -0.00890949 0.00399972 
0.00307947 -0.00533911 0.00399856 0.000834029 -0.00208085 0.00457897 0.0184153 -0.00818061 0.00399855 
0.0102272 -0.00864094 0.00400056 0.0141925 -0.0081234 0.00399904 0.0145259 -0.00397357 0.00400003 
0.0185204 -0.00418286 0.00399942 0.0105829 -0.00465637 0.00399942 0.0169581 -0.000501497 0.00399895 
0.0129659 -0.000269367 0.00399943 0.0280101 -0.00509751 0.00400553 0.0289993 -0.00901504 0.00399999 
0.0250095 -0.00874094 0.00401203 0.0248694 -0.00132361 0.00419814 0.0220663 -0.00603294 0.00399986 
0.0333716 -0.00994837 0.00435544 0.0347824 -0.0034931 0.00399782 0.0318819 -0.00624491 0.00399804 
0.037722 -0.000781792 0.00399891 0.0373088 -0.00774111 0.00399959 0.0309487 -0.00235612 0.00399931 
0.0413445 -0.00288114 0.00400145 0.0413386 -0.00761881 0.00399962 0.0449536 -0.00113862 0.00400045 
0.0446659 -0.00524684 0.00421399 -0.0409503 0.000499823 0.00400024 -0.0445685 0.00601326 0.00400211 
-0.0408677 0.00450025 0.00400164 -0.0447376 0.00201522 0.00407838 -0.0438721 0.00995102 0.00399986 
-0.0380112 0.00759772 0.00399879 -0.0369671 0.00362093 0.0039995 -0.0336541 0.00586135 0.00400382 
-0.0333715 0.0018721 0.00399859 -0.0346341 0.00973876 0.00399848 -0.0300165 0.0041985 0.00399943 
-0.0297469 0.000183409 0.00399851 -0.0205506 0.00525169 0.00399879 -0.0253722 0.00549185 0.00400344 
-0.021765 0.00916652 0.00399881 -0.0292719 0.00815555 0.00400916 -0.020123 0.00125526 0.00399922 
-0.0108561 0.0002168 0.00400159 -0.0165593 0.00549921 0.00399838 -0.014355 0.00215362 0.0039988 
-0.0177684 0.009311 0.00399867 -0.0125096 0.00570151 0.00399965 -0.0128071 0.00999934 0.00399867 
-0.00536169 0.00203757 0.00399941 -0.00128928 0.00515755 0.00399955 -0.00888808 0.00392373 0.00399933 
-0.00532796 0.00635584 0.00403785 -0.00146166 0.00116414 0.00413755 -0.00921198 0.00784076 0.00473823 
1.64528e-05 0.00893778 0.00399855 0.0063859 0.0044044 0.00399987 0.00252121 0.00150059 0.00399979 
0.00636814 0.000405835 0.00399917 0.0074074 0.00827035 0.00400778 0.00267237 0.00588804 0.0040819 
0.00989243 0.00229775 0.00400339 0.0110668 0.00613091 0.00399985 0.0175515 0.00347898 0.00399918 
0.0185459 0.00735283 0.00399919 0.0146009 0.0079982 0.00413448 0.0285421 0.000837578 0.00400032 
0.0213343 0.000689841 0.00400524 0.0215318 0.00468759 0.00399896 0.0249359 0.00678662 0.00399884 
0.0219545 0.00945302 0.00399866 0.0284304 0.0048415 0.00399941 0.025026 0.00274273 0.00400079 
0.0394449 0.00772389 0.00400112 0.0339249 0.000475514 0.00400002 0.035494 0.00709256 0.00400815 
0.0314975 0.00740882 0.00402689 0.0376423 0.00340944 0.00401164 0.0432745 0.00656694 0.00407521 
0.0413384 0.00112042 0.00420099 0.0449095 0.00291788 0.0039989 -0.0427794 0.0137978 0.00399963 
-0.0377294 0.0171111 0.00399792 -0.0362554 0.0133937 0.00399913 -0.0397322 0.0112079 0.00399991 
-0.0320865 0.0128292 0.00400003 -0.0339191 0.0164722 0.00502924 -0.0300549 0.0165108 0.00399982 
-0.0278242 0.0119016 0.0039996 -0.0261055 0.0158828 0.00399888 -0.021936 0.0161318 0.00399938 
-0.0238775 0.012562 0.00402378 -0.0235531 0.0198145 0.00399833 -0.0277625 0.0198087 0.00401054 
-0.0138681 0.0162938 0.00399939 -0.0179036 0.0163087 0.0040046 -0.0158552 0.0128231 0.00399968 
-0.0109617 0.0135472 0.00399904 -0.0198507 0.0127225 0.00415042 -0.0111941 0.0194988 0.00399993 
-0.00293255 0.0179968 0.004001 -0.000602067 0.0128891 0.0039993 -0.0075775 0.011415 0.00399906 
-0.00371876 0.0103657 0.00405619 -0.00824851 0.0166674 0.00401645 -0.0047735 0.0143309 0.00411393 
0.000827802 0.0166238 0.00399789 0.00395601 0.0141331 0.00399982 0.00422796 0.0187289 0.004033 
0.00749316 0.0122681 0.00399982 0.00378323 0.0101748 0.0045663 0.00725987 0.0162756 0.00491757 
0.0109158 0.0101917 0.00399964 0.017047 0.0151008 0.00399856 0.0181248 0.0195771 0.00400058 
0.0143591 0.0182312 0.00399898 0.0184343 0.0113504 0.00399999 0.0103795 0.0186298 0.00399863 
0.0107603 0.0145736 0.0039989 0.0144869 0.0119936 0.00399968 0.0207685 0.0165764 0.00399938 
0.0260383 0.0106309 0.00399907 0.0230575 0.0132971 0.00399809 0.026883 0.0145916 0.00399942 
0.0284483 0.0187841 0.00403039 0.0245573 0.0178577 0.00403692 0.0299167 0.0116183 0.00404823 
[...]
POINT_DATA 5999
FIELD FieldData 7
id 1 5999 int
544 514 482 144 333 828 1092 1037 856 
589 307 1045 862 120 97 520 924 107 
52 135 145 379 228 53 263 1095 426 
158 408 476 501 336 706 1008 203 246 
230 992 364 41 404 46 247 608 760 
245 690 397 557 1316 966 274 440 115 
1019 344 434 816 378 623 874 294 669 
946 11 724 63 502 546 704 1015 424 
199 174 776 469 952 504 684 365 114 
276 8 149 310 614 1042 876 396 112 
210 516 401 509 861 136 437 349 787 
348 1107 659 57 131 360 281 550 163 
650 664 311 84 487 374 345 296 429 
99 113 42 66 1126 205 616 293 168 
1144 1494 317 875 630 848 39 1077 117 
256 350 528 962 461 1035 231 86 142 
423 1214 372 1262 853 1503 686 802 417 
134 20 783 1096 126 558 1071 731 485 
447 906 354 175 821 221 58 612 1101 
584 1105 931 903 342 489 441 427 1486 
627 1481 710 1027 967 784 1142 322 900 
788 73 410 421 393 1161 1032 458 48 
108 914 241 367 418 88 604 1014 105 
292 673 781 12 857 766 224 755 813 
1269 16 5 463 23 971 998 1254 1128 
352 77 594 229 206 78 1460 346 563 
1277 886 170 763 1106 305 498 375 734 
560 517 384 712 935 81 432 1478 473 
128 320 380 155 1613 1073 313 341 182 
586 847 745 1066 288 954 535 1024 387 
915 214 657 394 836 165 592 244 298 
436 287 519 868 334 691 273 631 640 
191 260 721 996 64 98 579 671 80 
79 225 910 356 1040 576 3 266 337 
159 944 524 522 103 1124 361 347 316 
197 104 21 1016 1097 212 1072 736 1220 
146 660 388 715 556 91 839 425 880 
521 76 160 290 121 152 332 628 28 
406 569 177 1103 478 748 929 235 1611 
312 428 226 116 1368 227 928 1899 705 
220 1084 129 255 96 851 304 513 1134 
118 1703 409 629 133 1484 181 259 642 
299 529 140 1117 15 6 636 45 173 
289 213 769 916 327 475 1025 141 899 
497 207 904 111 701 395 530 217 268 
1489 477 215 124 474 532 780 162 909 
27 454 414 161 625 218 866 40 1461 
328 882 2618 1 877 250 122 18 455 
885 1323 67 995 1765 178 26 901 495 
430 1119 1350 531 864 19 1213 411 598 
1044 505 200 1171 680 100 254 1270 390 
1098 282 1477 997 1392 969 551 450 407 
271 1506 153 1328 1575 1164 1828 1995 1620 
647 1861 795 566 1326 2364 1079 2621 257 
242 209 194 464 10 1286 981 1650 452 
1289 1834 1299 65 1589 1846 1774 1602 1882 
138 596 185 83 892 233 1446 1232 772 
2165 665 1690 883 1999 1498 1878 773 777 
567 1033 109 338 391 1067 1632 907 696 
707 1580 1471 852 1677 1688 1411 47 1358 
605 968 1387 1792 1284 1608 1434 147 449 
1850 1543 1421 1251 1169 1365 154 340 1485 
1678 512 285 1280 675 443 764 580 750 
1188 1013 323 889 2027 662 1341 1187 33 
713 1005 94 1416 854 1162 488 183 198 
548 1563 574 493 279 1017 1275 106 302 
49 402 1476 119 1208 55 1043 953 1448 
1639 2042 1836 1463 744 2067 2300 1785 2781 
2347 1026 1166 1418 1028 1640 711 515 818 
1331 1242 1647 1023 1605 1059 905 1843 1734 
1768 400 371 633 1676 1285 1179 534 2285 
1789 1855 1159 1944 2292 1283 2065 2092 1883 
758 918 641 102 392 937 2221 1754 943 
1697 1862 1074 1609 1274 938 2109 1170 1550 
1691 2345 1176 54 844 1036 858 1412 1258 
1406 2136 442 1330 1217 1191 1491 785 69 
1468 2296 872 1182 248 382 90 267 1114 
22 689 617 643 652 471 800 1047 1652 
902 1962 1224 1057 413 249 921 2328 1178 
1829 506 1327 223 525 703 803 741 639 
824 1064 1113 1389 578 1398 319 961 1265 
1592 2228 1680 125 1537 68 533 1325 243 
1407 1683 963 977 1345 2129 1561 1844 1354 
668 674 1623 1722 1055 697 7 1672 9 
2047 832 1594 655 1749 2209 2113 1687 2304 
815 190 951 201 964 808 403 747 990 
986 179 1525 888 1201 1597 1555 1587 2093 
1338 38 718 1152 994 1482 1404 1174 1012 
2128 1684 1644 1572 1240 1753 1210 2490 1701 
1076 1061 211 1979 1185 353 980 833 622 
1177 1497 1710 726 270 1377 1913 1960 1628 
1852 1413 1183 1272 2091 1083 635 291 1288 
859 1508 819 1931 1383 240 987 1369 2312 
1223 1199 1256 611 1552 806 2277 779 523 
123 679 1775 43 927 1132 1319 834 518 
1243 2278 1767 1347 1811 1417 1308 314 590 
1180 739 754 1276 252 805 1355 692 139 
1372 1324 1222 749 894 1948 653 2205 92 
1123 1584 399 562 1212 615 1961 1118 1679 
898 222 1196 1329 1385 985 1860 1250 1505 
25 72 1359 1772 1233 826 1830 654 202 
613 767 941 1500 978 318 2194 2014 1318 
863 881 1333 619 884 1443 369 1231 1310 
1235 1429 1548 2307 1472 694 1317 581 2299 
1109 1133 496 727 545 278 1130 1295 376 
1618 508 1622 1099 1822 1081 1536 1374 661 
351 1380 445 543 500 831 1586 1140 1509 
2104 869 575 1003 491 1839 1091 1356 1263 
2021 1479 1340 1588 1088 1569 830 1876 1728 
1030 1366 1964 1125 479 1529 483 2038 1809 
1425 1049 1692 855 537 1674 695 1202 1281 
1845 1181 1444 893 1630 1967 1279 812 1492 
1348 2159 2210 714 2240 896 389 933 1120 
1100 1145 658 1060 1886 1982 1702 1493 1399 
2346 959 1925 1332 1921 842 751 137 1945 
1041 1914 1517 1577 1935 1391 1573 1137 1151 
693 796 1011 870 1557 1006 879 1104 1624 
2043 1516 1009 1334 24 511 756 1228 919 
873 1221 1038 1353 835 1122 1719 1002 2200 
2037 742 1351 775 610 890 110 867 1744 
982 1111 1225 983 1842 1357 585 2453 2024 
330 607 702 920 499 1131 1567 1522 1928 
794 1362 2362 1158 2001 2139 1804 1435 1252 
1496 462 1512 677 667 682 280 1871 947 
843 2018 1907 237 743 1975 1615 1361 1821 
845 526 840 1395 1300 300 355 1226 878 
942 1480 838 728 717 1720 1455 1260 1787 
1342 193 1168 370 678 1238 309 587 792 
1428 1320 1148 570 1305 381 606 1518 761 
1895 1750 1593 127 297 719 189 362 1054 
188 565 431 1089 148 1707 555 1381 1046 
814 1129 286 934 171 956 975 730 527 
1010 1487 1796 1831 1139 993 723 1445 253 
31 1063 1306 1031 377 564 1426 984 1778 
503 1112 1977 1812 1291 187 1197 1080 1149 
1297 1450 1673 1301 295 101 1294 1940 2319 
1439 1576 922 2248 632 232 817 366 1370 
2237 2176 1110 2152 949 265 716 239 1523 
1018 789 1090 167 1052 1459 2279 1078 2242 
1312 1553 1499 2260 1675 827 303 988 419 
32 588 778 1344 1884 1255 1936 700 1449 
1826 1870 1714 2034 2398 1556 1997 1337 1086 
331 572 1193 70 1490 1430 1335 29 1394 
737 1879 1972 459 733 1367 1462 1339 1237 
301 36 1020 746 1153 676 420 2114 453 
911 2452 1154 1546 1721 1664 1314 326 541 
216 1150 180 974 1085 1311 979 930 484 
809 164 87 315 1402 1535 822 568 553 
1743 932 283 646 130 955 186 709 648 
958 609 1976 1682 940 1021 708 2115 2148 
1469 480 626 448 765 238 368 1321 1271 
1069 554 561 405 150 887 74 1236 358 
1230 75 1207 1583 50 1400 1384 481 1056 
656 849 573 51 2 1135 13 1532 740 
60 1566 620 1984 1029 1247 1379 412 923 
891 1022 600 688 1604 841 1343 1349 1560 
435 559 2010 2225 2446 2318 2134 2750 2660 
2460 2223 472 93 357 771 1346 439 925 
1617 1726 790 2406 1257 71 1373 1048 1551 
926 1745 62 1442 258 1004 603 1819 1001 
1897 774 325 1102 2051 470 1248 1246 791 
957 683 793 618 1309 1156 284 1540 681 
644 1510 1625 1934 1669 2039 1841 386 599 
35 272 277 251 725 1436 373 685 846 
698 1859 416 2158 456 960 2090 1227 738 
1670 329 976 820 638 1695 547 752 1582 
965 192 2035 1424 1467 1163 2219 1565 799 
95 1205 991 850 85 34 1273 804 1267 
363 1423 1261 17 2198 571 1655 151 1959 
1388 582 1053 1136 306 61 383 1165 1296 
1875 169 1873 1764 1172 468 1867 1116 2629 
1725 339 275 798 89 14 1760 1298 1287 
196 624 2055 1534 2049 2764 308 1755 2030 
1923 1932 2023 204 1571 2007 1641 649 1160 
1868 1475 1410 1303 4 2127 1795 2284 2403 
264 973 166 1068 811 591 1000 2146 486 
184 1167 538 1631 261 1514 1195 917 1401 
1610 438 321 324 30 666 1504 490 1108 
1651 645 759 1542 1591 577 1724 1627 1645 
651 176 1453 507 433 195 143 415 59 
157 1249 583 801 466 1336 1713 359 1579 
989 786 1752 1307 1173 132 999 234 593 
1147 1495 1266 908 1530 1290 552 729 510 
56 269 762 156 670 1364 1239 422 451 
1209 621 542 1816 1390 1980 2081 1922 2384 
2327 1657 1211 829 343 446 1189 768 1570 
1143 735 1790 2690 1717 2680 2122 2843 1856 
2554 913 602 1245 3284 2196 2641 2257 2100 
3086 3465 2999 2528 2911 1386 601 2289 1638 
1259 1598 2046 3160 2845 3808 3564 2713 2254 
2633 2720 2686 3155 1433 1278 2349 2508 797 
1194 2073 1957 1564 1869 699 2195 782 2247 
2303 1581 2847 2102 2250 2977 2512 492 2341 
2464 1547 2275 3348 2245 1603 2987 3013 2421 
1783 2417 1661 2208 2963 3098 3529 2862 1705 
219 1649 2527 2157 2612 2121 1590 2106 1681 
2084 2526 1626 2098 2840 2968 2433 3636 2958 
3413 1718 2031 1175 457 1488 1420 2003 2825 
1146 2351 2383 1800 2959 2833 2975 2761 2506 
1614 1533 2472 2455 2187 1906 2624 2684 2418 
2378 2448 3174 3271 1519 1981 3008 2377 2075 
2355 2932 2517 2606 3464 2545 3215 3734 2871 
3187 1756 2295 2332 2735 1186 2416 687 1952 
2044 1937 465 2560 2611 2689 2538 1802 2675 
1865 2806 2443 1058 2143 1949 1733 1771 2391 
2646 1382 2314 2493 1991 2601 2041 2135 1458 
3193 2645 2483 2145 1633 2185 1470 1779 2869 
2008 2613 3094 1746 2746 3425 3411 3391 3851 
1943 1538 2150 1437 1696 2427 2305 1253 2291 
2812 2767 2396 3027 3297 2944 3303 2516 3122 
2191 1654 1908 970 2470 2009 1619 3082 2661 
2532 2510 1983 1376 1414 1727 2276 2183 2486 
2368 2120 1483 1456 1919 1405 1686 2511 2015 
1978 2468 2765 2953 3079 2048 1866 2402 3249 
1953 2161 1780 1659 540 2408 1699 1693 2562 
1989 2522 1716 2964 3175 2515 2338 2280 2415 
3015 2053 1403 1954 37 2013 2173 2329 2298 
2943 3024 3124 1737 2105 2025 2450 2776 1093 
2271 1378 2859 2639 1184 2004 2743 1968 1858 
1607 2667 2061 1065 2886 1887 1773 2491 2206 
2429 2385 2359 1700 3252 2576 2389 3451 2787 
1955 2066 2557 1848 2430 2779 2226 2816 2796 
2057 2142 2282 722 2177 3156 2708 2363 3375 
2387 3247 2668 2858 1562 2714 1794 2006 1662 
3173 2794 2399 1917 2151 2103 2674 2457 3072 
1781 1595 1814 2728 807 1881 1408 1636 2190 
1988 2916 2182 2870 3040 1942 1203 1966 1070 
939 1671 1668 2600 1264 2804 2333 1889 3286 
1763 2594 2549 2666 1824 2050 2671 2111 2409 
1840 3158 2846 2687 2520 2432 3211 3690 2519 
3208 2534 1141 2301 2652 1087 2317 2423 2717 
2179 2440 2071 2745 2420 1965 2005 1987 1685 
2426 1958 1642 1219 2181 1198 2709 2370 2322 
2361 1531 2565 1293 1863 1905 1658 2116 2083 
2579 3063 2202 1397 1893 2366 1730 2665 1539 
1924 1805 2935 2939 3339 1896 1667 3368 1215 
1835 1759 1776 2774 2163 2141 2688 1969 2773 
3258 2082 2373 3029 2482 1890 3250 3620 1916 
1268 2348 2548 1902 1793 2712 1723 1431 2861 
1807 1938 2875 3455 2772 2251 3039 2444 3892 
1806 1127 1643 1315 1363 1396 1993 1736 1200 
1452 1815 1994 1877 2207 2989 2678 2407 1513 
1155 2478 1507 2172 2577 1704 2392 1568 1558 
2786 2521 1051 2950 3453 2297 1888 1216 1927 
1454 2531 1637 2130 2326 2595 2737 2820 3012 
2863 3214 2323 2536 2309 865 1634 1838 1206 
2449 2607 1694 2215 2603 2357 1786 2978 1545 
2676 3003 3189 2405 2059 2125 1985 1094 1447 
2256 1833 1920 2118 2699 2193 2192 2885 1629 
2395 753 1663 1832 2086 1732 1660 1689 1941 
1900 2220 2798 3257 1901 2749 536 172 1813 
2466 1653 1803 2422 2770 2940 2814 2451 2036 
1616 3633 2290 3499 1735 1946 3149 3278 3506 
2052 860 2852 1440 1769 2488 2537 1352 2232 
1502 2441 1885 1762 1990 2068 2473 2827 2677 
3246 2572 2899 3121 2169 2941 2379 1992 2154 
2258 1998 1808 2762 871 2026 2079 2077 2439 
2424 2752 2070 2647 2222 2504 2325 2306 2425 
2140 1600 2716 2546 945 2356 1729 1909 1739 
1585 2564 1825 2849 2476 3574 2632 1541 2335 
2589 2458 1599 2573 2112 1292 2094 2830 2630 
2132 2657 2969 2217 2164 2844 3112 3179 3071 
3308 1578 1521 1466 2124 1432 2095 2500 1646 
1851 1820 2887 2404 1039 1930 2724 2865 2854 
2204 770 1501 1304 1360 1648 1549 1515 2503 
2636 1798 1956 2442 2725 3196 2249 3485 2382 
2264 2074 2400 1244 1911 2459 1933 2584 1738 
2638 1621 1915 2682 2316 3054 2802 3273 757 
2072 1528 1761 1810 1797 2994 2253 2431 2269 
1524 2651 2017 2445 1874 2462 2985 2934 2011 
2615 3006 3390 3085 2604 2374 1910 1007 2414 
2839 1526 2529 1656 2701 3053 1706 2799 2592 
1409 2342 2587 3050 2789 2413 3700 2890 2471 
3489 1419 672 2123 2367 2386 2178 3047 2902 
2923 2352 2214 2274 1731 3234 2436 1947 2273 
3373 2480 1574 2133 2012 1218 2238 1740 2759 
1465 2199 1892 1204 2543 82 1766 1747 2108 
1898 2658 950 2287 2167 2447 3105 1451 1799 
2213 2201 2608 2016 2162 2961 2908 1302 1415 
1241 1970 1880 1229 2324 2336 2702 2888 2029 
2230 236 2649 2492 1894 3398 3463 2137 1918 
549 1082 2156 1190 1075 2218 2340 2924 2175 
2456 2321 2751 1872 2288 3277 2625 3304 2045 
2730 3756 1115 810 2375 539 1511 1559 2655 
1666 1457 2186 1527 1709 2281 2982 2654 2261 
3251 2933 2153 1847 1963 1441 3432 1138 2768 
2020 2019 2700 2962 2227 1849 1827 2598 2212 
1192 1234 1427 1635 2898 1742 2495 2744 3138 
3070 2734 2605 2681 1665 1748 2622 2626 2265 
2174 2602 1818 2331 3307 2376 2578 3980 2097 
2315 3170 2715 4228 2119 2160 2837 2283 2259 
3031 1853 1939 2900 3017 2547 2810 3232 2691 
3280 3712 2841 2525 2469 3733 3190 2635 1971 
2910 948 2155 2101 2022 1801 1596 2502 2310 
3045 1864 2397 2729 2561 3287 3274 3225 2244 
2184 2496 2062 2203 2583 634 3010 2559 2063 
1912 2089 2494 2078 2727 3153 3301 2644 3219 
3358 3330 2272 1375 444 2040 1698 1712 2822 
2711 1473 2590 2580 2936 2390 2087 2882 3202 
2703 2949 637 2410 1393 2000 2054 1322 897 
1601 2957 2784 2360 3371 2627 3270 2748 3145 
3116 3818 2591 972 1121 494 2138 460 1757 
1544 2076 2188 2903 2988 2401 1784 2080 3292 
2663 2831 2766 2380 2876 2243 2032 2064 2956 
1715 1474 2394 262 2670 2948 3372 2706 2170 
2631 2171 2107 2945 3114 3747 2582 1612 2434 
1788 2234 2236 1791 2942 2033 2513 2872 3400 
2270 2593 2563 3460 2294 3293 3081 3939 2211 
597 2197 2180 2099 2411 2575 2586 2350 3201 
3171 3266 3073 2474 1758 2813 1903 2992 1926 
1034 3004 2758 3442 3752 1050 823 2497 1891 
1313 2302 1770 2229 2369 2692 3561 3341 2255 
3435 2793 2085 3444 1520 2110 1708 1422 1282 
825 2147 2235 2523 2412 2778 2909 2585 2144 
3406 3401 2246 2058 3268 2637 1554 2381 2060 
2662 2372 2126 2002 2501 3172 3738 1062 2542 
1951 1973 1823 2856 1837 2937 3176 3120 2530 
2574 3591 3783 2569 3162 2970 3487 3089 3538 
2514 335 2056 2131 2868 3630 2775 2518 2866 
3255 3718 3580 3509 2938 3002 2435 2069 3106 
2685 3493 2771 3288 2742 3282 2836 3804 3025 
3142 3955 3289 2879 3713 3722 3446 3279 2718 
3792 4166 1996 3060 3703 4216 2507 3056 3958 
4464 1777 2918 3331 3902 2588 3540 2801 3235 
2623 3845 3639 4200 2864 4060 4618 4497 3972 
3607 4124 3404 2634 2851 2262 2096 3319 3471 
3677 3822 2783 2891 4129 3032 3790 3077 4422 
3440 3058 3654 3778 3276 4100 3362 3707 2308 
3148 3844 3334 3194 3723 3405 3302 4149 3632 
3523 3195 3985 3727 3547 3670 3033 3256 3099 
2487 3315 3682 4002 3361 3472 2371 3433 3831 
3913 3763 4139 4326 4388 2955 4310 3095 3207 
3378 2930 3761 3152 3165 4248 3766 3967 3379 
3618 4066 3735 4416 4642 4072 4270 4918 3650 
2855 4051 2499 2747 2467 2616 3768 3350 3623 
4439 4211 3894 3800 3675 2967 3711 2809 3311 
4415 2553 4086 2568 2669 2339 2533 2877 1950 
2596 3537 3048 3500 3437 3578 3708 3811 3868 
3883 3717 4456 4891 2556 2330 3469 2239 3125 
2597 3313 3847 2740 3067 2189 4279 2973 3478 
4188 4170 3111 3037 2929 4647 4255 2834 4389 
3662 3833 3450 2946 4637 4813 3715 4420 4169 
4371 2795 3492 3920 2966 2904 3325 3449 2721 
3052 4000 3512 4480 3516 3993 4632 3264 4496 
2498 2673 3539 3221 2505 3360 3346 2821 2628 
2438 3186 4056 3676 3983 2832 4521 4007 4946 
4705 4775 4366 4361 4136 2824 3553 2739 2808 
3078 2088 3041 3522 3599 2842 2907 3103 3188 
3907 3527 3794 3253 2980 4093 3771 3699 2848 
3028 3721 2365 3769 3751 3226 3898 3353 4317 
3714 3806 3412 4198 5425 3347 3990 4161 4202 
1711 1817 2216 3828 3199 2896 3572 3365 3096 
2648 3370 3534 4068 4559 2976 2777 3298 3674 
2610 3238 3789 2867 3774 3556 4444 3528 2829 
2805 2268 3799 4089 3743 3477 3615 3476 3826 
3753 3482 3409 3642 3754 4065 4646 4001 2880 
3614 2983 2231 3345 3309 3000 3169 3260 3813 
3594 3462 3415 3317 3518 3231 4403 4130 4560 
3338 2581 3005 2477 2168 2696 3388 2354 3651 
3166 3931 4504 3101 3634 3468 3242 3459 3963 
3399 3180 2694 2693 2838 2788 2984 2857 2927 
3020 4259 3829 3624 4019 3344 3773 3681 4700 
3376 2736 2540 3772 3679 3143 3418 3183 3848 
3457 3402 3974 4134 3987 3640 3204 3672 3323 
4742 4466 4328 2461 3090 3616 3306 3979 3695 
3244 3259 3730 2698 4525 3897 4291 4387 3951 
3988 4127 2659 3508 3924 2732 3542 2241 1741 
4232 4440 2954 3590 3825 3504 2726 4253 4120 
3849 3011 3861 4374 4600 3167 2757 4113 3557 
2769 2860 3706 3392 3092 4545 4359 3377 3474 
2656 3185 2286 4281 3227 2558 3655 3788 3445 
3881 2544 4075 3611 3921 4699 3571 4590 2664 
4833 4806 2883 3548 3001 2995 3100 3692 3427 
4306 3649 4133 4597 4046 4754 3886 3150 3140 
3466 3746 4154 3157 3222 3422 3973 4103 4084 
3819 3596 4979 2922 2897 3890 2915 3767 2894 
3563 2993 3136 3237 3236 3926 3191 3652 4099 
4031 3856 2263 2704 2741 2484 4184 2683 2819 
3927 3748 3952 4125 2823 3108 4688 2481 3326 
3327 2567 2541 3941 3545 2998 2617 2914 3229 
2707 3638 3685 3644 4262 3139 3598 3698 3055 
2895 3129 2986 3066 3163 2293 3272 3428 3107 
3030 3837 3424 3127 4506 4753 3586 3569 3336 
2614 3705 3097 3075 2947 2571 3925 3810 4237 
3484 3550 4295 4570 3241 3104 4731 4937 2343 
2835 2539 3333 3181 3786 3498 4454 3393 3408 
4112 3356 3622 3744 4105 3592 3473 2881 3363 
3316 3858 2780 3935 2850 3762 4335 3588 3891 
3200 2951 3757 3981 3877 3568 4465 4233 4069 
3324 4394 4207 4617 5247 5179 3387 3694 3023 
3936 3864 3061 4402 4429 3452 4349 2344 2653 
2912 3530 3007 2928 3230 3243 3558 3283 3044 
4434 2722 3665 3855 4128 4156 3210 3970 2828 
3016 2733 3470 3084 2358 2756 4217 3663 2760 
3946 4114 3332 3022 4246 3220 2738 2393 2465 
2570 2642 2552 2991 2971 3161 2599 3796 2807 
3197 2965 3205 4024 3867 3609 3443 3576 3502 
3009 2313 1857 2990 3351 2337 2320 3109 2920 
2815 3617 3501 3613 4020 3619 3680 4468 3128 
3689 2620 2524 2931 3602 3948 3668 3135 2817 
2926 2893 3601 3544 3130 3198 2974 4176 3830 
3184 3439 2919 3486 2797 3164 4315 4083 2972 
3305 4365 3673 3117 4165 3018 4531 4899 3608 
3776 3687 3380 4235 3312 3666 3431 3582 3795 
3088 4053 4573 3872 3505 2763 3429 3842 3177 
2906 3560 3366 3584 2785 3014 3874 3552 2643 
4081 4137 3686 3479 4203 3850 4062 3513 3750 
4369 3448 3480 3093 3300 4309 3702 3239 3775 
3359 2960 3110 3575 4479 4311 4614 3996 4347 
3447 3337 2697 3213 3087 2803 4077 4018 3827 
3945 4193 3991 3950 3816 3395 4472 3749 3805 
4811 3631 4338 4116 4097 2826 3719 4736 3159 
3779 4102 3600 4551 4158 2535 3403 4017 3123 
3871 3835 3777 3419 2792 2428 3720 3383 3541 
3593 3245 4231 3637 4990 4080 4639 2753 2555 
1854 2609 2723 1974 2997 2463 3295 3491 4187 
4163 3343 3233 3043 3520 2233 3494 2925 3329 
3314 3299 3262 2889 3975 4425 4201 2334 3661 
3019 4256 3488 4412 3168 1904 2679 2437 3741 
3074 3760 4486 3394 2353 3832 3533 4288 4320 
3420 3605 3656 3514 4204 3218 2705 3151 3146 
2979 3182 3068 2224 2754 3904 3441 3178 3785 
3900 2853 3660 4058 4215 3554 3223 3042 3133 
4146 3999 3261 3965 3546 2672 2731 3737 3318 
2800 4272 3732 4252 4250 4174 3716 4219 4591 
3865 3846 4258 3731 3426 3296 3224 3803 4108 
3740 3627 3968 3930 3793 3629 3876 3051 4152 
4047 2981 4598 4341 5224 3693 4999 3893 3065 
2952 3745 2619 3559 2917 3626 3036 3407 2550 
3878 3962 4157 3836 3369 3436 2551 4041 3969 
3354 3597 3653 3643 3917 3697 3291 4131 3782 
3064 2921 4073 3267 2311 2650 2884 2874 2485 
3091 3929 4078 3216 2719 3688 4234 3367 2475 
3248 3736 3269 3901 3240 3531 4107 4055 3916 
3021 4192 4589 3587 3852 4377 3212 3397 2388 
2892 3119 3704 3352 3290 3787 3519 3141 3389 
3382 3515 3461 2901 3780 3131 3603 2913 3671 
4625 3034 3507 3495 5101 3154 3454 3421 4391 
3132 3691 3802 3798 4273 3658 4717 3384 3062 
3937 3357 3059 3562 2791 3069 4727 3521 4505 
3321 3535 4336 4044 4602 4274 3566 4943 3869 
3625 4604 4094 3895 3263 3565 4035 3517 4194 
3342 3355 4578 3322 3430 4300 4009 4023 4135 
5232 4926 3684 3646 3823 3683 2489 4096 3049 
3192 4118 2905 4316 4212 3635 4801 4428 4040 
4224 2811 3467 3843 3934 4087 4459 3080 3503 
2878 3203 3664 3942 4292 3725 3765 4185 3115 
2479 3396 3884 3026 2028 4091 3076 3709 3340 
4043 3543 3604 4447 3982 4079 3386 3038 3217 
3885 2266 3285 3912 2695 4500 3701 4275 5152 
3410 3320 3759 3606 4426 4223 3583 3254 4314 
3511 3994 4902 5115 3525 3641 3573 3581 4921 
3310 3964 4657 4526 4119 4264 3551 4764 4907 
3046 4455 4305 3807 5330 5334 5355 4346 3657 
3532 5136 5962 5398 4039 3118 3335 4788 5387 
3834 5325 4734 4267 3875 4973 5881 5919 3961 
3919 5177 4147 5802 3862 3758 4367 4168 4098 