# vtk DataFile Version 4.2
Generated by LIGGGHTS
ASCII
DATASET POLYDATA
POINTS 5999 float
-0.0170454 -0.0415844 0.00203559 -0.0214359 -0.0393164 0.00272303 -0.0426983 0.013992 0.00304778 
-0.0377292 0.0174014 0.00307386 -0.0362558 0.0136667 0.00310264 -0.0357091 0.0208592 0.00316223 
-0.0137558 -0.0427538 0.00429936 -0.0194451 -0.0404222 0.00656303 -0.0157551 -0.0420073 0.00776978 
-0.0119226 -0.0433303 0.00788823 -0.0183574 -0.0410208 0.0106762 -0.0140902 -0.0426082 0.0113603 
-0.0102314 -0.0438264 0.0115176 -0.00996305 -0.043797 0.00352238 -0.00601849 -0.0445891 0.00357883 
-0.00237017 -0.0429387 0.00361486 -0.00603146 -0.0407011 0.00453507 -0.00809226 -0.0441837 0.00707552 
-0.00920449 -0.0403412 0.00702675 -0.00410024 -0.0447919 0.0071711 -0.00556434 -0.041262 0.00848488 
-0.00051368 -0.0449857 0.00894659 -0.00199667 -0.0415145 0.0103022 -0.00629095 -0.0445105 0.0107167 
-0.00817004 -0.0403914 0.0114075 -0.00265983 -0.0448871 0.0123563 -0.00443581 -0.0409815 0.0134691 
0.00831937 -0.0441976 0.00364212 0.00454438 -0.0429401 0.00406956 0.00106048 -0.0449686 0.00402644 
0.00882299 -0.0406771 0.00681466 0.00721538 -0.0443867 0.00749528 0.00485732 -0.0406385 0.00734249 
0.00323531 -0.0448466 0.00743055 0.000957507 -0.0415558 0.00749996 0.00726404 -0.0413539 0.0104721 
0.00510292 -0.0446842 0.0109728 0.00192698 -0.0411455 0.0113831 0.00138575 -0.0449582 0.012479 
0.00862081 -0.0441302 0.0133959 0.0146676 -0.0415064 0.00358422 0.0116304 -0.0434496 0.00579362 
0.0173062 -0.0415191 0.00664177 0.0104329 -0.0437666 0.00982963 0.0141515 -0.042659 0.00884311 
0.0173342 -0.041499 0.0110094 0.0132065 -0.0429552 0.0127762 -0.0309948 -0.0325778 0.00390246 
-0.0320632 -0.0315529 0.00769684 -0.0314096 -0.0321959 0.0118146 -0.0247543 -0.0333726 0.00349796 
-0.0212777 -0.0354108 0.00368094 -0.0213326 -0.0314269 0.00429719 -0.0246968 -0.0373107 0.0046046 
-0.0280623 -0.0351539 0.00487734 -0.0270599 -0.0316032 0.0064264 -0.0231981 -0.0341091 0.0072191 
-0.0235538 -0.030053 0.007943 -0.0228229 -0.0387506 0.00796758 -0.0261904 -0.0365841 0.00825224 
-0.0292875 -0.0341211 0.00901279 -0.0256911 -0.0326995 0.0100557 -0.0288321 -0.0300298 0.00965458 
-0.0218413 -0.0320791 0.0110266 -0.0233153 -0.0358094 0.0109386 -0.0217629 -0.0393458 0.0119791 
-0.0277192 -0.0354214 0.0125646 -0.0277439 -0.0314253 0.0132485 -0.011002 -0.0399051 0.00345731 
-0.0176962 -0.0373464 0.0038027 -0.0142281 -0.035306 0.00392951 -0.0177499 -0.0333369 0.00426857 
-0.0142896 -0.0313116 0.00424504 -0.0102442 -0.0314826 0.00380558 -0.0143857 -0.0389707 0.00554733 
-0.0111677 -0.0366731 0.00617442 -0.0119671 -0.0327516 0.0071925 -0.019634 -0.0364525 0.00718847 
-0.0162563 -0.0301281 0.00767801 -0.0195382 -0.0324557 0.00777251 -0.0156574 -0.0341104 0.00817003 
-0.0162598 -0.0379903 0.00894361 -0.0120611 -0.0395255 0.00975076 -0.0120855 -0.0355253 0.0100928 
-0.0136931 -0.0315608 0.0106094 -0.0176653 -0.0315577 0.0111941 -0.019304 -0.0352561 0.0110006 
-0.015482 -0.0348303 0.0121129 -0.0148618 -0.0387714 0.0126101 -0.0109515 -0.0329576 0.0132268 
-0.00793468 -0.037309 0.0035786 -0.00625226 -0.0309656 0.00377458 -0.00220624 -0.0309608 0.00379356 
-0.00421285 -0.034434 0.00381714 -0.00122369 -0.0371834 0.00358727 -0.00777287 -0.0339933 0.0059682 
-0.00248191 -0.0399356 0.00625704 -0.00519703 -0.0370302 0.00672466 -0.00170601 -0.0335393 0.00700719 
-0.00407527 -0.0302672 0.00736607 -0.00157761 -0.0370623 0.00893488 -0.00843361 -0.0369626 0.00910985 
-0.00500172 -0.0339632 0.00930936 -0.00885879 -0.033023 0.00979702 -0.00224496 -0.0314322 0.0107392 
-0.00608736 -0.0302385 0.0108307 -0.00495123 -0.03787 0.0109295 -0.00966402 -0.0369959 0.012918 
-0.00313412 -0.0347889 0.0127648 -0.00140961 -0.0384077 0.0127698 -0.00701801 -0.0338855 0.0132532 
0.00168444 -0.0399297 0.00387088 0.00641959 -0.0393701 0.00387463 0.00371761 -0.0364162 0.00387161 
0.00506701 -0.0325851 0.00378628 0.00775476 -0.0355835 0.00373347 0.00886425 -0.031308 0.00406547 
0.000796875 -0.0336838 0.00372647 0.00601695 -0.036794 0.00719563 0.00312711 -0.0338658 0.00718835 
0.00422065 -0.0300243 0.00746618 0.00210129 -0.037721 0.00748995 0.0072385 -0.0330452 0.0078739 
0.00175336 -0.0316473 0.0102536 0.00817518 -0.0363585 0.0105759 0.00464678 -0.0383078 0.0106374 
0.00633791 -0.0305175 0.0108462 0.00976093 -0.0326606 0.0110571 0.00480596 -0.0342245 0.0108873 
0.000828118 -0.0352828 0.0116461 0.0100351 -0.0367342 0.00699498 0.0105491 -0.0389603 0.00363997 
0.0144734 -0.0370276 0.00378885 0.0182478 -0.0389173 0.00369871 0.0171772 -0.0310215 0.00395064 
0.0131219 -0.0305562 0.00407751 0.0115483 -0.0343033 0.00405103 0.0181652 -0.0349106 0.00412218 
0.0149036 -0.0335866 0.00612286 0.0131061 -0.039395 0.00676389 0.0110506 -0.031669 0.00739801 
0.0166093 -0.0374924 0.00714543 0.0192111 -0.0321404 0.00725868 0.012755 -0.0348641 0.00925512 
0.0167301 -0.0343079 0.00961054 0.0142264 -0.0311794 0.00977997 0.0109092 -0.0397451 0.0101114 
0.0146171 -0.0383083 0.0105581 0.0185617 -0.0376732 0.0107792 0.0180486 -0.030744 0.0108818 
0.011594 -0.0366852 0.0126326 0.0194467 -0.0343391 0.01281 0.0143644 -0.0338011 0.0127988 
0.0250592 -0.0323272 0.00409339 0.0221917 -0.035118 0.00392413 0.0211764 -0.0312318 0.00377955 
0.0288686 -0.0342808 0.00431542 0.0258004 -0.036854 0.00423868 0.0221947 -0.0391398 0.00436085 
0.0284984 -0.0302507 0.00414135 0.0203253 -0.0360028 0.00741496 0.0237935 -0.0339858 0.00750931 
0.0206565 -0.0399629 0.00825475 0.0274039 -0.0357074 0.0077732 0.0240855 -0.0379751 0.00769733 
0.0272247 -0.0317109 0.00788287 0.0217798 -0.0321149 0.0104206 0.0294609 -0.033939 0.0107156 
0.0224611 -0.0360406 0.0108033 0.0255226 -0.0333403 0.0111232 0.0287948 -0.0300916 0.0115922 
0.0215051 -0.0395025 0.0127769 0.0257433 -0.036916 0.0129245 0.0316652 -0.031939 0.00595891 
0.032355 -0.0312248 0.00996032 -0.0402226 -0.020106 0.0110565 -0.0361403 -0.026753 0.00351921 
-0.0399269 -0.0207376 0.00398233 -0.032788 -0.0289985 0.00334545 -0.0303009 -0.0254676 0.0036312 
-0.0329139 -0.0213819 0.00424798 -0.036661 -0.0229444 0.00468463 -0.0334151 -0.0248966 0.00609532 
-0.0307366 -0.0278649 0.00686458 -0.0347017 -0.0285727 0.00700702 -0.0391723 -0.0220492 0.00769757 
-0.0370411 -0.025474 0.00801474 -0.0311979 -0.0222137 0.00807394 -0.0351794 -0.0216187 0.00818744 
-0.0335469 -0.0247279 0.0101209 -0.03252 -0.0285859 0.0103762 -0.0382658 -0.0236533 0.011456 
-0.0352905 -0.0210624 0.012162 -0.0314042 -0.0221155 0.0123025 -0.0360323 -0.0269185 0.0124003 
-0.0312189 -0.0263122 0.0134325 -0.0289738 -0.0216877 0.0035665 -0.0250165 -0.0210859 0.00365209 
-0.0287616 -0.0292342 0.00361924 -0.0218141 -0.0234825 0.0037026 -0.0212891 -0.0274519 0.00370615 
-0.0253831 -0.0253393 0.00395164 -0.0247768 -0.0294017 0.00398343 -0.0276965 -0.0237041 0.00678508 
-0.0229899 -0.0258316 0.00719205 -0.0266244 -0.0275146 0.00742201 -0.0241171 -0.021996 0.0074585 
-0.0296187 -0.0254396 0.00984821 -0.0255078 -0.0247769 0.0102334 -0.0279468 -0.0215827 0.0103175 
-0.02174 -0.0235057 0.0106981 -0.0219866 -0.0275169 0.0107035 -0.0241971 -0.0203734 0.0111595 
-0.0274396 -0.0275084 0.0124897 -0.024154 -0.0296346 0.0133287 -0.0207928 -0.0207465 0.0134989 
-0.018603 -0.021097 0.00374476 -0.0144566 -0.0270915 0.00393433 -0.018033 -0.0250887 0.00392368 
-0.0113609 -0.0245096 0.00375647 -0.0148683 -0.0225376 0.0038968 -0.0177664 -0.0293376 0.00402931 
-0.0111359 -0.0205019 0.00391577 -0.0118588 -0.0287906 0.00647997 -0.0156624 -0.0250543 0.00720169 
-0.0195529 -0.0231345 0.00708543 -0.0124612 -0.02263 0.00714621 -0.0199047 -0.0284737 0.00742274 
-0.0103272 -0.0257482 0.00863151 -0.013886 -0.02765 0.00973778 -0.0184875 -0.0257144 0.00995916 
-0.010255 -0.0293894 0.0108071 -0.0181063 -0.0218012 0.0107255 -0.0145556 -0.0238686 0.0108674 
-0.0110504 -0.0218255 0.0108131 -0.0115116 -0.0259463 0.012471 -0.0166155 -0.0280057 0.0127106 
-0.00427584 -0.0235664 0.00356228 -0.00877278 -0.0276038 0.00367971 -0.00713521 -0.0205366 0.00392003 
-0.000180372 -0.023262 0.00402778 -0.000933368 -0.0271853 0.00425511 -0.00490075 -0.0273334 0.00476575 
-0.00756961 -0.0242426 0.00609402 -0.00811175 -0.0298648 0.00738656 -0.000756209 -0.0210308 0.00731447 
-0.00276168 -0.0245026 0.00733475 -9.34939e-05 -0.0298799 0.00717148 -0.00891574 -0.0207369 0.0075414 
-0.00491724 -0.0211431 0.00764864 -0.00577504 -0.0268115 0.00865817 -0.00197605 -0.0275419 0.00982753 
-0.00732934 -0.0233347 0.0101458 -0.0017479 -0.0239247 0.0115402 -0.00478187 -0.0206923 0.0117392 
-0.00758099 -0.0267686 0.0122333 -0.00390647 -0.027952 0.0133133 -0.000844745 -0.0200282 0.0113082 
0.00210305 -0.0298854 0.00382013 0.00667434 -0.0246954 0.0042071 0.00972529 -0.0272913 0.00417612 
0.00589082 -0.0286201 0.00409653 0.00363895 -0.0220414 0.00419239 0.00288425 -0.025981 0.00424623 
0.00683964 -0.0214017 0.00651981 0.00807015 -0.0289197 0.00750124 0.00134643 -0.0244237 0.00760965 
0.00516681 -0.0261554 0.00787336 0.00202437 -0.0276758 0.00984595 0.00646148 -0.023118 0.0101396 
3.00661e-05 -0.027074 0.0132743 0.00256687 -0.0222968 0.0107851 0.00772075 -0.0267848 0.011257 
0.00913134 -0.0205079 0.011687 0.00411038 -0.0255711 0.0125431 0.00329113 -0.0294332 0.0132201 
0.0172952 -0.0270195 0.00367889 0.0137605 -0.0251546 0.00391175 0.0171504 -0.0226735 0.00391162 
0.0134414 -0.0211678 0.00398304 0.0103564 -0.0234612 0.0051893 0.0126921 -0.0276854 0.00683883 
0.017756 -0.0251249 0.00720136 0.0164959 -0.0289198 0.00737143 0.0185275 -0.0211943 0.00740384 
0.0137497 -0.0232644 0.00744118 0.0107362 -0.0206352 0.00800721 0.0103089 -0.0247144 0.00899944 
0.0138673 -0.0260468 0.0103133 0.0110087 -0.0288565 0.0102861 0.0165186 -0.0229754 0.0103772 
0.0177666 -0.0267445 0.0109295 0.0126631 -0.0223472 0.0112548 0.0192227 -0.0231148 0.0133498 
0.0111331 -0.0261159 0.0132482 0.0246037 -0.0239755 0.00384076 0.0203288 -0.0201695 0.00373419 
0.023609 -0.027977 0.00383847 0.0205787 -0.024749 0.00402428 0.0282288 -0.0212127 0.00396211 
0.0270786 -0.0266445 0.00553414 0.0202319 -0.0281383 0.00615932 0.0223197 -0.0221949 0.00660015 
[...]
POINT_DATA 5999
FIELD FieldData 7
id 1 5999 int
544 862 380 155 1613 1124 514 477 215 
124 474 532 780 482 144 333 828 454 
414 161 625 218 866 40 1461 328 882 
1092 1037 856 877 455 250 122 18 885 
1323 67 995 1765 307 901 495 1119 430 
1350 531 1045 19 1213 120 97 520 924 
598 1044 505 200 1171 680 100 1270 254 
390 1098 282 1477 997 107 52 135 145 
379 228 551 450 407 271 1506 153 1328 
1575 1164 1828 1995 1620 647 1861 795 566 
53 263 1095 426 158 257 27 242 209 
194 10 1286 981 1650 452 1289 1834 1299 
65 1589 1846 589 408 476 501 336 706 
1008 138 596 400 185 83 892 233 1446 
1232 665 772 2165 773 203 246 230 992 
364 41 404 777 567 1033 109 338 391 
1067 1632 907 696 707 1580 1471 852 1677 
46 247 608 760 245 690 397 47 1358 
1792 605 968 1387 1284 1608 1434 147 449 
1850 1543 154 340 1678 557 1316 966 115 
274 440 512 285 1280 675 580 443 764 
750 1188 1013 323 889 2027 662 1019 344 
434 816 378 623 874 33 713 1005 94 
1162 488 183 198 548 1563 574 1416 493 
294 669 946 11 724 63 502 302 49 
402 1476 119 55 1043 953 1463 1639 2042 
1836 744 2067 546 704 1015 174 424 199 
1166 464 1418 1028 515 711 1640 818 1331 
1242 1023 1605 1059 905 1647 776 469 365 
952 504 684 371 633 1676 1285 1179 534 
2292 2285 1789 1855 1159 1944 114 276 8 
149 758 918 641 102 392 937 2221 1754 
943 1697 1862 1074 1609 1274 938 310 396 
614 1042 876 54 844 1036 1176 858 1412 
248 2136 442 1217 1191 1491 1330 1406 785 
69 1468 2296 872 112 210 516 509 401 
382 90 267 1114 22 689 617 643 652 
471 800 861 136 413 1057 249 921 1327 
2328 1178 437 349 787 348 1107 659 57 
223 525 703 803 741 639 824 1064 1113 
1389 578 1398 319 961 131 360 281 550 
163 650 68 1537 125 533 1325 243 668 
854 1407 1683 963 977 1345 2129 1561 1844 
664 311 84 374 345 487 674 1623 1208 
1722 1055 697 1448 7 1672 9 2047 832 
1594 296 429 99 113 42 815 190 951 
201 964 808 403 747 990 986 179 1525 
888 1201 1597 1555 66 1126 205 616 293 
1338 38 718 1152 994 1482 1404 1174 2128 
1684 1012 1644 1572 1240 1753 168 1144 1494 
317 875 1185 353 980 833 622 1177 1497 
1710 726 270 1377 1913 1960 1628 1852 630 
848 39 1077 117 256 1083 635 291 1288 
859 1508 819 1931 1383 240 987 1369 2312 
1223 1199 350 528 962 461 1035 231 523 
123 679 1775 779 43 927 1132 1319 834 
518 1243 2278 1767 1347 86 142 423 314 
590 1180 739 754 1276 1214 372 1262 853 
1355 692 139 1372 1324 1222 749 506 894 
1503 686 802 417 134 92 1123 1584 399 
562 1212 615 1961 1118 1679 898 222 1196 
1329 1385 25 20 783 1096 126 558 72 
1359 1772 1233 826 1830 202 613 767 881 
941 1500 978 318 1071 731 485 447 354 
906 1333 619 884 1443 369 1231 1310 1235 
1429 1548 2307 1472 694 175 821 221 58 
584 612 1101 1133 496 727 545 278 1130 
1295 1618 376 508 1622 1099 1822 1081 1536 
1374 1105 931 903 342 445 543 500 831 
1586 1140 1509 2104 869 575 1003 491 1839 
1091 1356 1263 2021 489 441 427 1486 627 
1481 710 1027 1088 1569 830 1876 1728 1030 
1366 1964 1125 479 1529 483 2038 967 784 
1142 322 900 1692 855 537 695 1674 1202 
1281 1845 1181 1444 893 1630 1967 1279 812 
1492 788 73 410 421 393 1161 896 389 
933 1120 1100 658 1145 1060 1886 1982 1702 
1493 1399 2346 959 1925 1032 458 48 108 
842 751 137 1945 1041 1914 1517 914 241 
367 418 1151 693 796 1011 870 1557 1948 
1006 879 604 1014 105 292 781 1516 1009 
1334 24 511 756 1228 673 873 1221 1038 
1353 835 1122 12 857 766 224 755 742 
1351 775 813 610 890 654 867 1744 982 
1111 1225 110 983 1842 1357 585 16 5 
463 23 1269 971 330 607 702 920 499 
1131 1567 1522 1928 794 1362 2362 1158 2001 
2139 998 1254 1128 352 77 594 462 1512 
677 667 682 280 1871 947 843 2018 1907 
237 743 229 206 78 1460 1277 346 563 
845 526 840 1395 1300 300 355 1226 878 
942 1480 838 728 717 886 170 763 1106 
193 1168 370 678 1238 309 587 792 1428 
1320 1148 570 1305 381 606 305 498 375 
734 560 517 384 127 297 719 189 362 
1054 188 565 431 1089 148 1707 555 712 
935 1478 81 432 286 934 171 956 730 
975 527 1010 1487 1796 1831 1139 993 723 
1445 253 473 128 320 377 564 1426 984 
1778 503 1112 1977 1812 88 1197 1080 1149 
1297 1104 1450 1673 1301 919 1073 313 341 
182 295 101 1294 1439 1576 922 2248 632 
232 817 366 1370 2319 2237 586 847 745 
1066 288 954 265 716 239 1523 1018 1090 
167 1052 1459 2279 1078 2242 1312 789 1553 
1499 535 1024 387 915 214 657 949 827 
303 988 419 32 588 778 1344 1884 1255 
1936 700 1826 394 836 165 592 244 298 
1086 331 572 1193 70 1490 1430 1335 29 
737 1879 1972 459 733 436 287 519 868 
334 691 1237 301 36 1020 746 1153 676 
420 2114 453 911 2452 631 640 191 273 
260 721 996 64 326 541 216 1150 1085 
180 974 1311 979 930 484 809 164 87 
315 1402 98 579 671 80 79 225 910 
283 646 130 955 186 709 648 958 609 
1976 1682 940 1021 356 1040 576 3 266 
337 480 626 448 238 765 368 1321 1271 
1069 554 561 405 150 887 74 159 944 
524 75 1583 50 1400 1384 481 103 361 
347 316 197 522 656 849 573 51 2 
1135 13 1532 740 60 1566 620 1984 104 
21 1016 1097 212 412 923 891 1022 600 
688 841 1604 1343 1560 435 559 2010 2225 
2446 1072 736 1220 146 660 388 472 93 
357 771 1346 439 925 1349 1617 1449 1726 
790 2406 1257 715 556 91 839 425 880 
926 62 1442 258 1004 603 1394 1819 1001 
1897 1367 774 325 1102 521 76 160 290 
121 152 1248 1246 791 957 683 793 618 
1309 1156 284 1540 681 644 1510 1625 332 
628 28 406 569 177 386 599 35 272 
277 251 725 1436 373 685 846 698 1859 
416 2158 1103 478 748 929 235 1611 312 
1227 738 1670 329 976 820 638 1695 547 
752 1582 192 428 226 116 1368 227 799 
95 1205 991 850 85 34 1273 804 1267 
363 928 1655 151 705 1899 220 1084 582 
1053 1136 306 61 383 1165 1296 1875 169 
2460 1873 1764 1172 468 1867 255 96 851 
304 513 1725 1134 339 275 798 89 14 
1298 1287 196 624 2055 1534 2049 2764 308 
118 1703 409 629 133 204 1745 2007 1571 
1641 1160 1868 1475 1410 1303 4 649 1484 
181 259 642 299 264 973 166 1068 811 
591 1000 2146 486 184 1167 538 1631 261 
1514 140 1117 529 15 6 636 45 321 
438 324 30 666 1504 490 1108 1651 645 
759 1542 1591 577 173 289 213 769 916 
507 433 195 143 415 59 157 1249 965 
583 801 466 1336 327 571 786 1752 1307 
129 475 1025 132 1173 999 234 593 1147 
1495 141 899 497 207 904 1290 552 510 
729 56 269 762 156 111 701 395 530 
422 451 1209 621 542 1816 1390 1980 2081 
217 268 1489 829 343 446 1189 768 1570 
162 909 735 1856 2690 1717 2680 2122 2843 
1790 2618 1 913 602 1245 3284 2196 2641 
2257 2100 3086 3465 178 26 1386 601 2289 
1638 2046 1259 1598 3160 2845 3808 864 2254 
2633 2720 2686 1906 1433 1278 2195 2349 2508 
1392 969 797 1194 1957 2073 1564 1869 699 
782 2247 2303 1581 2847 2102 2250 1326 2364 
1079 2621 2464 1547 2275 2245 1603 2987 3013 
2421 1783 2417 1661 2208 2963 1774 1602 1882 
1705 219 2527 1649 2157 2612 2121 1590 2106 
1681 2084 2526 1626 2098 2840 1690 883 1999 
1498 1878 1718 2031 1175 457 1488 1420 2003 
2825 1146 2351 2383 1800 2959 2833 1688 1411 
1614 1533 2472 2455 2187 2624 2684 1365 1421 
1251 1169 1258 1519 1981 3008 2377 2075 2355 
2932 2517 2606 3464 2545 3215 1485 1756 2295 
2735 411 1341 1187 1186 2416 1058 687 1952 
2044 1937 465 2560 2611 2689 2538 2675 1802 
279 1017 1275 2300 2143 1949 1733 1771 2391 
2646 1382 2314 2493 1991 2601 2041 2135 1458 
3193 1785 2781 2347 1026 2145 1633 1470 2185 
3348 1779 2869 2008 2613 3094 1746 2746 3425 
3411 3391 1843 1734 1768 1943 1538 2150 1437 
1696 2427 2305 1253 2291 2812 2767 2396 3297 
3027 1283 2065 2092 1883 2191 1654 1908 970 
2470 2009 1619 3082 2661 2532 2510 1983 1376 
1727 1414 2276 2183 2109 1170 1550 1691 2345 
1483 1456 1919 1405 1686 2511 2015 1978 2468 
2765 2953 3079 1182 2161 1780 1659 540 1953 
2408 1699 1693 2522 2562 1989 1716 2964 3175 
2515 2338 2423 1047 1652 902 1962 1224 2053 
1403 1954 37 2013 2173 2329 2298 2181 2943 
3024 3124 1737 1829 2776 1093 2271 1378 2429 
2859 1265 1592 2228 1680 1184 2004 2743 1968 
1858 1607 2667 2061 1065 2886 1887 1773 2491 
2385 2359 106 1354 1955 2066 2557 1848 2430 
2779 2226 2057 2142 2282 722 2177 3156 2816 
2668 2708 2363 3375 655 1749 2209 2113 1687 
2304 1562 2714 1794 1662 3173 2794 1917 2399 
2151 2103 2674 2457 3072 2093 1587 1595 1814 
2728 807 1408 1636 2190 1988 2916 2944 2182 
2870 3040 1881 2490 1701 1076 1210 1061 1979 
211 1203 1966 1070 939 1671 1668 2600 1264 
2804 2333 1413 1183 1272 2091 1763 2594 2549 
2666 1824 2050 2671 2111 2409 1840 3158 2846 
2687 2520 1141 1256 611 1552 806 2277 2301 
2652 1087 2317 2179 2440 2071 2745 2420 1811 
1417 1308 1685 2426 1958 1642 1219 1198 2709 
2370 2322 2361 1531 252 805 2565 1293 1863 
1905 1658 2116 2083 2579 3063 653 2205 1397 
1893 2366 1730 2665 1539 1924 2935 3339 1896 
985 1860 1250 1505 1215 1835 1759 1776 2774 
2163 2141 2688 1969 2773 3258 2206 2082 2373 
3029 2482 1890 2194 2014 1318 863 1268 2348 
2548 1902 1793 2796 2712 1723 1431 2861 1807 
1938 2875 3455 2772 2251 1317 581 2299 1109 
1127 1643 1315 1363 1396 2006 1993 1200 1736 
1452 1815 1994 1877 2207 661 1380 351 1513 
1155 2478 1507 2172 2577 1704 2392 1568 1558 
2786 2521 1051 2950 2849 1479 1340 1588 2297 
1888 1216 1927 1454 2531 1637 2130 2326 2595 
2737 2820 3012 2863 1809 1425 1049 865 1634 
1838 1206 2449 2607 1694 2215 2603 2357 1786 
2978 1545 2676 3003 1348 2159 2210 714 2240 
1094 1447 2256 1833 1920 2118 2699 2193 2192 
1332 1921 1629 2395 753 1663 1832 2086 1732 
1660 1689 1941 1900 2220 2798 3257 1577 1935 
1391 1573 1137 536 172 1813 2466 1653 1803 
2422 2770 2940 1624 2451 2036 1616 2290 1805 
3499 1735 2939 1946 3149 2043 1719 1002 2200 
2037 2052 860 2852 1440 1769 2488 2453 2024 
2537 2232 1502 2441 1885 1762 1990 2068 2473 
2827 2677 3246 2572 1804 1435 1252 1496 2379 
1992 2154 2258 1808 1998 2762 871 2026 2079 
2077 2439 2424 2752 2070 2647 2222 2504 2325 
1975 1615 1361 1821 2425 2140 1600 2716 2546 
945 2356 1729 1909 1739 1585 2564 1825 1720 
1455 1260 1787 1342 1541 2335 2589 2458 1599 
2112 1292 2094 2830 2630 2132 2573 2657 2969 
2217 2164 2844 3112 1518 761 1895 1750 1593 
1578 1521 1466 2124 1432 2095 2500 1851 1820 
2887 2404 1039 1930 2724 1381 1046 814 1129 
770 1501 1304 1360 1648 1646 1549 2503 2636 
1798 1956 2442 2725 3196 31 1063 1306 1031 
2264 2074 2400 1244 1911 1515 2459 1933 2584 
1738 2638 1621 1915 2682 2316 3054 1291 187 
757 2072 1528 1761 1810 1797 2994 2651 2269 
1524 2431 2445 1874 2462 2017 2985 2934 2176 
1940 1110 2615 2260 1675 1910 1352 1007 2414 
2839 1526 2529 2701 3053 1706 2799 1409 2342 
2587 3050 2413 2789 1870 1714 2034 2398 1556 
1997 1419 672 2123 2367 2386 2178 3047 2902 
2923 2352 2214 2274 1731 2436 1947 1337 1462 
1339 2133 1574 2012 1218 2238 1740 2759 1465 
2199 1892 1204 2543 1154 1546 1721 1664 82 
1766 1747 2108 1898 2658 950 2287 2167 2447 
3105 1451 1799 2213 2201 1535 822 568 553 
1743 932 1302 1415 1241 1970 1229 2324 2336 
2702 2888 2029 2230 236 2649 2492 1894 708 
2115 2148 1469 549 1082 2156 1190 1075 1880 
2340 2924 2175 2456 2321 2218 2751 1872 2288 
3277 2625 1236 358 1230 1115 810 2375 539 
1511 1559 1207 1666 1457 2186 1527 1709 2768 
2281 3251 2982 2654 2261 1056 1963 1441 1138 
2020 2019 2700 1029 1247 1379 2152 1849 1827 
2598 2212 1192 1234 1427 1635 2898 1742 2495 
2744 3138 1656 2318 2134 2750 2660 2223 1665 
1748 2622 2626 2592 2265 2174 2602 1818 2331 
3307 2376 2578 3980 71 1373 1048 1551 2119 
2160 2837 2283 2259 3031 1939 1853 2900 3234 
2547 2810 3232 2691 3280 3712 2841 2051 470 
1971 2910 948 2155 2101 2022 1801 1596 2502 
2310 3045 1864 2397 3017 2729 2561 3287 3274 
3225 2244 2184 2496 1314 1934 1669 2039 1841 
2203 2583 634 2559 3010 2063 2089 2494 2078 
2727 3153 3301 456 960 2090 2272 1375 444 
2040 1698 1712 1912 2711 1473 2590 2580 3398 
2936 2822 2390 2087 2882 3202 2035 1424 1467 
1163 2219 1565 637 1393 2410 2000 2054 1322 
897 1601 2957 2784 2360 3371 2627 2748 3145 
3270 1423 1261 17 2198 972 494 1121 2138 
460 1757 1544 2076 2188 2903 2988 2401 1784 
2080 1959 2380 2766 1388 1116 2629 2243 2032 
2064 2956 1715 1474 2394 262 2670 2948 3372 
2706 2170 2631 2171 1755 2030 1923 1932 1760 
2023 1612 2434 1788 2234 1791 2236 2513 2033 
2942 2872 3400 2270 2593 2563 2127 1795 2284 
2403 2211 597 2197 2180 2099 2411 2575 2586 
2350 3201 3171 1195 917 1401 2474 1758 2813 
1903 2992 1926 1034 3004 2758 1724 1627 1610 
1645 651 176 1453 1050 823 2497 1891 1313 
2302 1770 2229 2369 2692 3561 3341 2255 1713 
359 1579 989 2110 1708 1422 1282 825 2147 
2235 2523 2412 2778 2909 2585 2144 3406 1554 
2381 2060 908 1266 1530 2372 2126 2002 2501 
3172 670 1364 1239 1062 2542 1951 1973 1823 
2856 1837 2937 3120 3176 1922 2384 2327 1657 
1211 2569 3162 2970 3487 1143 2514 335 2056 
2131 2554 2775 2518 2866 3255 3718 3580 2999 
2528 2911 2938 3002 2435 2069 3106 2685 3493 
2771 3288 2742 3282 3564 2713 3025 3142 3955 
3289 3155 3713 2879 3722 3446 3279 2718 3060 
1996 3703 4216 2507 3056 1777 2918 3331 2977 
2512 492 2341 2588 3540 2801 3235 3471 2623 
3845 3639 4200 2864 4060 4618 2634 4497 3098 
3529 2862 2851 2262 2096 3319 3677 3822 2783 
2891 3032 3790 3077 4129 3148 2968 3413 2433 
3636 2958 4100 3362 3707 2308 3844 3334 3194 
3723 3405 3302 4149 3632 3523 3195 3985 2975 
2761 2506 3033 3256 3099 2487 3315 3682 4002 
3361 3472 2371 3433 3831 3913 3763 2418 2378 
2448 3174 3271 3095 3207 3378 2930 3761 3152 
3165 4248 3766 3967 3379 3618 4066 3735 3734 
2871 3187 3650 2855 4051 2499 2747 2467 2616 
3768 3350 3623 4439 4211 3894 3800 2332 2809 
3311 2553 1865 2806 2443 2568 2669 2877 2339 
2533 1950 2596 3537 3048 3500 3437 3578 3708 
3811 3868 2645 2483 2556 2330 3469 2239 3125 
2597 3313 3847 2740 3067 2189 4279 2973 3478 
4170 3851 3111 3037 2929 4647 4255 2834 4389 
3662 3833 3450 2946 4637 4813 3715 3303 2516 
3122 2795 3492 3920 2966 2904 3325 3449 2721 
3052 4000 3512 4480 3516 2368 2120 2486 2498 
3539 2673 3221 2505 3360 3346 2821 2628 2438 
3186 4056 3676 3983 2832 4521 4007 4946 4705 
2048 1866 2402 3249 2824 3553 2739 2808 3078 
2088 3041 3522 3599 2842 2907 3103 3188 3907 
3794 3527 2280 2415 3015 3699 2848 3028 3721 
2365 3572 3769 3898 3751 3226 3353 4317 3714 
3412 3806 4198 2105 2025 2450 1711 1817 2216 
3828 3199 2896 3365 3096 2648 3370 3534 2639 
2610 3238 3789 2867 3774 3556 3451 1700 3252 
2576 2389 2787 2829 2805 2268 4089 3799 3743 
3477 3615 3476 3826 3753 3482 3409 3642 3754 
4065 2387 3247 2858 2880 2231 3614 2983 3345 
3309 3000 3169 3260 3813 3594 3462 3415 3317 
3518 4403 1781 3338 2581 3005 2477 2168 2696 
3388 2354 3651 3166 3931 4504 3101 3634 1942 
3180 2694 2693 2838 2788 2984 2857 2927 3020 
4259 3829 3624 3344 4019 3773 3681 3286 1889 
2736 2540 3772 3679 3143 3183 3848 3457 3402 
3974 4134 3987 2432 3211 3690 2519 3208 2534 
2461 3090 3306 3616 2895 3418 3979 3695 3244 
3259 3730 4525 3897 2698 4291 1965 2005 1987 
2717 2659 3924 2732 3508 3542 2241 1741 2954 
3590 3825 3504 2726 4232 4253 3705 4120 3167 
2757 4113 3557 2769 2860 3706 3392 4281 2202 
3185 2656 2286 3227 2558 3655 1667 3368 3445 
3881 2544 4075 3611 3921 4699 3571 4590 2664 
3250 3620 1916 2883 3548 3001 2995 3100 3692 
3427 4306 3649 4133 3039 2444 3892 1806 3150 
3140 3466 3746 4154 3157 3222 3422 3973 4103 
3819 4084 2989 2678 2407 2922 2897 3890 2915 
3767 2894 3563 3136 2993 3237 3236 3399 3926 
3191 3652 3453 2263 2704 2741 2484 2683 2819 
3927 3748 3952 4125 2823 3108 3214 2323 2536 
2309 2481 3326 3327 2567 2541 3941 3545 2998 
2617 2914 3229 3638 2707 3685 3644 3189 2405 
2059 2125 1985 3129 2986 3066 3163 2293 3272 
3428 3107 3030 3837 3613 2885 3569 3336 2614 
3097 3075 2947 2571 3925 3810 4237 3550 4295 
4570 1901 2749 2343 2835 2539 3333 3498 3181 
4454 3393 3408 2881 3484 4112 3356 3622 3744 
2814 3363 3316 3858 2780 3935 2850 3762 4335 
3588 3891 3278 3506 3633 2951 3757 3981 3877 
3568 4233 4069 3324 4394 4207 4465 3387 3694 
3023 3864 3936 3061 4402 2899 3121 2169 2941 
2344 2653 2912 3530 3007 2928 3230 3243 3558 
2306 2722 3665 4128 3855 2476 3574 2632 2828 
3016 2733 3470 3084 2358 2756 4217 3663 2760 
3946 4114 3179 3071 2738 2393 2465 2570 2642 
2552 3022 2991 2971 3161 2599 3796 2807 3197 
2965 3205 4024 3867 3308 2865 2854 2204 3009 
2313 1857 2990 2337 2320 3109 2997 3617 2920 
2815 3501 4020 3619 3680 2249 3485 2382 2620 
2524 3351 2931 3602 3668 3135 3948 2817 2926 
2893 3601 3544 3130 3198 2974 4176 2802 3273 
3439 2919 3486 2797 2972 3164 3305 4365 3673 
3117 4165 4083 3088 3018 4531 4899 2253 3312 
3666 3582 3795 3431 4053 2011 3505 2763 3429 
3842 3177 2906 3560 3006 3390 3085 2604 2374 
2785 3014 3874 3552 2643 4081 3686 3479 4203 
3850 4062 3513 3700 2890 2471 3489 3448 3480 
3093 3300 4137 4309 3702 3239 3775 3359 2960 
3110 3575 2273 3373 3337 2697 3213 3087 2803 
3827 3945 4193 3991 4077 3950 3816 4311 4472 
4018 3749 3805 4811 2480 3395 4116 4097 2826 
3719 4736 3159 3779 4102 2608 2016 2162 2961 
2908 2535 3403 3123 4017 3871 3835 3777 3419 
2792 2428 3720 3383 3541 3245 3463 2137 1918 
2753 2555 1854 2609 2723 1974 2463 3295 3491 
4187 4163 3233 3343 3043 3304 2045 2730 3756 
2233 3494 2925 3329 3314 3299 2655 3262 2889 
3975 4425 4201 2334 3661 3019 2933 2153 1847 
2679 2437 3741 1904 3074 3760 3394 2353 3432 
3832 3533 4288 4486 4320 3420 2962 2227 2705 
3151 3182 3146 2224 2754 3904 3070 2734 2605 
2681 3178 3785 3900 2853 3660 4058 4215 3554 
3223 3042 3133 4146 3999 2097 2315 3170 2715 
3546 2672 2731 3737 3318 2800 3732 4252 4250 
4174 3716 4219 4591 3965 3865 3846 4228 2525 
2469 3733 3190 2635 3224 3803 3296 4108 3627 
3968 3930 3629 3876 3051 4152 4047 2981 2062 
3893 2952 3065 3745 2619 3559 2917 3793 3626 
3036 3407 2550 3878 3962 4157 2644 3219 3358 
3330 3369 3436 3836 2551 4041 3969 3354 3597 
3917 3653 3643 3697 3291 4131 3782 2703 2949 
2311 2884 2874 3267 2485 3091 3929 4078 3216 
2719 3688 3116 3818 2591 2475 3367 3248 3269 
3736 3901 3240 3531 4055 3916 3021 4192 4589 
3292 2663 2831 3212 3397 2388 2892 3119 3704 
3352 3290 3787 3519 3141 3389 3382 3515 3068 
2876 3603 2913 3671 2107 2945 3114 3747 2582 
3034 3507 3495 3154 3454 3421 4391 3132 3691 
3802 3885 3798 3460 2294 3293 3081 3939 3937 
3357 3059 3562 2791 3069 3521 4505 3321 3535 
4336 4044 4602 4274 3566 3266 3073 3895 3263 
4035 3565 3517 4194 3342 3355 4578 3322 3430 
4300 4009 4023 3442 3752 3684 3646 3823 3683 
2489 4096 3049 3192 4118 2905 4316 4212 3635 
2650 3435 2793 2085 3444 1520 2811 3467 3843 
3934 4087 4459 3080 3503 2878 3203 3664 4107 
3401 2246 3268 2637 2058 3115 2479 3396 3884 
3026 2028 4091 3076 3709 4043 3038 2662 3386 
3217 3738 2266 3285 3912 2695 3701 4500 4275 
2530 2574 3591 3783 3410 3320 3759 3606 4426 
4223 3583 3254 4314 3511 3089 3538 3525 3641 
3573 3581 3046 3310 3964 4526 4119 4657 2868 
3630 4455 3807 4305 5330 4346 3657 3509 3532 
5136 4584 2836 3804 4039 3118 3335 4788 3792 
4166 3834 3958 4464 4734 4267 3875 3902 3919 
5177 4147 3972 3607 4124 3404 3862 3758 4367 
4168 4098 4709 4433 5972 4510 5237 4422 3058 
3440 3778 3654 3276 4392 4358 5006 6024 5163 
4636 5520 4151 5727 5934 3727 3547 3670 3977 
4257 4360 3147 4276 4894 3933 3567 5978 5578 
5503 5018 4139 4326 4388 2955 4310 3764 3349 
4475 4286 4398 4318 5394 4733 5147 4416 4642 
4072 4270 4918 4390 4738 4818 5772 4954 4285 
5312 5159 5017 5002 4640 4509 3675 2967 3711 
3083 4375 3961 5535 4609 4027 4997 5137 3797 
5599 4415 4661 3883 3717 4456 4395 4451 4536 
4086 5032 4424 5056 4771 4054 5911 5946 4188 
4460 5621 4251 5246 4418 5523 4241 5097 5490 
5468 4371 4420 4169 5082 4664 4463 4550 5157 
4580 5354 3918 5832 5644 4357 3993 4632 3264 
4496 4284 4567 4520 4225 5409 3947 3906 4626 
3729 4581 5364 5432 4775 4361 4366 4136 4543 
4619 5340 4458 4809 5360 4563 4354 5414 6002 
4706 3253 2980 4093 3771 4797 4993 4150 4648 
4321 4838 4707 4449 4537 4777 5734 5667 5155 
5973 4123 4038 5425 3347 3990 4161 4202 4003 
3853 4519 4290 4783 4453 4539 4680 3995 4667 
4916 5320 5116 4068 4559 2976 3298 2777 3674 
4012 5112 4696 3923 4410 5126 5262 3528 4240 
4413 3943 4444 5228 4431 4646 4891 4001 4957 
4071 4409 5994 3231 4130 3126 3908 5739 5007 
5516 5791 5579 3468 3242 3963 3459 4175 3956 
3328 3809 4745 4191 4343 5632 4663 5921 4700 
3376 4205 3821 4117 4924 4523 4980 3481 3992 
5154 4405 5770 4502 5452 4287 4742 3672 3640 