# vtk DataFile Version 4.2
Generated by LIGGGHTS
ASCII
DATASET POLYDATA
POINTS 6000 float
-0.0128441 -0.0201101 0.00599913 -0.0132439 -0.0181503 0.00600151 -0.0110571 -0.0192069 0.00600049 
-0.0111779 -0.0212197 0.00600351 -0.0095595 -0.0178425 0.00600038 -0.00891487 -0.0197459 0.00603549 
-0.0093076 -0.0219489 0.00600003 -0.0114648 -0.0172387 0.0059988 -0.00737443 -0.0210773 0.00602693 
-0.00756031 -0.0178845 0.00600009 -0.0066883 -0.0229632 0.00600335 -0.00344027 -0.0218713 0.0059993 
-0.00313101 -0.0180261 0.0059989 -0.00473594 -0.0233957 0.006004 -0.00114016 -0.0182086 0.00601224 
-0.00146524 -0.0221721 0.00599896 -0.00559562 -0.0193971 0.00599789 -0.00562242 -0.0174009 0.00608354 
-0.0053965 -0.021425 0.00609374 -0.00271276 -0.023729 0.00611081 0.000167396 -0.0199228 0.00599863 
0.000512287 -0.0218892 0.00607416 0.000936181 -0.02384 0.00599999 0.00461342 -0.0227883 0.00599868 
0.00724757 -0.0215037 0.00600036 0.00604109 -0.0199034 0.0060044 0.0078285 -0.0178191 0.00599922 
0.00326008 -0.0190902 0.00599988 0.00251748 -0.0217968 0.00600248 0.000854665 -0.0180483 0.00602598 
0.0058328 -0.0179151 0.00599931 0.00426488 -0.0208196 0.00599934 0.00289411 -0.0237315 0.00638437 
0.00917951 -0.0221115 0.00600507 0.0115145 -0.0189836 0.00600284 0.013423 -0.0183932 0.00599908 
0.0109439 -0.0211295 0.00606348 0.00982432 -0.0179203 0.00601023 0.0154137 -0.0183855 0.00615052 
-0.0179389 -0.0157473 0.00599898 -0.0192663 -0.014249 0.00599793 -0.0195403 -0.0104121 0.00600648 
-0.0185076 -0.0121594 0.00600564 -0.017123 -0.0135821 0.00626233 -0.016005 -0.0152444 0.00599922 
-0.0164005 -0.0113787 0.00600048 -0.0146245 -0.0166893 0.00599975 -0.0140405 -0.0145987 0.00599889 
-0.0120529 -0.0143803 0.00600478 -0.0114379 -0.0124769 0.00600006 -0.0143799 -0.0113053 0.00599882 
-0.0141275 -0.00932173 0.006001 -0.0107373 -0.0103923 0.00599977 -0.00992692 -0.015875 0.00599923 
-0.0082084 -0.0138653 0.00600009 -0.00950897 -0.0119991 0.00625005 -0.0160648 -0.00880919 0.00602458 
-0.00793675 -0.0159283 0.00619239 -0.00767614 -0.00993009 0.00599977 -0.00752668 -0.0119241 0.00600024 
-0.00355796 -0.011909 0.00599864 -0.00178068 -0.0101881 0.00599812 -0.000885074 -0.0159616 0.00600501 
-0.00411146 -0.0160949 0.00600138 -0.00600094 -0.0154394 0.00600864 -0.00548727 -0.0113911 0.00599978 
-0.00570012 -0.00940388 0.00599888 -0.00624092 -0.0134549 0.00599956 -0.00374659 -0.00982581 0.00600036 
-0.0025475 -0.0148508 0.00600642 -0.00158018 -0.0121795 0.00609329 -0.0042911 -0.0138726 0.00614478 
0.000143137 -0.0111669 0.0059991 0.000891238 -0.014726 0.00599986 0.000835173 -0.00924362 0.00599973 
0.0036342 -0.0120892 0.0060001 0.00582388 -0.0159013 0.00600566 0.00730681 -0.0136041 0.00599887 
0.00505107 -0.00963643 0.00600238 0.00782045 -0.0158182 0.00600016 0.00450369 -0.0144008 0.0059993 
0.00242612 -0.0160055 0.00599864 0.00212959 -0.0107667 0.00601577 0.00552788 -0.0126985 0.00621064 
0.00276708 -0.00863342 0.00600246 0.0149391 -0.0164464 0.00600567 0.00981831 -0.0159216 0.00600083 
0.0155895 -0.0145519 0.00599965 0.0142323 -0.0126464 0.00599875 0.0111665 -0.0115843 0.0059991 
0.0162066 -0.0100616 0.00600216 0.0141441 -0.00941288 0.00600005 0.0123193 -0.0132182 0.00599903 
0.0105013 -0.0140444 0.00599971 0.00982038 -0.0100927 0.00600084 0.0090105 -0.0125572 0.00600053 
0.013589 -0.0147751 0.00601334 0.011756 -0.00959806 0.0059994 0.019035 -0.0138098 0.00599884 
0.0181692 -0.0156077 0.00599856 0.0173218 -0.0118663 0.00599932 0.0190425 -0.0107739 0.00600229 
0.0214509 -0.0106996 0.00603486 0.0205003 -0.0124545 0.00599886 0.0201976 -0.00914274 0.00599964 
0.0179684 -0.00908788 0.00599899 0.0221657 -0.00884212 0.00619137 -0.0206049 -0.00833269 0.00599867 
-0.0178844 -0.00797561 0.00600064 -0.021387 -0.00649261 0.00599849 -0.0198495 -0.00497311 0.00600494 
-0.021722 -0.00425446 0.00599964 -0.0180157 -0.00577966 0.0059988 -0.0238167 -0.00177759 0.00599978 
-0.017787 -0.00072735 0.00600067 -0.0179566 -0.00378221 0.00600146 -0.023186 -0.0056244 0.00600326 
-0.0198256 -0.00284116 0.00601858 -0.0217506 -0.00219184 0.00600022 -0.0198131 -0.000810453 0.00600251 
-0.0165865 -0.002324 0.00599911 -0.0162817 -0.00678008 0.00604577 -0.0159881 -0.00479329 0.00602037 
-0.00897166 -0.00840671 0.00599976 -0.0109696 -0.00841084 0.00613238 -0.0130717 -0.00762433 0.00599833 
-0.0107537 -0.00621615 0.00599934 -0.00860865 -0.00092873 0.00600084 -0.00833131 -0.00639467 0.00599881 
-0.0113017 -0.00413946 0.0059991 -0.0126658 -0.00563099 0.0060046 -0.0105252 -0.00222973 0.00599886 
-0.0144976 -0.00247167 0.00599843 -0.0153341 -0.00057985 0.00599781 -0.00864397 -0.00293075 0.00605451 
-0.0125005 -0.00253562 0.00611697 -0.0104579 -0.000165875 0.00599993 -0.000963586 -0.00836136 0.00600015 
-0.00702069 -0.00790482 0.00599788 -0.00297459 -0.00798109 0.00599984 -0.00492838 -0.0075561 0.00599982 
-0.00357976 -0.00567675 0.00599868 -0.00312464 -0.00368553 0.005999 -0.00130927 -0.00285126 0.0060609 
-0.00661581 -0.000752201 0.00599979 -0.00171671 -0.00642655 0.00599931 -0.00114923 -0.000685357 0.00599888 
-0.000465424 -0.00486638 0.00600038 -0.00535096 -0.00433742 0.00600024 -0.00299957 -0.00169077 0.00599917 
-0.00746181 -0.00454281 0.00599957 -0.00657031 -0.00275283 0.00599976 -0.00464295 -0.000586512 0.00627795 
0.000262822 -0.00673327 0.00600222 0.0076262 -0.00814028 0.00599936 0.00549998 -0.00562962 0.005999 
0.00534525 -0.0076347 0.00600175 0.00349916 -0.00676649 0.00601194 0.000556552 -0.0017262 0.00600031 
0.00713129 -0.00448029 0.00609697 0.00453117 -0.00385528 0.0060017 0.00631263 -0.00265954 0.00599955 
0.00224046 -0.00349864 0.00600865 0.00448414 -0.00185465 0.00600758 0.00615028 -0.000665561 0.00599906 
0.00830998 -0.00258256 0.00599939 0.00253236 -0.00142479 0.00599941 0.00190702 -0.00550673 0.00606905 
0.00830598 -0.00623747 0.00600009 0.00813866 -0.000463325 0.00599941 0.0157388 -0.00810854 0.00599947 
0.0126758 -0.0078124 0.00600167 0.0108649 -0.00696468 0.00599952 0.0148595 -0.00612361 0.00599906 
0.0129563 -0.00551617 0.00599879 0.0122777 -0.0015553 0.0059995 0.00912545 -0.004408 0.00599945 
0.011036 -0.00497751 0.00612485 0.0144348 -0.00412331 0.00599948 0.0105344 -0.00296567 0.00599971 
0.0160703 -0.00279932 0.00613438 0.0124423 -0.00356419 0.00599946 0.0100571 -0.00102416 0.00599975 
0.0149111 -0.00102322 0.00599949 0.0172936 -0.00111875 0.00607595 0.0171963 -0.0067413 0.00599885 
0.0191422 -0.00734111 0.00602597 0.0228808 -0.00698839 0.00599948 0.021215 -0.00588132 0.00600194 
0.0181178 -0.00496963 0.00604925 0.0199806 -0.00425402 0.00599892 0.0219313 -0.00383279 0.00599983 
0.0237657 -0.00304448 0.00599982 0.0182057 -0.00297341 0.0059989 0.0219845 -0.00183713 0.00599962 
0.0192744 -0.000471363 0.00599971 -0.0238532 0.00224652 0.00600128 -0.0187139 0.00315554 0.00601036 
-0.0187934 0.0051573 0.00606953 -0.0168598 0.00570627 0.00599935 -0.0230541 0.00409271 0.00599851 
-0.0188562 0.00718015 0.00599976 -0.0210261 0.0057813 0.00600477 -0.0237911 0.000223819 0.00599867 
-0.0216714 0.0019429 0.00600828 -0.020828 0.00378033 0.00605022 -0.0230761 0.00613694 0.00602945 
-0.0179366 0.00126723 0.00599753 -0.0163334 0.00314559 0.00600398 -0.0109003 0.00186039 0.00599944 
-0.0107711 0.00579213 0.00599944 -0.0132559 0.00333561 0.00601024 -0.0112417 0.00382856 0.00608364 
-0.0119823 0.00745656 0.00599936 -0.0123883 0.000350902 0.00603841 -0.0088732 0.00105366 0.00608659 
-0.0141182 0.00135934 0.00600238 -0.0149612 0.00461074 0.0060556 -0.0149682 0.00672829 0.00603358 
-0.00926836 0.00301359 0.00599903 -0.00811458 0.00809079 0.00599997 -0.0023245 0.00554872 0.00599954 
-0.00340671 0.00725256 0.0060284 -0.00233951 0.00290611 0.00600034 -0.00287916 0.000315576 0.00599985 
-0.00591766 0.00112449 0.00601068 -0.00116863 0.00131052 0.0062823 -0.00151416 0.00790643 0.00599965 
-0.00557226 0.00324239 0.00599887 -0.00709566 0.00457189 0.00604862 -0.00407897 0.00191423 0.00599943 
-0.00530806 0.00787264 0.00600095 -0.00682207 0.00656644 0.00599863 -0.00383396 0.00423535 0.00602538 
-0.000829453 0.00421298 0.00614489 -0.00493599 0.00590583 0.0060755 0.000336347 0.00259493 0.00599959 
0.00700663 0.0050099 0.00600461 0.00432383 0.000129069 0.00619517 0.000571777 0.000365624 0.00600015 
0.00620138 0.00133295 0.00599974 0.0048806 0.00476067 0.00599786 0.00436295 0.00211796 0.00599811 
0.00158553 0.00420483 0.00599882 0.00230757 0.00226496 0.00599897 0.00243553 0.00746772 0.00599863 
0.000485311 0.00790502 0.00599951 0.00305022 0.00556511 0.00599983 0.00819209 0.00662338 0.00599975 
0.00819034 0.00153898 0.00601295 0.0160021 0.000649952 0.00599887 0.0120747 0.000433528 0.00600127 
0.0101507 0.00097309 0.00599945 0.0115801 0.00237118 0.00599908 0.0132964 0.00342996 0.00601163 
0.00903714 0.00481071 0.00599986 0.00964846 0.0029077 0.00599988 0.0140189 0.00089415 0.00600054 
0.0102757 0.0063796 0.00599935 0.011083 0.0043847 0.00600417 0.0122498 0.00606231 0.00599941 
0.0158226 0.0044499 0.00599993 0.0142074 0.00563296 0.00600021 0.016677 0.00253036 0.00601874 
0.0168461 0.00755238 0.0059994 0.0212162 5.37657e-06 0.00599896 0.0238532 0.000887195 0.00599938 
0.0218235 0.00190865 0.00600016 0.0237954 0.00287541 0.00618986 0.020316 0.00342384 0.00599965 
0.0234915 0.00484095 0.00599924 0.0228729 0.00674204 0.0059994 0.0215038 0.00503058 0.0059988 
0.0207866 0.0073085 0.00599909 0.0179477 0.000995315 0.0062919 0.0198672 0.00147763 0.00602118 
0.0183306 0.00365208 0.00599905 0.0187971 0.00711788 0.00600117 0.0195193 0.00525701 0.00602699 
0.0175339 0.00549176 0.00605995 -0.0200357 0.00880639 0.00604819 -0.0215629 0.0100906 0.00600397 
-0.019596 0.0110237 0.00605995 -0.0170341 0.0121864 0.00601498 -0.0173333 0.0142123 0.00601999 
-0.015929 0.0156762 0.00599642 -0.0127612 0.015215 0.00601525 -0.011144 0.00926484 0.00610617 
-0.0144128 0.0107406 0.006011 -0.0108375 0.0146115 0.00599887 -0.0107039 0.0112369 0.00600927 
-0.0139971 0.0167941 0.0060472 -0.0118893 0.012864 0.00602052 -0.00860955 0.0101401 0.0059993 
[...]
POINT_DATA 6000
FIELD FieldData 7
id 1 6000 int
561 587 1053 49 1017 83 1455 224 1416 
195 14 296 719 477 234 68 785 12 
1789 789 158 217 608 1655 428 289 108 
443 624 287 179 412 214 556 986 297 
37 192 1555 508 941 569 441 1169 632 
961 837 1141 353 456 383 399 259 1132 
570 741 142 1300 455 1360 500 366 1464 
904 1095 1549 497 663 1266 946 207 1070 
1395 1429 777 700 639 1087 532 300 81 
980 550 56 638 717 533 298 123 581 
867 199 115 99 1064 879 1255 219 13 
305 326 26 605 1136 371 239 833 552 
231 1753 793 1890 992 647 2194 15 539 
894 1651 2061 141 404 695 479 301 143 
97 258 1332 693 1502 1028 189 1069 265 
616 511 274 772 248 762 1031 1001 988 
469 607 540 808 211 834 451 678 721 
34 253 205 725 59 658 1441 362 447 
1118 315 805 692 357 153 646 345 1092 
1658 1518 989 1103 1718 132 1219 323 1205 
2960 495 856 171 1104 1221 578 691 268 
3188 910 1063 1197 3170 1764 174 3090 4056 
5775 4036 6070 4887 2549 3083 122 5281 1823 
614 3713 537 749 1072 124 4248 810 1715 
1530 3538 5610 2169 2154 1217 751 504 611 
385 1671 2799 866 308 499 3546 2358 1468 
1647 652 737 1477 359 673 58 520 140 
669 529 651 1945 196 386 696 351 1123 
264 912 1149 622 635 774 482 968 1822 
783 1286 604 582 594 784 266 765 1005 
1365 228 1931 824 88 396 731 25 111 
440 5155 5793 3492 2417 4332 4101 3762 2608 
3345 1333 2923 5248 3494 3524 1249 2618 4198 
168 2481 2642 4422 2308 3382 1630 313 1352 
3080 3918 544 979 1234 1076 278 689 666 
1867 1670 47 960 1027 376 397 3410 184 
1043 1635 517 311 865 1617 2536 2268 304 
57 2245 79 425 221 74 263 317 939 
679 4541 2432 4974 5800 5204 2829 3996 5360 
6 5348 5959 5557 3402 3742 98 2735 3463 
4032 1350 1133 3022 995 2458 3924 336 1258 
4561 1011 3254 2682 1965 3611 2288 3949 776 
1032 1047 309 534 1048 204 186 896 391 
1180 1704 708 2497 1128 1747 2040 618 803 
1155 854 1265 800 466 1261 1253 905 1015 
1685 1143 1382 1592 2204 1457 2022 1314 2389 
1844 1829 923 662 2396 370 1797 104 547 
889 944 367 1473 64 790 148 957 828 
1273 1674 630 1243 1633 1643 10 1414 1025 
2059 364 3281 1174 1690 1572 2 981 1988 
1766 1119 1145 1013 2136 152 1312 1597 60 
1316 1355 11 619 965 1018 1152 2072 1022 
2328 417 1215 1523 1684 2148 3735 1854 2332 
1628 2431 1493 2962 1859 2906 4420 2378 2987 
2713 2614 2940 2220 1202 714 1504 1176 206 
73 1081 620 349 1914 2081 585 1147 1605 
1737 1439 1701 2423 2144 2566 3002 4647 589 
2542 2234 1486 2163 1680 1552 1153 2184 1554 
1733 2233 976 553 314 193 1808 1346 2456 
2513 2653 2261 2031 2046 2016 2447 1432 1570 
1485 2348 2738 2697 1909 2972 2617 2663 1763 
3322 2096 3297 3020 1373 2466 17 1540 591 
687 1543 222 1242 33 438 1840 2612 1201 
1357 1866 1319 2123 1389 1231 2732 1729 2000 
442 2264 374 2076 2216 2543 2594 348 3155 
332 293 1188 1426 151 1212 1106 1260 685 
727 494 901 285 1576 888 260 1130 493 
1793 210 723 563 94 225 378 197 1673 
1310 271 1084 1006 1329 1362 1026 735 460 
89 1093 1034 40 682 372 704 588 816 
1400 67 393 738 223 1004 874 846 562 
131 1317 498 781 318 521 418 102 84 
1021 775 1334 1652 100 407 598 1452 237 
1167 2097 2160 1703 468 764 32 344 713 
380 242 275 1120 155 1224 241 576 347 
160 1246 86 873 983 1884 369 368 519 
1421 72 999 1462 1682 510 276 557 694 
1575 1515 320 1274 970 1091 284 1611 1077 
1732 1932 884 337 36 1612 850 558 1739 
1158 1110 1060 61 885 522 545 683 584 
1309 373 235 166 244 572 39 18 2201 
1571 949 947 449 829 406 792 891 1638 
1951 1681 465 302 523 1083 656 55 1995 
718 1000 1664 133 2384 1413 579 2280 1193 
1164 1538 437 653 502 422 2118 294 408 
2260 1719 2452 1900 1113 329 1590 218 927 
1232 2350 1536 247 740 661 2609 2315 1233 
1198 1012 156 712 48 664 394 1045 631 
724 1517 1799 975 1510 710 815 2406 1291 
375 974 703 559 458 2078 1121 2006 680 
1369 734 1144 1223 66 1016 1759 1892 1237 
1775 1999 1134 1657 1852 2418 1042 358 432 
2237 1488 886 2572 1210 1227 2321 1020 2229 
1625 982 1430 2559 1741 1238 1471 1444 2791 
2252 1327 1054 227 419 230 129 1716 2093 
1038 279 797 1428 483 1698 2025 842 435 
525 1869 1562 1723 1636 2416 1906 1813 1901 
1964 1241 864 1792 2413 2267 2651 2862 2192 
3187 2890 1578 3198 1918 3331 2119 758 1937 
1407 2443 256 876 172 794 1908 955 3275 
2519 637 1367 117 1390 46 2013 2616 1942 
5048 2293 722 3168 216 1553 1139 2997 3346 
331 1810 4281 3104 3149 3073 2919 4351 4712 
1978 596 4103 817 1154 549 701 1405 1278 
20 1615 21 191 2424 176 628 454 1586 
1585 1574 908 840 595 1089 1226 232 1569 
954 1203 8 909 832 1714 2011 501 426 
1370 2171 1142 778 814 1662 1820 1535 629 
1107 1640 1435 1388 2470 4536 716 1307 2147 
3853 599 1138 1963 4160 1921 5020 1175 706 
1860 395 1213 541 1247 2674 2658 2931 1986 
392 333 872 154 690 1443 574 162 1447 
139 688 459 1828 565 2482 1434 1804 2010 
757 650 295 1588 819 606 782 871 416 
1609 356 402 795 858 848 811 322 161 
726 641 1878 859 1044 382 43 1397 1738 
1254 655 229 925 1484 1035 146 1993 1850 
126 182 2647 163 2209 677 820 1779 1994 
887 2075 3302 1150 213 1124 175 627 615 
551 825 1024 753 1331 410 763 7 220 
150 312 1275 994 931 956 1366 2017 756 
1151 457 892 1080 481 93 1293 261 1323 
462 586 63 173 23 1387 272 350 16 
1111 387 180 489 165 1036 1613 932 895 
518 1311 118 85 1731 286 1376 203 928 
1837 1566 1344 1567 1384 1166 1472 755 1325 
1558 2210 339 1437 898 1599 1321 310 252 
1372 922 319 1114 1178 1244 1666 1074 958 
341 1770 860 90 1108 101 1051 973 634 
959 411 138 852 698 1557 1148 771 613 
1479 1851 1786 190 779 1548 201 2156 1913 
1787 1086 496 185 1348 1354 1695 720 649 
567 791 1137 1385 1417 1450 476 766 2429 
1565 1841 1889 27 1379 836 1262 403 70 
1326 405 1618 1700 1398 882 2088 950 1589 
2145 843 977 2298 2052 1135 2045 280 1079 
352 1980 1096 2113 1228 433 360 1584 1186 
4 342 238 177 461 1377 823 2238 1363 
715 1603 1100 1105 919 863 1085 113 897 
676 2329 1843 1692 1475 1948 1539 1654 728 
560 1925 1476 2157 2083 1519 355 1436 62 
906 1537 1494 548 855 746 1499 471 527 
488 665 1713 1544 2711 768 1208 1308 2540 
1800 1512 1623 916 730 902 654 1157 1501 
257 1394 1065 788 1189 45 1938 215 1772 
1007 1380 1052 1827 1313 1248 2852 2601 327 
273 1285 334 2141 1098 1621 1868 42 2393 
3911 1102 1904 878 1936 2793 1950 1725 707 
998 478 1368 1023 105 1968 1460 2399 2402 
2020 1263 2673 953 2142 1207 2533 1645 3536 
2105 1928 3250 2115 2669 1220 125 3121 130 
2166 966 711 71 30 307 78 1886 5068 
3467 2104 542 2595 6002 3248 4055 4697 818 
431 1492 4073 5353 3440 4679 5018 4388 3295 
5824 3997 5850 4671 4470 5568 4473 6014 5957 
5774 6001 4639 5931 4843 5904 5563 5833 5709 
4909 5670 5980 5472 3117 5891 6058 5677 5773 
4720 3422 5324 5486 5199 5766 4191 1099 4001 
4628 3191 1809 144 2215 2625 1299 5740 526 
2246 3152 4019 3401 354 4426 1127 5430 2500 
1495 2802 2249 2535 4207 2167 4222 1454 4408 
2847 5047 5910 5154 3642 3078 3477 3462 3894 
2569 1545 4757 3193 761 2551 2240 1923 5178 
4319 5432 3045 5342 4848 3160 3922 5938 5847 
3027 1117 1040 1399 845 65 1349 2098 1356 
134 1126 200 2532 3108 1717 1957 3736 515 
340 335 3259 2307 1989 2492 1337 116 2262 
2504 1420 668 849 2179 2516 2152 1187 1627 
2094 1761 3186 2621 929 1541 1438 2117 1678 
1466 2703 2177 936 2828 2405 2463 1650 2761 
1315 3578 4400 2553 2604 1206 1665 2043 2603 
4696 4178 3053 2666 1864 3050 3623 3021 1687 
1392 1250 127 543 92 743 1347 1594 119 
799 377 1290 1058 1330 1214 821 346 1506 
838 1059 1097 770 813 1427 853 400 880 
145 164 1281 659 877 1773 2132 861 1109 
1547 2772 1929 1949 2127 1412 667 2202 2453 
28 1003 1842 2183 430 2818 2168 324 1831 
2336 773 754 564 245 1116 82 681 1146 
513 869 1225 1442 752 1668 381 135 626 
1409 807 583 524 699 1784 841 943 571 
159 512 226 1720 969 38 798 1066 580 
1050 945 1801 1614 1192 409 316 1872 660 
149 1796 54 467 281 2107 1691 528 915 
1341 31 1408 1287 1706 1653 420 1 1520 
2449 338 645 1019 1094 1710 1595 1736 157 
35 1162 306 2029 1478 415 918 1481 935 
389 1181 492 3 321 1580 1008 674 942 
1211 473 202 590 636 446 5 450 208 
95 491 1131 270 423 1159 269 516 181 
490 167 597 1445 1009 1386 934 187 1301 
325 530 188 938 267 1458 178 414 1056 
1846 439 390 686 914 2165 546 623 434 
51 1528 2131 1696 1039 1125 802 379 424 
835 233 996 4969 4446 3730 2720 3517 5492 
5977 5139 3594 4748 951 1879 5714 3349 4571 
3478 4356 2708 6008 5287 5082 5119 3388 5411 
5616 4735 5002 4484 5861 4277 4616 6003 6048 
5708 5825 2920 3131 1561 4787 3652 3819 5236 
4303 5171 4912 5011 4430 5400 2941 4819 5223 
5474 3838 4539 4107 5527 4525 6065 5246 5046 
5585 5816 4110 5403 5757 5923 5619 3778 5741 
3219 5424 5939 4675 5701 5435 4150 6024 6050 
4833 5138 4938 4851 5984 4972 5745 5521 5520 
6053 4299 2391 1381 4545 5703 4063 2430 4172 
5612 2064 5647 5523 1689 3649 3606 3064 4610 
2912 2146 1871 5394 4014 5449 3681 4917 4910 
4924 5301 3960 3740 2954 4901 4602 2995 2677 
4939 3731 4413 4598 3603 4338 4261 4986 4546 
3249 3424 5158 4167 4389 5099 4711 5390 4669 
4661 4017 3865 3826 5405 4656 107 52 254 
2583 1927 303 2313 1848 1785 1424 2297 2291 
4514 4100 4726 3660 3504 3279 2351 2684 1600 
2335 2867 470 3373 3225 2223 3863 3862 1876 
2281 2947 2486 2789 2714 2661 4188 2099 2116 
2760 1782 2879 3151 4158 3572 1916 3539 3563 
1915 3709 2933 3430 3047 3393 4531 2300 2950 
2812 2724 2373 3127 4523 169 427 448 1836 
1378 1579 485 2633 3447 786 76 343 1728 
2379 2632 733 684 19 1453 1883 363 1269 
75 96 621 41 702 575 2522 2436 2041 
1068 2354 612 2851 2501 1875 1661 2699 2865 
2103 2004 1524 2242 1383 2433 2866 2056 3361 
3134 2880 881 3106 198 1500 240 110 642 
1322 398 804 2643 2640 282 830 780 809 
1318 487 421 1179 464 277 505 291 2596 
1182 1656 480 907 2381 670 971 890 1806 
2080 1582 109 24 2375 3051 3591 4166 3962 
4368 4246 2570 4213 5684 5692 4117 5261 5808 
5928 4950 4895 5630 5280 5650 5736 5118 5699 
5869 5498 5075 5886 4723 5491 4991 5522 4214 
5458 5389 5667 5351 5624 5460 4907 4585 4846 
5206 5195 5344 3836 4176 243 4519 5381 4058 
5704 5311 5844 4118 5828 5760 5222 5185 4903 
5066 5786 3101 4874 5392 5414 5767 5721 5514 
6020 6018 3963 4407 4489 5896 5110 5300 5818 
5998 4383 4701 4330 5140 3542 5550 5763 4393 
5927 5168 5379 5345 5764 3377 3632 3873 2993 
4147 4076 2524 5006 4812 3936 4494 5166 4436 
5037 4323 3861 3566 4070 4937 3635 3812 3845 
3957 3945 3437 5142 4657 4145 1115 3655 4463 
3811 3084 4012 5369 4580 6055 4405 6045 4582 
3576 5307 4599 4653 4318 3537 4605 5013 3449 
5782 4643 3395 2296 2290 91 3672 1156 328 
255 3043 1185 2018 1073 3604 2284 1984 3122 
2050 3434 2585 3766 3614 2164 2657 2786 2729 
3787 3859 3799 3009 112 1075 913 2250 1865 
2143 2023 1953 2411 990 1498 1057 1954 69 
3016 1905 3129 962 1482 3024 3700 3497 6063 
1805 2563 4385 5974 3988 3006 2556 1514 2189 
2725 2407 2872 5831 1997 2190 2928 3017 2125 
2781 1907 3738 5209 2386 2425 5840 2537 4766 
3037 2891 4506 3678 5190 5251 4050 3982 4948 
4434 5218 4532 4984 5880 3013 4830 3293 4680 
5019 3450 3290 4828 5406 4898 2951 5076 5653 
3066 3561 4273 3035 3211 3023 2541 3464 4098 
5270 3030 3798 3005 4254 5937 3979 4042 2434 
6033 3252 3102 3374 4224 3210 2992 3384 5365 
3784 3475 3570 4029 4760 4040 2927 3239 5583 
5053 5798 4466 4633 5639 5473 2065 4244 4216 
4309 5193 4205 2235 3371 3381 3216 3909 3797 
4173 4544 3516 4433 4648 3619 4292 4148 4629 
3689 4817 3646 3548 4353 3860 4810 5835 3699 
4908 5662 4520 4253 4927 4688 4184 4033 3296 
4695 5380 5043 603 2341 1463 2028 429 1751 
1527 1371 1449 769 509 1288 750 2721 2129 
114 1339 617 1343 1030 2455 1425 1679 2203 
384 2345 183 2491 1251 444 2224 2644 2850 
2579 2217 3165 2274 3115 1235 1619 2175 3356 
2067 1173 330 920 1222 857 1513 1992 1508 
1917 1802 2111 1295 1184 1041 507 2057 9 
2737 1078 1336 2185 1529 2376 1960 299 5074 
2007 2092 1531 1194 1280 453 993 1991 2309 
1525 2037 2159 50 2581 2730 2502 2680 463 
2366 1707 1577 2814 2958 1067 2212 2622 1975 
2469 2495 3540 2033 3224 2892 1239 1930 2734 
1161 1568 2091 1268 2058 1990 1345 1648 1587 
283 2333 1526 1853 538 2916 3197 2176 1754 
1838 2174 2200 128 3328 1912 2733 609 2021 
2170 3801 2765 2830 2736 2813 2525 249 2337 
2686 2817 3421 3172 2211 1196 2641 5156 3125 
2451 2832 2988 4187 3123 4219 2498 3015 2999 
2512 2826 2101 4155 3426 3063 2241 3086 3048 
2758 3399 3758 2222 1082 2155 1677 2555 3075 
2610 3458 1289 2531 1245 2027 1364 2881 2507 
2667 3280 3602 3470 3363 1542 1676 2226 2982 
2124 2323 2178 1888 2370 2320 2247 1324 2314 
1140 2539 2468 2364 2362 1660 2012 3357 2790 
2701 2635 2319 1746 2394 2427 2694 5299 2932 
4182 2173 2750 2207 3891 4517 5748 2271 2039 
2827 5532 2387 4375 2773 2628 2756 2419 1939 
3262 2963 3291 3706 2592 2488 2796 3590 1338 
1270 1602 2748 2745 3558 2139 1788 2068 3067 
2978 1560 2994 3095 3156 3025 3448 3992 1943 
3358 5169 3372 3840 2696 1532 3189 3928 3465 
3551 4230 4645 2576 3934 2678 2044 4678 2860 
3245 3592 1749 1195 3708 2285 3769 2874 4285 
4121 3774 4861 4792 4090 2977 4193 3535 4390 
2747 3765 4482 4083 3126 3788 3529 3370 5628 
4502 4271 3966 2564 3461 3897 2935 4730 3444 
5848 4808 4143 4687 4655 5626 4673 5217 5001 
514 1940 868 87 1564 1342 1292 2462 3526 
4497 5508 5012 1750 1593 1283 1422 978 1037 
250 760 640 1982 2243 1480 1199 2272 1491 
2082 5581 1877 3455 1814 2834 3014 2754 2605 
1264 2554 2515 137 2969 2705 3196 3324 1229 
822 2742 2186 3950 3763 3146 3062 3071 5293 
2102 2979 1767 1303 2514 1744 2269 1620 1817 
1411 1328 4386 806 1899 1122 1642 2380 2051 
2195 2014 2085 3586 1791 3031 2258 3362 1546 
1461 1933 2807 2302 3074 1934 1631 1898 739 
1855 1598 1781 3099 3059 4593 2327 2840 2755 
883 2671 2403 3489 2193 3326 930 2371 2518 
2275 3351 1663 991 1639 2248 484 1267 1856 
1163 643 1765 997 1209 2768 1815 1743 1271 
2743 1711 2956 1659 2577 1783 1305 1183 1465 
2151 1774 2401 1252 2277 1061 2048 1282 1171 
2066 3205 2114 2283 1955 2889 2392 2521 2675 
2511 2259 3012 3174 2060 2895 2870 3175 2907 
4243 2952 2659 3112 2774 2196 3715 1393 1862 
194 2153 1256 1699 697 831 1359 1903 940 
2567 1794 1456 1824 2106 1055 1304 1415 2001 
2483 2254 2084 1795 2869 2255 2024 1294 2331 
1845 2557 1129 1946 1667 1165 2692 1062 1634 
413 2365 2032 2517 1551 1353 2547 1961 2367 
2095 2182 1776 1236 2412 2305 1694 2316 2670 
2550 2584 2552 2273 2377 2441 2623 1550 2086 
2580 2883 2444 1669 2359 1956 2811 1559 2266 
1726 2822 2251 2771 2042 2565 2599 2983 2317 
1962 2213 1740 1922 1919 601 475 2270 1297 
2620 1474 365 705 1996 1029 1591 1973 3011 
1894 948 1088 1487 1683 1200 933 1606 1049 
2710 2917 2561 1839 1760 2505 2528 1516 1637 
2385 2706 2479 2388 2343 2574 3360 2357 2819 
1911 1697 1276 3666 2161 2700 3044 1302 3782 
2230 1902 2709 1798 2187 3846 1002 3150 1705 
1374 2339 1947 729 1601 147 474 593 2008 
2606 3359 3223 3397 2751 2588 1406 1190 2049 
2882 2582 3627 3532 2886 1624 2722 1757 926 
2520 633 3319 1608 648 4490 3303 2253 2400 
2035 1375 1858 1489 3332 3857 3878 1284 2437 
1298 796 1279 2545 3060 3118 745 2970 3195 
2289 3472 1835 767 967 736 1604 5663 5334 
4421 5926 6064 6017 6028 3109 5815 4443 4137 
5779 5556 5900 4358 5173 5073 5805 5901 5567 
4880 5930 5539 5799 5052 5141 5728 5987 4459 
5576 5623 5788 3607 5882 4534 3837 4335 5605 
5266 4976 5538 5208 5690 5220 5464 5794 5635 
5994 3618 2395 5986 5737 5946 4651 4728 3792 
5446 5256 4700 5804 5229 3648 5231 3620 4959 
5569 5846 5734 4367 5722 5027 3507 3171 4965 
3348 3292 6038 3822 4203 4807 5292 4028 3926 
5839 5196 5029 4365 4105 4003 3892 5494 4761 
5310 5150 4758 5856 5877 5420 6029 4595 5631 
4425 3553 3630 4522 5551 4771 5163 4862 5858 
5625 3745 4452 3870 5543 3940 5565 4088 4500 
4237 5447 4226 6006 4181 4782 5123 4660 4604 
3816 4612 4855 4111 4156 5878 5592 2626 3970 
3335 4872 2128 2191 2360 2438 3179 3975 1830 
2968 3192 2723 2257 2218 3238 1755 4278 2390 
4164 2619 1972 2627 2646 2631 3300 2861 3625 
3645 2496 2770 4592 3776 5791 2414 3815 3598 
3181 3375 2948 4382 3605 3407 4256 3394 5085 
3076 4274 3143 2926 3414 4556 3136 2326 4693 
4814 3680 2949 3135 3817 3533 5008 2415 3574 
4202 3761 3325 3318 2911 1402 2784 2480 1881 
964 136 1505 2815 2408 1722 1616 2312 1702 
1641 3802 2797 2976 1924 2587 2019 2613 748 
1910 2346 2440 2090 3209 1626 3419 2896 1727 
2383 1857 2845 2292 2849 1825 3333 2967 2864 
1170 2908 2980 1896 3848 3000 3001 2638 2795 
2660 2900 3624 1112 2508 2844 2026 2361 2665 
2776 4106 3334 1983 592 170 452 1622 917 
2162 2100 1496 577 1497 1230 1985 1748 1423 
1335 2063 3154 610 862 1160 2573 1895 2624 
1688 742 1712 787 1204 1959 251 2460 900 
1803 2398 2239 2172 1257 1969 1818 503 1724 
963 1629 972 2877 1974 536 1483 1358 121 
2904 2055 1861 1790 2571 2073 2778 2311 2205 
2214 3114 2943 2503 2334 1306 2232 2420 1419 
1780 1735 2465 1259 486 671 826 77 531 
921 80 1752 987 1046 361 1272 844 847 
1847 566 675 1090 445 1240 1926 812 1101 
1952 985 1819 2087 893 1451 106 120 870 
1172 2282 2687 1509 1010 2219 246 29 555 
1979 1191 3234 2324 1216 288 937 554 2197 
984 1967 2038 1340 899 1756 1646 22 759 
1987 2752 1891 827 262 2263 1433 2138 236 
1721 2471 747 1693 1071 1893 5359 5515 4209 
5951 4860 5252 5976 5993 5967 4417 4310 6031 
5932 5604 5100 5836 5339 5599 5731 5571 4461 
5213 5883 5966 4659 5105 5143 5660 5898 5271 
5975 4650 6000 4037 3881 5356 4201 3696 5744 
5466 4900 5999 5549 5587 5719 5017 4997 5870 
4759 5845 6040 5813 4157 4719 5308 5177 6068 
6023 5409 6007 5519 5535 6022 5806 5470 5724 
5875 5669 5227 4119 5335 4977 6037 4387 4568 
5674 5817 5404 5948 5235 5189 5627 4995 4677 
5996 5964 5025 4775 5398 5288 4617 5475 5676 
5501 4229 5028 5144 4512 5366 5863 4788 4266 
5153 4423 5482 5723 5590 5224 4727 4235 5678 
5283 4734 6060 5638 4316 4635 5739 5909 4232 
5471 4049 4197 5198 4665 4827 4186 4021 3872 
3954 3142 4954 3628 4925 3457 3409 4878 5570 
5960 4889 4813 4668 4946 5387 4350 3069 3903 
4403 4891 5637 4552 5145 4562 5230 5167 5201 
4263 4170 5933 4102 5243 5259 5903 5415 4973 
4124 5192 4981 4929 4684 4781 3525 5651 4547 
5500 3164 3451 5718 4795 5137 4845 5944 5371 
4966 4530 4773 4583 4011 4340 5889 4304 4410 
5284 5924 5582 5009 4540 4542 6069 2140 4692 
2476 3898 4268 2846 2353 4127 2798 5393 4486 
5298 4317 3221 5862 2562 4211 2899 2787 2374 
5428 4200 4154 3701 3285 3712 3453 2913 3601 
3288 3941 3499 5096 3433 4242 5552 4427 3366 
4875 3998 3991 4632 5067 4016 4329 3790 3392 
4060 4142 2426 2607 3286 3933 3033 3443 2648 
3780 4569 4057 3959 4041 3227 2325 1769 1758 
4006 2484 2548 2649 2074 2109 2121 3141 3347 
1885 3626 3885 3355 3460 2158 3471 4130 2831 
1556 1418 3353 1887 2925 3343 3725 2231 3771 
3431 2964 4424 4334 3905 3132 2409 1734 4260 
2902 3184 3231 1762 3521 1897 3038 2915 2779 
3520 3019 3446 3294 2888 3921 3220 2538 2137 
3639 3350 3534 3844 2265 2924 2991 2679 3473 
4133 4279 3369 2421 4320 2071 1467 2478 506 
839 1014 1834 2499 1742 2306 3379 2652 2112 
875 2718 1771 1981 1033 2228 600 1573 1446 
1649 3237 2746 3380 1503 1583 1403 2984 2126 
2934 3041 2349 2494 2120 53 2615 1218 2893 
5608 5864 5707 6049 4852 5730 5383 5600 6051 
4346 4756 5712 5485 5713 4732 5241 5245 4432 
5792 5888 5015 5207 5908 5985 3981 5686 4439 
5907 5094 4513 5410 4913 5469 5336 4987 5842 
5425 5643 4464 5940 5717 5859 5468 4251 5681 
4165 5936 5914 4698 5879 4369 5317 5322 4821 
5762 5941 5917 5548 5526 4575 5320 5694 5575 
5871 4837 3719 5997 5106 5961 5354 4856 5340 
5397 5072 5070 4521 5513 5573 5490 5200 5327 
5906 3968 4175 3267 5333 5857 5979 5349 5036 
3871 5010 5101 5614 5120 5132 5441 5122 5170 
4956 5558 5802 4915 5747 5754 5445 5330 2762 
4529 4572 4666 6019 3247 5431 5023 3120 3755 
4359 5111 4570 5423 4241 5176 4683 5422 5852 
5355 5785 5925 4378 5244 4960 4120 5083 5969 
3242 4342 3479 2854 5899 3153 5827 6039 3684 
4640 3661 4893 4947 5666 3895 5226 3695 4998 
3068 4217 3777 4777 4255 5478 3139 4752 4667 
5234 5589 5480 5680 4831 5382 3843 4619 4362 
4990 5787 5733 3756 4030 3741 2110 3469 3567 
4313 4301 3775 3858 5103 3876 5516 3274 4314 
3543 4162 3864 2821 3549 3354 3659 4048 3513 
3166 3727 5688 3716 3791 4487 4234 1935 1672 
4039 4584 3072 3562 3631 4112 3907 2922 3671 
4399 3261 3720 2946 4608 3376 3705 2838 3256 
5553 3569 4267 4658 5778 3408 4460 6041 3585 
4394 5796 2986 5894 5391 2410 5098 5462 2236 