# vtk DataFile Version 4.2
Generated by LIGGGHTS
ASCII
DATASET POLYDATA
POINTS 6000 float
-0.00242304 0.0176462 0.0127815 0.0132184 0.0189933 0.0130349 -0.0167833 -0.0169692 0.018502 
-0.0168825 -0.0168251 0.0144508 -0.0149476 -0.0186855 0.014907 -0.00957535 -0.0199171 0.0141208 
-0.00919426 -0.0219131 0.0146542 -0.00902277 -0.0178032 0.0143784 -0.0130486 -0.0180922 0.0151153 
-0.0111643 -0.0211326 0.0142012 -0.0112417 -0.0190308 0.0148394 -0.0129663 -0.0200176 0.0145512 
-0.0113805 -0.0170057 0.0149107 -0.0158513 -0.0176329 0.0165575 -0.0099644 -0.0190555 0.0163798 
-0.00985203 -0.0210768 0.0165357 -0.0139123 -0.0193641 0.0165548 -0.011806 -0.0207657 0.0161655 
-0.0119704 -0.0185724 0.0167758 -0.0136155 -0.01744 0.0170902 -0.00969667 -0.0170136 0.0162002 
-0.0126855 -0.0202075 0.0179038 -0.0153408 -0.0183992 0.0185955 -0.010545 -0.0178891 0.0180028 
-0.0101869 -0.0199213 0.0181936 -0.0133457 -0.0185455 0.0188364 -0.0120722 -0.0169335 0.0189043 
-0.0161413 -0.0176354 0.0204908 -0.011415 -0.0189187 0.0195401 -0.0114718 -0.0210299 0.0192695 
-0.0092989 -0.0185638 0.0194265 -0.0146007 -0.0189208 0.0205629 -0.012967 -0.0200269 0.0201506 
-0.0126735 -0.0182225 0.0209683 -0.00965325 -0.021822 0.0190028 -0.0101216 -0.0194518 0.0210202 
-0.00866616 -0.0204737 0.0201024 -0.0116114 -0.0209248 0.0213185 -0.00889181 -0.017273 0.0213223 
-0.0105842 -0.0172322 0.0202299 -0.0143471 -0.0169787 0.0195959 -0.00888955 -0.0168208 0.0185117 
-0.00706674 -0.0212494 0.0145579 -0.00634506 -0.0231111 0.0143864 -0.00193312 -0.0192356 0.0145803 
-0.00313693 -0.0218755 0.0145574 -0.00650899 -0.0178446 0.0151072 -0.00379172 -0.0199591 0.0148339 
-0.00346709 -0.0179441 0.0145425 -0.00579921 -0.0197138 0.0150773 -0.00142998 -0.0172754 0.0147583 
-0.00510652 -0.0215757 0.0148219 -0.00437515 -0.0234454 0.0147789 -0.00242835 -0.0237723 0.0144589 
-0.00765853 -0.0193136 0.0143677 -0.00087391 -0.0225342 0.0146951 -0.000419685 -0.0205881 0.0145922 
-0.0081844 -0.0224133 0.0202337 -0.00794613 -0.0204032 0.0162161 -0.00758694 -0.0226487 0.0158924 
-0.00246251 -0.021099 0.0162728 -0.00471039 -0.0181776 0.0161301 -0.00423516 -0.0219641 0.016614 
-0.00315247 -0.0236422 0.0163885 -0.00111376 -0.0180228 0.0169973 -0.00300786 -0.019194 0.016565 
-0.00480894 -0.0200568 0.0168097 -0.00826306 -0.018198 0.0170769 -0.00630576 -0.0177931 0.0172812 
-0.00296438 -0.0173785 0.0174054 -0.00632087 -0.0213041 0.0172104 -0.00586904 -0.0232077 0.0167879 
-0.000811212 -0.0199386 0.0164566 -0.000711381 -0.0220127 0.0166473 -0.00815468 -0.0198634 0.0182367 
-0.00810423 -0.0220572 0.0177553 -0.00615833 -0.0195704 0.0182246 -0.00339612 -0.0203485 0.0182007 
-0.0043387 -0.0234555 0.0180703 -0.00142475 -0.0206792 0.0183655 -0.00420784 -0.0185419 0.0184894 
-0.00220794 -0.0187684 0.0186555 -0.00489905 -0.021612 0.0186208 -0.00274086 -0.0222261 0.0179774 
-0.00164952 -0.0238899 0.0177754 -0.000371897 -0.0172088 0.0187216 -0.00732272 -0.0182673 0.0192912 
-0.00679802 -0.021377 0.0192055 -0.00494507 -0.019965 0.0197726 -0.00296364 -0.0198516 0.0201574 
-0.00587566 -0.023208 0.0193916 -0.00211513 -0.0175628 0.0203457 -0.00545201 -0.0180322 0.0199874 
-0.00256177 -0.0236577 0.0195564 -0.00147028 -0.0212205 0.0205204 -0.000883018 -0.0238384 0.0206363 
-0.0034107 -0.0218223 0.0199459 -0.00533669 -0.0217322 0.0206577 -0.00432782 -0.0234586 0.0206624 
-0.00381593 -0.0183106 0.0211048 -0.00679818 -0.0198425 0.0205379 -0.000992677 -0.0225087 0.0190665 
-0.00104397 -0.0192831 0.0202116 -0.00691609 -0.0171523 0.0210356 -0.000122007 -0.0191585 0.0183299 
-0.00378168 -0.0168476 0.0195012 0.0030746 -0.0217742 0.0145431 0.0035065 -0.0196439 0.0147784 
0.000789152 -0.0167959 0.0147885 0.00108708 -0.0218988 0.0147677 2.8574e-05 -0.018638 0.0146181 
0.00459638 -0.0234441 0.0144002 0.00505272 -0.0214784 0.014593 0.00262311 -0.0237373 0.0145754 
0.00243384 -0.0179333 0.0148974 0.00153034 -0.0199406 0.0148683 0.00444715 -0.0178786 0.0149402 
0.00546254 -0.0196062 0.0152007 0.000628571 -0.0238548 0.0147177 0.00699065 -0.0210052 0.0147327 
0.00651472 -0.0229474 0.0146694 0.00736252 -0.0190471 0.0149008 0.00659545 -0.0171959 0.0150053 
6.13334e-06 -0.0238888 0.0166368 0.00399258 -0.0236488 0.0163667 0.000759668 -0.0185489 0.0165297 
0.00406635 -0.0208649 0.0162729 0.00225848 -0.0217908 0.016414 0.0026501 -0.0190828 0.0169416 
0.0061005 -0.018451 0.0167124 0.00109463 -0.0203805 0.0172565 0.00200102 -0.0237751 0.0165169 
0.00605204 -0.02109 0.0166979 0.00584483 -0.0230887 0.0168722 0.00427924 -0.0175557 0.0170348 
0.00234959 -0.0170467 0.0167228 0.00778659 -0.0225815 0.0167461 0.000908651 -0.0223135 0.0177961 
0.00381443 -0.0222858 0.0178197 0.00454984 -0.0194668 0.0176188 0.00175355 -0.0191268 0.0190423 
0.00245894 -0.023749 0.0185818 0.00549564 -0.0179792 0.0185804 0.00509066 -0.0212257 0.0189597 
0.00305385 -0.0205255 0.0184231 0.00354658 -0.018246 0.0189446 0.00645898 -0.0197824 0.0181638 
0.00667222 -0.0229036 0.0187047 0.0017462 -0.0171563 0.018638 0.00478962 -0.0234278 0.0191686 
0.00191538 -0.0220191 0.0195331 0.000490235 -0.023861 0.0190043 0.000311942 -0.0208326 0.0193476 
0.000556904 -0.0180805 0.0202888 0.0054293 -0.0194872 0.019908 0.00373805 -0.0217793 0.0203263 
0.00185696 -0.0237897 0.0205047 0.00381513 -0.0236825 0.0209371 0.00168387 -0.0203336 0.0207542 
0.00252953 -0.0179707 0.0206598 0.0036201 -0.019817 0.0206979 0.000366037 -0.0222314 0.0207823 
0.00451571 -0.0179877 0.020949 0.00550007 -0.0211394 0.0210527 0.00573936 -0.0231243 0.0209213 
0.00702555 -0.0211193 0.0195442 0.00767387 -0.0226121 0.0207227 0.00805311 -0.0188799 0.0167853 
0.00809819 -0.0208003 0.0176276 0.00844908 -0.022401 0.0148374 0.0103235 -0.0215168 0.0145672 
0.0100302 -0.0191347 0.0147696 0.0123386 -0.0204356 0.0145716 0.0118938 -0.0184642 0.0150659 
0.014076 -0.0194007 0.0147047 0.00872252 -0.017583 0.0148162 0.0154944 -0.0179626 0.0148906 
0.0135711 -0.0174659 0.0146197 0.00879018 -0.0205375 0.0154798 0.0113671 -0.0209123 0.0162736 
0.00965712 -0.0218777 0.0166855 0.0097842 -0.0198594 0.0170917 0.0132929 -0.0188934 0.0165252 
0.0114385 -0.0187551 0.0173132 0.0098005 -0.0179558 0.0164769 0.0122862 -0.0170935 0.0164697 
0.0124805 -0.0203827 0.0178495 0.0141185 -0.0193575 0.0183648 0.0105587 -0.021378 0.0184244 
0.0085961 -0.0223267 0.0188257 0.0125624 -0.0176577 0.018551 0.0155538 -0.0182124 0.01751 
0.0125547 -0.0194333 0.0196178 0.0113995 -0.0209564 0.0202092 0.00953479 -0.021881 0.0205361 
0.0138395 -0.0195772 0.021174 0.0154181 -0.0183806 0.020867 0.0130092 -0.0176995 0.0205134 
0.0144682 -0.0175467 0.0191536 0.0145068 -0.0169575 0.0163393 0.0164589 -0.01734 0.0191442 
0.0105808 -0.0168346 0.0146746 0.0170672 -0.01672 0.0148818 -0.0194652 -0.0138193 0.014539 
-0.0182439 -0.0153675 0.0148786 -0.0189173 -0.0118921 0.014549 -0.016925 -0.0116931 0.0145676 
-0.0211113 -0.0111576 0.0146216 -0.0201259 -0.00924514 0.0147362 -0.0221932 -0.00862286 0.0147435 
-0.0176589 -0.0134512 0.015328 -0.020277 -0.0125571 0.015877 -0.0173984 -0.0163178 0.0165915 
-0.0187333 -0.0147294 0.0167115 -0.0182854 -0.0117255 0.0169869 -0.0197366 -0.0106458 0.0161178 
-0.0180561 -0.010129 0.0151035 -0.0216705 -0.0101618 0.016395 -0.0186872 -0.0089749 0.0166104 
-0.0198095 -0.0133365 0.0176801 -0.0208406 -0.011625 0.0175673 -0.0178559 -0.0133398 0.0181363 
-0.0182122 -0.0154551 0.0186546 -0.0176327 -0.0101352 0.0180821 -0.0196422 -0.0100651 0.0181259 
-0.0174968 -0.0161157 0.0204398 -0.0190868 -0.0118247 0.0189254 -0.0193142 -0.0140648 0.0195958 
-0.0207743 -0.0117322 0.0200103 -0.0179719 -0.0105845 0.0204688 -0.0181159 -0.0126089 0.0206298 
-0.0172041 -0.01422 0.0198685 -0.0170878 -0.0117703 0.0191095 -0.0199578 -0.0130897 0.0212551 
-0.0216294 -0.0103212 0.0188698 -0.0198624 -0.00998843 0.0207425 -0.0219927 -0.00945601 0.0206643 
-0.0185359 -0.00893785 0.0194811 -0.0166436 -0.00859296 0.0164141 -0.0222613 -0.00879528 0.0177396 
-0.0205202 -0.00872174 0.0193374 -0.0206162 -0.0084283 0.0166535 -0.0165862 -0.0148222 0.0176765 
-0.0157096 -0.0132826 0.0145796 -0.0149164 -0.0166824 0.0148832 -0.010278 -0.0154018 0.014399 
-0.0142627 -0.0148112 0.0145929 -0.0107836 -0.0108604 0.0146083 -0.00849553 -0.0144905 0.0146124 
-0.0129321 -0.0109969 0.0147463 -0.0137266 -0.01288 0.0146533 -0.0117293 -0.0126599 0.0146935 
-0.0149359 -0.0112743 0.0145717 -0.0121285 -0.0146439 0.0145412 -0.00975692 -0.0129541 0.0148819 
-0.00879966 -0.0112043 0.0146508 -0.0161535 -0.00968345 0.0146512 -0.00950609 -0.00931693 0.0145409 
-0.0118167 -0.00914379 0.0147504 -0.0138413 -0.00921194 0.0146061 -0.0164661 -0.0126411 0.0168789 
-0.0163062 -0.0106076 0.0166488 -0.0162889 -0.0151406 0.0153875 -0.0130588 -0.0160859 0.0156786 
-0.0130613 -0.0141613 0.0162525 -0.00971139 -0.015105 0.0171878 -0.0113364 -0.0162854 0.0170852 
-0.0150532 -0.0141203 0.0165889 -0.0144525 -0.0121982 0.0166875 -0.0118604 -0.0103293 0.0163678 
-0.0104604 -0.0119014 0.0164417 -0.0124578 -0.0122355 0.0165439 -0.0150448 -0.0160968 0.0177256 
-0.0111659 -0.013782 0.0168229 -0.0143677 -0.0102148 0.0162585 -0.0100582 -0.00952884 0.0167115 
-0.0130768 -0.00876529 0.0168352 -0.0130982 -0.015634 0.0177748 -0.00954914 -0.0130965 0.0178035 
-0.00918027 -0.0110895 0.0177576 -0.0157641 -0.0132781 0.0187469 -0.00841063 -0.0148545 0.0187128 
-0.0153096 -0.0113367 0.0182871 -0.0132708 -0.0109774 0.0179176 -0.0137673 -0.0136419 0.0181934 
-0.0111441 -0.0112239 0.0182383 -0.0104948 -0.0157024 0.0189352 -0.0119381 -0.0143286 0.0187493 
-0.0115426 -0.00924266 0.0180269 -0.0151835 -0.00917522 0.0177749 -0.0162781 -0.00999219 0.0195673 
-0.0161124 -0.0125684 0.0206825 -0.0157488 -0.0155527 0.0195162 -0.0122962 -0.0162615 0.0207931 
-0.0135346 -0.0151445 0.0196684 -0.0123812 -0.01244 0.0192452 -0.00978945 -0.0137664 0.0196806 
-0.00947198 -0.0117746 0.0197111 -0.0123516 -0.0104804 0.0196582 -0.0142953 -0.012312 0.0198381 
-0.0108378 -0.0149 0.020993 -0.0149264 -0.0141829 0.0207382 -0.012732 -0.0136948 0.0209359 
-0.0108057 -0.0108129 0.0208884 -0.0109123 -0.012804 0.0210417 -0.00891952 -0.0153869 0.0206289 
[...]
POINT_DATA 6000
FIELD FieldData 7
id 1 6000 int
4422 865 260 1106 1260 353 223 67 441 
874 846 901 961 508 663 1132 632 837 
456 1317 131 618 1169 741 1141 285 598 
1130 562 534 781 888 1047 727 708 407 
100 1167 86 713 210 873 1360 393 904 
289 366 719 1070 12 1429 1300 1455 296 
1095 624 287 561 572 224 1674 500 195 
234 1464 584 889 244 1266 61 83 1053 
443 68 570 587 1243 785 1416 1739 1473 
891 1789 148 789 980 558 204 1180 64 
49 1158 1110 477 957 214 790 1704 630 
1017 738 944 1273 39 1504 302 533 99 
1087 179 81 986 115 556 300 73 581 
227 714 298 717 123 129 158 37 1081 
1540 192 639 279 620 608 1054 297 419 
56 1188 412 222 525 48 17 1869 348 
108 394 483 1555 712 687 428 2220 1176 
1012 435 1543 1655 1737 1439 631 1291 217 
2418 591 1201 1357 33 1255 256 305 13 
794 1136 26 605 230 371 239 326 46 
876 637 955 722 1367 2013 117 1553 332 
438 331 3168 216 293 1319 2616 3104 1942 
1810 1908 3346 172 833 817 1212 1753 549 
539 793 628 701 595 1426 588 1226 1278 
992 1569 954 1574 1662 908 1793 232 1535 
723 599 1093 1400 1963 1034 1673 814 603 
706 87 1593 1107 191 629 1138 1203 372 
552 94 850 151 693 455 1502 97 690 
685 143 301 416 231 392 333 404 840 
1405 569 142 399 259 1004 102 872 295 
459 154 493 418 650 1447 858 225 521 
655 816 1452 1089 871 176 1443 383 344 
848 161 1820 40 494 1224 563 704 380 
782 2010 778 32 1084 775 606 576 275 
1175 1682 1612 43 565 1484 146 1994 229 
1609 1395 497 550 777 772 1031 762 248 
808 34 479 607 551 274 763 1799 1331 
819 237 498 1549 545 1275 166 235 753 
958 207 1332 885 522 892 156 710 1001 
1309 457 318 462 975 1323 1060 683 946 
406 373 2156 726 703 615 931 895 465 
63 586 449 829 190 523 1233 983 1083 
1995 1164 792 734 947 261 1193 1664 1837 
1638 928 755 199 879 700 1658 646 532 
1518 638 1103 205 253 1441 1064 59 1219 
797 1045 4 219 724 352 725 90 1074 
698 664 375 1698 1716 715 1428 1148 1557 
779 559 1548 974 2157 720 1843 201 680 
1144 458 1016 1327 1398 1223 1841 864 977 
1800 1407 476 488 138 3170 1221 1007 578 
1096 989 1228 867 360 2113 1092 327 323 
3188 2601 273 1937 2093 1390 1603 1363 1038 
1827 1692 1584 2238 1904 897 1772 1100 334 
758 1139 1562 2293 1475 1476 1978 1906 596 
548 1948 1499 1723 1813 5048 2443 2329 1208 
2413 3073 1241 4281 2540 4103 1621 2393 495 
268 1313 691 910 2852 1063 45 1052 1380 
2141 878 3911 1102 1023 1936 1098 2399 1968 
3275 2673 2533 2402 2997 2115 1928 3149 2919 
130 1705 2339 2166 3250 3536 1950 2751 2061 
15 20 1651 1890 1154 647 1615 894 2194 
2424 3467 818 614 454 1370 8 1586 2011 
21 1585 909 832 2470 1247 2674 2658 426 
501 1640 1435 1213 1714 4160 2171 4536 4388 
5020 1307 1860 716 2147 541 1921 1292 1342 
978 395 1422 1564 514 1199 2082 3853 4497 
2462 3526 5581 2931 3117 5012 3083 1492 5508 
2104 795 189 616 1069 695 141 688 542 
574 162 258 511 1530 810 265 1715 1388 
1986 1588 627 139 1028 1142 322 213 526 
757 641 859 402 1878 356 2535 4426 1809 
1254 1397 182 1993 811 126 1738 1850 1545 
2167 4207 1804 1828 1434 2647 887 1150 3302 
2269 820 163 2514 3014 2482 3922 2246 451 
211 678 469 988 1770 825 658 1399 834 
153 481 721 540 1024 312 175 220 756 
1151 93 994 272 7 180 1913 1080 150 
173 16 1376 410 354 118 23 382 1111 
1044 1293 387 489 350 165 1348 1036 1566 
1344 1166 1731 2209 1311 518 85 339 1366 
1325 956 1384 286 1567 1472 2210 1372 922 
403 252 1558 1437 2248 1267 319 310 1666 
1618 3507 1864 1663 1118 132 447 362 692 
315 1108 771 357 341 101 345 860 1205 
1671 959 238 1051 973 411 634 1085 863 
185 1479 1086 1851 1787 676 1786 613 496 
852 567 1506 791 1695 2083 1354 1137 355 
1417 27 766 1565 1385 1379 1450 1262 665 
2429 882 1326 405 1700 1623 280 2088 950 
836 940 1589 194 70 2145 2153 1699 2052 
843 2567 601 2298 1079 932 2960 1186 1980 
1105 433 1718 728 1377 1248 856 1104 171 
245 174 351 774 1123 699 1539 342 1925 
177 1654 113 2793 823 855 919 707 478 
461 1189 788 560 512 471 1436 906 62 
746 1065 768 1494 527 1537 42 1394 1519 
2020 125 916 1501 1308 1544 1512 1713 1474 
1996 257 1919 1297 902 2711 475 730 654 
365 452 577 1287 54 1595 729 1520 1938 
1197 215 1764 1868 71 1285 784 415 30 
88 590 604 998 571 711 1725 1368 1263 
2142 966 208 105 491 1460 95 918 636 
270 78 1207 953 2105 307 1220 1886 1131 
390 1 530 2669 3121 1645 1374 474 546 
593 2588 147 3150 1947 1259 1601 1190 1406 
926 633 921 985 77 623 686 188 1039 
423 531 266 934 675 122 4056 2595 5281 
3090 5775 4036 3713 6070 1823 2549 5018 4697 
3295 4679 5824 4843 3997 5850 5833 3248 4055 
5709 4470 6014 5766 4671 5472 5931 5926 5773 
4720 5486 5324 5891 4358 5334 6064 4443 5815 
6017 5805 3422 5556 5901 4421 5904 5779 5663 
5900 4137 4473 5563 3440 4909 537 4073 431 
124 4628 1072 2169 144 2215 4001 749 3538 
1127 3152 4191 1299 5430 2625 1495 5568 4408 
2802 2500 4222 1454 4757 2847 5047 2240 3171 
2569 3078 761 3193 3462 4965 2551 3160 3348 
3894 1923 4105 4848 6038 5292 4319 5432 2249 
5068 3045 5342 1387 1126 385 1040 308 499 
1468 65 845 134 611 866 1217 2098 1356 
2358 3259 515 3027 2532 1337 1613 1420 2504 
668 2152 849 1627 2179 3108 1187 116 4019 
1290 2703 1438 2177 1957 2094 2761 2117 1761 
1678 1466 936 2621 2405 2828 2360 1665 2043 
3578 1315 2553 1206 3335 1687 1929 3021 2666 
3053 2626 2191 1830 4203 1650 3477 3238 3050 
3970 4696 652 2463 504 669 58 1647 359 
673 696 1392 805 543 529 140 127 737 
196 1250 1117 799 335 1349 92 1330 1059 
770 1058 2045 1989 821 119 1347 346 1214 
853 929 1281 838 880 400 145 1889 649 
1097 877 861 659 1949 377 1109 667 164 
1842 28 430 2127 2168 1412 2132 1135 136 
1402 2453 1881 1773 2202 2604 1427 622 135 
869 264 82 912 773 783 635 1149 513 
968 1442 1822 1477 1225 564 841 1066 943 
1720 159 681 524 807 798 1050 1784 38 
674 381 482 1286 1668 969 583 281 660 
2107 1801 409 1341 942 1872 945 626 467 
316 1003 1192 420 1706 338 1019 31 1653 
528 170 1691 157 645 1710 1985 202 1094 
1983 917 1736 592 1796 1408 149 2449 1547 
580 844 440 1146 396 731 765 1005 446 
1365 111 594 1931 1181 1478 389 597 450 
226 1580 935 516 269 1481 5 1159 181 
167 490 3 1445 492 414 1458 267 187 
434 938 178 325 1211 51 473 826 2131 
1125 1056 671 486 2165 1696 120 80 445 
1926 1046 987 1240 1272 1846 802 914 379 
1009 1528 847 1386 835 439 228 824 5139 
3730 6002 5793 3517 4887 5155 5353 1879 5199 
5774 6001 4571 5082 5957 5287 5980 5708 5616 
4277 5677 6028 5567 5951 6031 4367 5339 5604 
5976 5515 4209 4484 4417 6058 4860 3388 5670 
3478 4446 2417 2923 3492 3131 1561 2720 2608 
4248 5610 1099 3652 3345 5492 3349 4748 4639 
5977 5011 5740 3191 2920 4430 5938 4303 4356 
5714 3838 5847 4539 4819 5171 5154 5119 5910 
5741 4912 5246 5967 3642 5825 5178 4616 5520 
4675 5757 5521 5138 5701 4157 3219 5308 5027 
4110 5939 5002 6048 5839 4299 5409 5527 4735 
2941 2154 4107 5435 4851 2642 1352 3524 3546 
751 2481 200 2618 2430 3649 3401 1689 2307 
3064 1871 2262 340 5474 3681 2516 2064 3186 
2677 5223 4910 2146 5394 3736 4150 4598 5099 
3731 4400 4413 4178 4901 4546 2995 3603 2603 
3249 3424 4525 5405 5046 5301 3623 4938 4661 
4389 4338 4049 4711 5647 4759 4924 3382 3960 
2799 3080 520 1630 979 313 1945 254 651 
1670 544 1076 1234 47 960 5158 303 107 
743 689 2583 1848 1594 2492 1541 1927 470 
1717 2335 813 1785 2351 1600 2867 2954 2684 
2281 4514 2772 1876 3862 1916 3863 3373 3225 
2486 4100 4167 4188 2879 2183 2116 3151 684 
1027 386 427 517 311 582 1635 19 448 
485 304 343 1116 1043 184 169 2099 666 
1579 2268 397 752 786 306 35 754 321 
1378 1617 612 2436 1728 398 2245 1867 1836 
376 733 621 1162 96 76 1424 1269 1453 
363 1614 575 702 2291 1782 75 1068 915 
2041 2522 804 41 1661 425 2379 1883 1965 
317 1500 221 198 25 74 679 291 939 
263 1322 233 282 1008 110 424 505 830 
487 642 907 1301 464 1656 277 809 421 
1318 996 480 971 670 1182 780 1179 2643 
240 5359 4541 4332 3594 4969 951 3762 2708 
4101 5248 6008 5411 4166 3591 5928 5861 5808 
5923 5261 4991 5424 5650 2570 2829 1249 3996 
168 6 1381 1333 2432 243 2391 5204 3494 
3836 4787 3402 4176 3962 4246 4545 5360 5400 
4063 4014 4213 4198 5348 5185 4368 4172 4895 
5703 4903 4917 4950 5684 3819 4117 4058 5800 
5066 5449 4974 5557 5403 5704 5236 4874 5195 
5736 5311 4602 5630 5280 5959 5692 5619 5612 
6065 5844 5392 5381 5786 5760 4118 2735 98 
1258 3918 995 278 2308 3606 3463 2458 3611 
1350 2912 2313 3924 3022 4032 3742 5764 4610 
3101 4076 4147 3377 3279 3632 2223 3254 4145 
2661 3811 4405 3812 3740 3873 4519 3861 5006 
3604 3766 4657 3043 4489 4323 5344 2993 1133 
4561 52 336 1156 1073 2290 91 57 112 
2288 2296 2633 1032 3957 2297 2524 776 79 
1185 2682 3395 3122 3447 3949 1011 2536 2018 
2164 2284 2585 2050 255 1048 271 941 764 
1751 1329 468 84 1155 197 1006 104 803 
682 1021 378 2160 1797 466 735 1576 800 
1261 1026 1703 368 519 89 2028 1128 1314 
1457 309 1513 337 2129 320 884 1075 1078 
2204 913 2411 2007 1120 391 1174 1643 854 
2 981 656 828 1690 1510 1013 949 2497 
896 2097 437 186 14 152 367 2081 347 
1766 1018 1145 547 60 1143 1884 2280 1572 
905 1312 1246 1685 1951 1015 1681 1025 1592 
1414 1633 1680 417 1829 1253 370 965 1988 
2040 55 364 2072 694 1382 1316 2136 2234 
1022 1265 1597 923 1590 662 1844 10 1523 
1859 1684 2059 2233 1202 1119 585 589 1517 
206 1552 1389 1242 1153 1486 2123 1554 2416 
349 1369 1231 1892 1729 1914 2184 1147 2163 
2612 2006 2000 1840 1866 1121 2016 1605 1733 
314 193 1346 2732 1759 1792 2078 1485 976 
2738 2862 2423 1808 2237 1432 2261 1570 553 
2348 2791 2542 2031 3198 2264 2519 1636 442 
374 2076 2267 2543 2216 2594 3155 3216 3797 
3909 4629 3619 4433 4173 2796 5169 4482 4351 
5848 1310 1940 429 1750 1283 1037 868 2341 
1449 1235 1982 640 2243 769 1173 2067 250 
1343 1339 617 1264 1229 2554 1251 2224 1030 
183 114 444 2491 1863 384 1619 1448 2217 
2345 2644 103 330 920 2188 1480 460 1288 
1334 1362 1077 241 1035 925 1779 242 2075 
72 1463 1611 1274 1527 1652 276 1620 760 
1371 1041 1462 999 510 1744 1767 1425 2111 
1184 1222 1917 750 1194 1508 1091 36 1421 
509 507 50 1336 1932 1239 2605 2380 2455 
9 1930 284 1531 1280 1960 2092 1529 1295 
2037 1992 2730 1679 857 2159 1707 993 2502 
2376 1577 463 1991 1525 2958 1631 1067 2734 
2195 155 18 203 502 160 718 1113 133 
1719 1538 369 1571 1321 1000 1515 1198 408 
218 1575 294 815 579 661 1413 1900 653 
557 1345 1802 2384 740 2118 1732 2260 927 
1568 538 970 2201 329 1161 1853 422 1526 
2057 2350 299 1990 2176 1268 1648 1232 247 
2452 2333 2315 2058 2609 2200 1754 2174 2733 
1536 2170 1587 2091 283 1838 2021 1912 2830 
66 358 1157 1237 1922 1964 1775 1042 1020 
1901 1082 1903 1741 1488 1134 1999 2252 886 
842 1359 432 1210 1245 2419 1852 1289 2155 
982 1657 1471 1238 1625 2229 1430 1602 1677 
2559 2025 2226 3187 1487 2773 2531 2406 1227 
1338 1676 2247 1364 2323 3075 1140 2124 2507 
2610 2456 2314 1532 2012 2027 2321 1324 2178 
1542 2468 2555 2319 2222 2667 1888 2756 2387 
2488 2320 3590 2270 2890 2119 2620 2651 2192 
1683 4712 4375 3331 3262 2710 4121 2963 1939 
1918 3291 3592 3706 2748 1578 3067 2628 1788 
2139 2592 1270 2882 2285 2747 2068 2978 2745 
2994 3535 3095 3189 3992 2917 3126 1749 3708 
1560 3358 1943 3025 3928 3448 3769 3551 3372 
3840 3156 4645 2044 2576 2678 4193 4271 3857 
4792 3397 2977 2606 3223 4285 4861 3359 2886 
2722 4390 3303 3774 5001 3765 4083 3532 3461 
4490 3060 3118 4090 3529 4502 3370 3788 3966 
3878 2970 3897 3444 5628 4808 2935 3622 2564 
4143 4687 3472 2645 3908 3332 1491 1877 2272 
3109 3062 1814 5293 137 2834 3455 2705 2969 
2515 2742 2186 3196 3324 3950 2102 3071 3607 
3620 3618 4700 822 3272 3763 3233 2979 3901 
5131 1849 3146 1874 3176 2310 2275 2445 2929 
3183 2656 2135 3980 3316 4670 3416 3883 4573 
4418 2395 2518 3292 1642 1124 677 1328 1411 
1122 806 2754 2085 2051 2258 1303 1461 1898 
1817 3362 4593 2807 1933 3031 3099 2302 3074 
2014 739 3059 1855 1899 1598 1546 3586 1934 
2671 2327 1791 2193 2840 3489 883 3326 2755 
4386 930 2077 3351 2371 2403 2060 2467 2033 
2695 3301 3004 4425 1178 1599 898 1856 1765 
1114 2956 2768 1639 2577 1163 484 1862 1659 
1209 991 1244 1783 1743 831 2017 1815 1465 
1183 997 1305 2401 2277 1252 1271 2048 1774 
2151 2066 1282 3205 1711 643 1171 2283 1061 
1955 1196 2743 609 2511 1781 2675 2114 3175 
2736 2181 2895 3012 2525 2259 2870 2952 2907 
3174 2635 1456 697 705 1795 1256 2483 2106 
1294 1055 2084 1393 2331 1824 1794 2255 2254 
2557 933 1845 1088 1304 2001 1946 2365 1129 
2024 1415 1062 413 1667 1353 2547 1961 1634 
1165 2367 2095 2032 2377 1637 2441 2427 2517 
1776 1694 1551 2479 1236 2086 2316 2412 2182 
1550 2273 2670 1195 1641 2550 2211 2305 2883 
2359 2692 2580 1956 2251 2584 2552 1726 1559 
2266 2869 2706 1669 2771 2444 2623 2317 2565 
2811 2983 2042 2822 2198 2385 2460 2665 1029 
1894 948 1591 610 3011 1090 1624 2008 1200 
862 1973 1606 1049 251 1757 2505 2582 1760 
2561 1839 1516 2528 2574 1002 1858 2343 3360 
1276 2388 1911 2357 2819 3666 1790 1358 2230 
1873 3782 1697 2700 3044 2187 2161 1902 2026 
1302 2079 3341 3613 1798 2330 3228 1826 2322 
2709 2855 3105 2503 2108 1404 1629 1977 972 
2400 2520 3319 1608 2049 767 893 2253 1489 
648 1375 2437 1284 1819 899 736 2035 2545 
1279 1298 3627 745 796 1604 2461 1835 967 
827 2087 937 759 1812 1277 1987 1675 2289 
3195 2286 2036 2459 2303 2639 1607 568 2739 
2474 1361 625 2352 1451 555 1891 5052 5799 
5539 5073 5930 5141 5788 5728 5882 4880 5576 
5173 5987 4534 4459 5623 4807 4335 5266 5794 
5605 5690 5464 5220 4976 4651 5986 5946 3792 
5846 5635 5569 5804 5994 5737 5734 5309 5446 
4728 5231 5229 4961 4768 3648 3938 3258 4959 
5554 5675 4674 5323 5214 5429 4015 5239 5711 
5442 5725 5607 5511 5377 4979 5860 6052 4776 
5911 4664 5326 4370 4801 4834 5821 3696 5744 
5538 3837 5208 3926 3822 5029 3892 5310 4028 
5196 4003 5150 4761 5494 4862 5163 5631 4758 
4771 5858 4452 3870 3553 5877 5543 4595 4522 
5856 3630 5123 4237 4782 4156 4226 3745 6006 
4660 4500 4612 4088 3940 5878 4855 4604 4212 
3989 3816 4326 3965 4902 4111 5205 3212 5065 
5447 4181 5125 4274 2128 3192 3179 1755 2438 
2257 2619 2968 1972 2631 2627 2218 2496 3625 
2390 2723 2770 2889 4164 3300 2414 2861 3645 
4592 3181 2392 3375 2948 3394 3407 3598 3143 
4278 5085 3815 2521 3605 4382 3076 3414 2926 
3136 3715 2196 3533 3135 4556 3817 3680 2949 
4693 2691 5107 2415 5008 3574 4528 4218 4202 
3761 4252 3702 3093 3662 3512 3723 964 2784 
324 1722 2911 2336 1910 1702 2976 1924 2312 
2408 1505 2613 2346 2797 1616 748 2440 3209 
2019 1857 1626 2849 3419 2896 2090 3318 3802 
2383 1727 2845 1170 3001 2967 3333 2326 2908 
1896 2980 3624 2638 3848 4106 3000 2660 1112 
1745 2795 2508 2844 2900 2586 2776 3265 1920 
2361 3790 2587 1497 1748 787 1423 2624 2100 
1496 1409 2063 1230 900 1160 1335 1959 2573 
742 2398 1483 2239 1895 1803 1712 1818 1257 
2292 1825 503 1969 536 121 1724 2172 1204 
1974 2162 1688 2571 2877 2205 2055 1861 1735 
2334 2778 2073 2904 1419 2214 2311 1306 2961 
2943 3114 2232 3534 2465 2679 3243 3353 2029 
1622 1780 106 812 1752 963 870 2219 1010 
2687 361 1172 1979 246 1101 2282 1509 236 
1847 566 1952 984 1967 3234 554 288 1191 
2038 2324 1216 1756 29 22 2471 747 1033 
2112 262 1646 2752 2138 1340 2197 1721 1071 
1503 2228 2263 2206 1708 1433 1693 1470 1296 
2526 2634 2785 1533 1893 644 2047 2137 2120 
53 1583 2347 1218 2984 506 1403 4310 5722 
5252 5599 5100 5932 5966 5143 4461 5731 5398 
4659 5271 5356 4201 5105 6000 5975 5213 5256 
5466 4920 3881 5758 5999 4037 4650 4900 5656 
4343 5040 4557 5549 4769 4850 4152 5135 5537 
4129 5079 4428 5739 5571 5864 5883 5898 6007 
6040 4719 6024 5674 5724 5592 5420 5519 5669 
5177 5335 5017 4972 5806 4365 5836 5470 5875 
4995 5565 6029 5235 5551 4677 4119 6023 5660 
4617 5288 5817 6037 5813 5948 5625 5028 5996 
6060 5678 5501 5475 5676 5189 4235 4997 6022 
5918 4266 4229 5130 4727 5578 4681 5909 5404 
5366 5590 5803 5224 5144 5638 4324 5534 4952 
5153 4635 5627 4962 5863 4024 5584 5090 5968 
4512 5482 4734 5427 4788 4513 4423 4316 5719 
4197 3826 4232 3975 4665 6053 5745 4986 3628 
4872 5227 4186 3142 4954 3409 4668 3069 4925 
3903 3776 5471 5198 4669 4656 5870 4403 3954 
4977 4256 5387 5390 5025 5791 4263 4562 5201 
4973 4350 5845 5637 3872 4021 3325 4814 3164 
5933 4889 4170 5137 5167 4102 5964 4568 4540 
3451 4827 5192 4304 5718 5960 4552 5230 5243 
4795 4966 5889 5145 5523 4340 4813 4773 4583 
5903 4946 5157 5415 5259 4845 4781 5582 4775 
5651 5500 5570 2818 1831 2300 2714 4726 2760 
2933 3563 2480 3660 5550 2724 4017 2789 2815 
2476 2353 2140 2899 3393 2812 3047 2646 3709 
2947 3898 3539 3084 4124 3457 3504 3453 3285 
3221 2798 3572 2562 2950 2864 2913 4317 3865 
3430 4465 4200 3525 4531 4878 4154 2846 5298 
3433 4486 3366 4242 3499 4211 3443 3712 3288 
3941 3601 4329 3991 4427 5428 3141 3449 1915 
2632 1524 2501 1875 1383 3127 2373 2865 3347 
3154 1769 2242 1758 2056 2866 881 2103 2699 
4006 2109 2649 2880 1885 2484 1418 3355 1887 
2074 2787 3106 2231 2325 3471 3725 3134 3343 
2548 2409 2374 3184 3460 3294 2779 2925 1734 
3885 3905 3520 1762 2158 4260 4130 3019 3132 
3431 2964 2421 3626 2640 2121 3469 3549 1582 
2851 1806 109 2381 2433 890 24 2080 2831 
2915 3521 1556 2478 839 2375 1467 1014 600 
1834 875 1742 2004 3038 2071 2306 1573 1446 
1981 2499 1771 1649 1897 2126 2746 2718 2494 
3380 2652 2615 3041 3237 2893 2934 2349 2110 
1672 5993 6003 5118 5498 6050 5984 5816 5608 
6068 5600 4214 4907 4852 5383 5460 5792 5712 
4913 5241 5730 5535 5713 6049 5336 5410 5245 
5015 5468 4732 6051 5842 5469 5888 4439 5207 
4987 5681 4432 4756 5351 5075 4261 5414 5514 
5699 5585 3778 5869 4939 5828 4833 5522 5886 
5721 3963 5767 4723 5389 5624 5491 4585 5300 
5458 5587 4387 5110 6020 4383 6018 5896 5485 
5667 3542 4846 5763 5322 5998 5140 5879 5222 
5340 5818 4165 5317 5936 6045 5707 4521 5917 
5997 4393 5941 4575 5686 5914 4821 5345 4369 
4346 5206 1115 4937 4407 3566 4436 3655 3437 
4643 4494 5037 3945 4158 3845 4330 4012 4580 
3635 4582 4701 4692 4523 4463 4599 3242 4318 
5393 4070 3537 5369 5166 3576 4605 4127 4342 
3936 3479 4378 3068 5142 5244 6055 5168 5925 
5762 5862 4653 5969 5013 5785 3672 3410 328 
2786 1984 3614 3434 2657 3799 3009 3661 2354 
3227 2729 3787 3567 4268 2821 3859 3741 3361 
3775 4162 3274 3166 4301 2854 4313 3716 2596 
3051 2203 2185 1747 1498 1057 2023 2721 2250 
2396 1905 990 2556 1954 1482 3016 69 3129 
2563 3700 1522 2410 5974 2731 3066 3376 4983 
619 11 2940 2328 1865 1215 1628 1493 2022 
2125 2148 2190 1152 1355 2906 1514 2378 1854 
2189 1997 2143 1953 962 2389 3281 2872 2962 
2431 1701 2332 2987 4385 2725 3024 2434 2407 
2614 5840 1907 3735 3102 3464 3610 2928 1805 
2663 2144 2617 2653 1763 3558 2572 3017 2513 
2046 2697 2096 1373 3211 2972 2466 1909 3023 
2364 2447 3297 4273 2566 2065 3458 3002 3322 
2713 3030 3714 3020 4420 5473 4098 4647 5629 
2853 3368 4648 2992 2753 4908 4148 4353 4292 
3860 5662 3548 4810 3689 3516 5380 4520 3784 
3475 3252 2053 5043 4297 2568 3699 5093 5838 
3487 4695 3646 2740 5069 4866 5640 4817 4322 
3230 4288 4231 4309 3750 3432 4964 3688 3165 
2009 2579 1821 2578 2227 2274 3418 3133 2905 
3356 3486 2597 1807 2820 2837 3305 6062 2759 
3519 2558 3707 1970 5881 4298 4008 2850 2309 
2366 2175 2581 2737 453 2814 2469 4291 1975 
2892 3061 4169 2744 3115 3224 3197 2680 3753 
3925 2278 3408 2457 3638 2897 6063 2838 3692 
4790 4115 5528 249 128 2765 2686 2817 3032 
2337 3328 3172 2212 3125 2451 2641 2813 3801 
2425 3123 2622 3421 2690 2512 3399 3063 3677 
2832 2916 2728 2758 3308 3013 2069 3426 3037 
2873 5074 5156 3290 2988 4506 2386 3675 2951 
3758 5286 4195 3570 5076 2989 4187 1444 2394 
3602 2982 2370 2881 1660 2694 3035 2362 3280 
2701 2790 2827 2473 4029 3371 3357 2999 2750 
3363 3384 2472 3798 3269 2235 3470 2539 2541 
3210 4042 4646 4824 3413 2932 3891 2858 3608 
2600 5484 3531 2757 2487 5463 3005 4881 3667 
5507 5462 2173 5746 4290 3694 4065 4688 5679 
4623 3465 2874 4139 2860 3314 3846 5835 2696 
2369 3245 4678 4224 2903 4230 2927 4805 2763 
4361 2529 4321 3886 5217 4325 3800 4594 3889 
3882 3912 3007 4339 4718 3436 4286 5483 4935 
4662 3773 4958 3879 5174 4352 5658 5691 3644 
5636 5186 4879 5609 6025 5597 4655 3579 4730 
4095 4673 6047 2816 5626 4914 5978 5302 5194 
4344 5922 4468 5981 4349 5038 3793 3119 4637 
4296 3505 4883 3902 3917 3942 4740 5385 3884 