# vtk DataFile Version 4.2
Generated by LIGGGHTS
ASCII
DATASET POLYDATA
POINTS 5999 float
-0.0177345 -0.0413404 0.0101401 -0.0140318 -0.0426611 0.0109305 -0.0102485 -0.0437897 0.010122 
-0.00631482 -0.0445231 0.0102152 -0.00262776 -0.042954 0.0101421 -0.0064953 -0.0406379 0.0112206 
-0.0029046 -0.0400658 0.0129061 0.00809659 -0.0442273 0.00965946 0.00430949 -0.0430121 0.0101461 
0.00082793 -0.0449788 0.0100473 0.00143609 -0.0400233 0.0101594 0.0085845 -0.0408356 0.0128915 
0.014429 -0.041682 0.00966522 0.0114494 -0.0434662 0.0118197 0.0169616 -0.0416279 0.0128832 
-0.0309682 -0.0325971 0.0103619 -0.0247723 -0.0333387 0.0102144 -0.0213199 -0.0353789 0.0102807 
-0.0214932 -0.0395029 0.0104054 -0.0213062 -0.031359 0.0106653 -0.0248793 -0.037471 0.01106 
-0.0280968 -0.0351171 0.0115514 -0.0270621 -0.0315113 0.0129402 -0.0113219 -0.0397845 0.0101258 
-0.0178324 -0.0373425 0.0102749 -0.0143609 -0.0353332 0.0102778 -0.0178261 -0.0333378 0.0104939 
-0.0143315 -0.0313207 0.0105661 -0.0103654 -0.0316749 0.010184 -0.0147311 -0.0388851 0.0123189 
-0.011423 -0.0366416 0.0126642 -0.00825488 -0.037119 0.0102617 -0.00641982 -0.0309614 0.0102059 
-0.00240332 -0.0309618 0.0102125 -0.004402 -0.0344899 0.0103237 -0.00137388 -0.0370732 0.0107352 
-0.00790613 -0.0338484 0.0125541 -0.00550993 -0.0370444 0.0132024 -0.00192686 -0.0335621 0.0133357 
0.00618337 -0.0393952 0.00999565 0.00347156 -0.0364383 0.00985662 0.00488681 -0.0324998 0.0103154 
0.00744121 -0.0355755 0.00997465 0.00868408 -0.0312569 0.0100897 0.000591543 -0.0336289 0.0101523 
0.00555458 -0.0368183 0.0132868 0.00971525 -0.0368953 0.0131432 0.0104141 -0.0389505 0.00974441 
0.0141415 -0.0372484 0.0098321 0.0180154 -0.0392083 0.00984836 0.0169892 -0.0312562 0.00993905 
0.0130096 -0.0306642 0.0102878 0.0112871 -0.0343335 0.0101365 0.0179149 -0.035186 0.0100976 
0.0147492 -0.0337825 0.0121077 0.0128452 -0.0394995 0.0128939 0.0163685 -0.0375789 0.0131786 
0.0189293 -0.0322268 0.0132999 0.0249786 -0.0324456 0.0101111 0.0220534 -0.0351829 0.0097704 
0.0210747 -0.0312438 0.0100301 0.0287902 -0.0343864 0.010379 0.0256321 -0.0369602 0.0102885 
0.021999 -0.0392364 0.0104072 0.0284051 -0.0303427 0.0101822 0.0201092 -0.0361569 0.0133586 
0.0316051 -0.0320119 0.0119603 -0.0361082 -0.0268295 0.0102704 -0.0398854 -0.020765 0.00952466 
-0.0327598 -0.0290164 0.0101951 -0.0304114 -0.0254353 0.0101381 -0.0329774 -0.0214589 0.0105633 
-0.036714 -0.0229159 0.0108568 -0.0335004 -0.0248406 0.0126426 -0.0290051 -0.0216797 0.0101247 
-0.0250597 -0.021009 0.0101185 -0.0287584 -0.0290797 0.0102546 -0.0218586 -0.0234075 0.0101957 
-0.0212907 -0.0273715 0.0102587 -0.0253698 -0.0253542 0.0102917 -0.0247673 -0.0293409 0.0104844 
-0.0275956 -0.0237965 0.0132339 -0.0185783 -0.0211212 0.0100449 -0.0144913 -0.0270346 0.0102092 
-0.0179945 -0.0250856 0.010217 -0.0112907 -0.0246005 0.0102343 -0.0148567 -0.0225751 0.010248 
-0.0178014 -0.0293373 0.0103774 -0.0112071 -0.020507 0.0102507 -0.0120056 -0.0288323 0.0127762 
-0.00460453 -0.0234577 0.0101062 -0.00895367 -0.0278557 0.0103716 -0.0071991 -0.0204074 0.0102406 
-0.000344254 -0.0232608 0.0102668 -0.00109089 -0.0271988 0.0105973 -0.00505502 -0.0273068 0.0111248 
-0.00774294 -0.0243006 0.0124756 0.0018967 -0.0298439 0.0100606 0.00649202 -0.0246448 0.0102863 
0.00952867 -0.0273265 0.0102639 0.00571174 -0.0285685 0.0102687 0.00346992 -0.0220069 0.0103514 
0.00270027 -0.0259367 0.0104044 0.00698517 -0.0214787 0.0127051 0.0170923 -0.0272187 0.00976489 
0.0135233 -0.02525 0.00986528 0.0170842 -0.0226778 0.00990898 0.0133427 -0.0212473 0.010063 
0.0102003 -0.0234584 0.0112454 0.0124406 -0.0277422 0.0130093 0.0175572 -0.0250128 0.0131314 
0.0244568 -0.0240834 0.00988908 0.0202317 -0.0201418 0.00976781 0.0234737 -0.0280047 0.00996607 
0.0204921 -0.0248349 0.0101366 0.0282869 -0.0211104 0.00993224 0.026991 -0.0268086 0.0115267 
0.0200118 -0.0281497 0.0123455 0.0221328 -0.0221862 0.0126507 0.026157 -0.0225558 0.0132053 
0.0301731 -0.0246454 0.010315 0.0341958 -0.023258 0.0102937 0.0381851 -0.023623 0.0100769 
0.0358747 -0.0269299 0.0103293 0.0318711 -0.0283191 0.0103623 0.032721 -0.0253884 0.0133527 
-0.0433373 -0.0108833 0.00965107 -0.0421876 -0.0155509 0.0108504 -0.0403226 -0.0100579 0.0131902 
-0.0410065 -0.0184923 0.0132904 -0.0358633 -0.0140219 0.0100232 -0.0395969 -0.0125843 0.0101227 
-0.0345744 -0.0178043 0.00982137 -0.0385558 -0.017025 0.0100231 -0.0305844 -0.0179887 0.0101547 
-0.0336789 -0.0106675 0.0100782 -0.0315896 -0.0141043 0.0102511 -0.036706 -0.0117843 0.0132745 
-0.0266089 -0.0173145 0.0101566 -0.0240637 -0.0110274 0.0100455 -0.0233251 -0.015009 0.0100931 
-0.0217662 -0.0187284 0.0104357 -0.0297073 -0.0101912 0.0102138 -0.0273038 -0.0133802 0.0104567 
-0.0218638 -0.0125972 0.0129943 -0.0267899 -0.0102007 0.0129772 -0.0272866 -0.0197976 0.0132231 
-0.0119553 -0.0162984 0.0101718 -0.0160011 -0.0180642 0.0101603 -0.019348 -0.0155302 0.0102101 
-0.0120312 -0.0122935 0.0103832 -0.0186929 -0.0115323 0.0106327 -0.0156095 -0.0140878 0.0103766 
-0.0133398 -0.0186586 0.0130915 -0.00305281 -0.0197778 0.0103866 -0.0043641 -0.0129114 0.010135 
-0.00828695 -0.0136995 0.0102228 -0.00564062 -0.0167225 0.0103154 -0.00171735 -0.015913 0.0103589 
-0.00073986 -0.0122749 0.0117124 -0.00886754 -0.0168619 0.0126799 -0.0093937 -0.0110896 0.0131585 
0.00644967 -0.0105901 0.0100695 0.000872731 -0.0189625 0.0102 0.00298498 -0.0126195 0.0102954 
0.00499922 -0.0182958 0.0103207 0.00957683 -0.0195997 0.0103037 0.0062564 -0.0146603 0.0114286 
0.0020838 -0.0158967 0.0124752 0.0100149 -0.0149685 0.0100027 0.0183581 -0.0130168 0.00984023 
0.0131677 -0.0119548 0.00986277 0.0133228 -0.0172434 0.00985869 0.0173616 -0.0173342 0.00971685 
0.0152903 -0.0145148 0.0121088 0.0161623 -0.01058 0.0122358 0.0100714 -0.0117915 0.0124451 
0.0233436 -0.0124749 0.00965219 0.0211671 -0.015864 0.00972024 0.0291094 -0.01703 0.00984953 
0.0274902 -0.0129327 0.00967977 0.0244851 -0.0198714 0.010135 0.0249869 -0.0159646 0.0109876 
0.020719 -0.0103878 0.0119848 0.0272465 -0.0186753 0.0130002 0.0216218 -0.0182179 0.0130106 
0.0253964 -0.0117103 0.0130202 0.0283225 -0.0148167 0.0131331 0.0220528 -0.0140252 0.0131823 
0.0298811 -0.0111259 0.0132899 0.0365547 -0.0199403 0.0102828 0.0321121 -0.0198375 0.0103237 
0.0381715 -0.0162497 0.0100951 0.0314264 -0.0137479 0.0099233 0.0395443 -0.0113387 0.0100793 
0.0356342 -0.0131409 0.0100144 0.0331668 -0.0100892 0.0108377 0.0344238 -0.0167163 0.0114381 
0.0367229 -0.0104857 0.0129263 0.0390154 -0.0138798 0.01322 0.0334124 -0.0133565 0.0134044 
0.0422417 -0.0153513 0.00970219 0.0436316 -0.010924 0.00998252 0.0405279 -0.0194733 0.0104527 
0.0429788 -0.0132345 0.0132181 -0.040735 -0.0033537 0.00996368 -0.0409568 -0.00735124 0.0102486 
-0.0445988 -0.0055769 0.0102383 -0.0443263 -0.00164548 0.0111044 -0.0440907 -0.00866829 0.0133115 
-0.0369132 -0.00485632 0.00988902 -0.032564 -0.0067277 0.010197 -0.036652 -5.56971e-05 0.0100042 
-0.0329732 -0.00180708 0.0102302 -0.0374134 -0.00923224 0.0102391 -0.0303549 -0.00432955 0.0125379 
-0.0380735 -0.00243996 0.0129216 -0.0344295 -0.00425283 0.0130478 -0.0348179 -0.00824863 0.01315 
-0.0384214 -0.00652474 0.0133711 -0.0220245 -0.00427118 0.010124 -0.0279447 -0.00659835 0.0101681 
-0.0272626 -0.00265528 0.0102339 -0.0205687 -0.00800391 0.0102264 -0.0242012 -7.50751e-05 0.0101828 
-0.024275 -0.00734178 0.0116351 -0.0214031 -0.00126329 0.0128092 -0.0246303 -0.00361396 0.0130939 
-0.0170879 -0.0060041 0.0101592 -0.0106294 -0.00855009 0.0102289 -0.0145824 -0.00920563 0.0102586 
-0.0185558 -0.00227636 0.010119 -0.0131559 -0.00548019 0.010678 -0.0144758 -0.00171157 0.0103558 
-0.0196567 -0.0051624 0.0132445 -0.00681055 -0.00972631 0.0100246 -0.00518242 -0.00586095 0.00998292 
-0.00286954 -0.00913223 0.0104519 -0.00327692 -0.00230734 0.0102301 -0.000960176 -0.00557864 0.0103411 
-0.00716661 -0.00136162 0.010337 -0.00917826 -0.00482038 0.0103245 -0.00728568 -0.00730227 0.013207 
-0.00976395 -0.00229868 0.0133758 0.00689459 -0.00637524 0.0100264 0.00113763 -0.00904554 0.0102524 
0.00303346 -0.00533735 0.0102044 0.00108782 -0.00187553 0.0107309 0.00950186 -0.00125173 0.0120451 
0.00592223 -0.00304274 0.012109 0.00431931 -0.00829342 0.012573 0.0182408 -0.00819445 0.00973718 
0.0102127 -0.00871985 0.00968162 0.0142372 -0.0080778 0.00968158 0.0144289 -0.00389767 0.00999018 
0.0184325 -0.00414407 0.0100877 0.0104859 -0.00460413 0.0100956 0.0169543 -0.000420838 0.0100439 
0.0129544 -0.000176684 0.0102224 0.016167 -0.00628018 0.0126923 0.0122146 -0.00847802 0.0133105 
0.0280017 -0.00524537 0.0101603 0.0288794 -0.00917699 0.00991766 0.0249175 -0.00874989 0.0102662 
0.025113 -0.00123509 0.0104821 0.0217614 -0.00629097 0.0106556 0.0214258 -0.00265989 0.012381 
0.0249339 -0.00461096 0.0126563 0.0282638 -0.00214378 0.0128031 0.0348059 -0.00370266 0.0098213 
0.0318211 -0.00642835 0.0098327 0.0378062 -0.00096477 0.00981257 0.0372473 -0.00777105 0.0100156 
0.0309967 -0.00248144 0.00988374 0.0379944 -0.00436009 0.0121547 0.0346383 -0.00645496 0.0127586 
0.039638 -0.000920785 0.0133905 0.0412578 -0.00296414 0.0102413 0.0413603 -0.00755208 0.0100625 
0.0449519 -0.00123662 0.0102354 0.04465 -0.0053271 0.0105658 0.044186 -0.00844468 0.0133293 
-0.0409586 0.000675108 0.0102631 -0.044519 0.00631787 0.0102256 -0.0408698 0.00467705 0.0103118 
-0.0448297 0.00234467 0.0107118 -0.0417373 0.00789229 0.0126336 -0.0380025 0.00789991 0.0101935 
-0.0369371 0.00393368 0.0102628 -0.0336459 0.00620599 0.0103327 -0.033331 0.0022036 0.0103315 
-0.03002 0.00450526 0.0103114 -0.0317152 0.00990795 0.0130159 -0.0384514 0.00174131 0.0132461 
-0.0297086 0.000509845 0.0101884 -0.0205303 0.00541269 0.0102787 -0.0252023 0.00580877 0.010367 
-0.0215606 0.00928533 0.0103299 -0.0290059 0.00837203 0.0104886 -0.0253924 0.00943582 0.0120557 
-0.02702 0.00267318 0.0122215 -0.0201326 0.00143361 0.0101324 -0.0230427 0.00308681 0.0123563 
-0.022527 0.00691375 0.0134061 -0.0165353 0.00558887 0.0100889 -0.0142768 0.00228822 0.0101553 
[...]
POINT_DATA 5999
FIELD FieldData 7
id 1 5999 int
544 514 482 144 333 828 27 1092 1037 
856 589 877 307 901 495 1045 120 97 
862 520 924 598 1044 107 52 135 145 
379 228 551 450 53 263 1095 426 158 
257 242 209 408 476 501 336 706 1008 
138 773 203 246 230 992 364 41 404 
777 567 109 338 46 247 608 760 245 
690 397 47 154 557 1316 966 115 274 
440 512 1019 344 434 816 378 623 874 
33 294 669 946 11 724 63 502 302 
546 704 1015 174 424 199 1166 776 469 
365 952 504 684 371 114 276 8 149 
758 918 641 310 396 614 1042 876 54 
844 1036 858 112 210 516 509 401 382 
861 136 1057 413 437 349 787 348 1107 
659 57 223 131 360 281 550 163 650 
68 1537 125 664 311 84 374 345 487 
674 296 429 99 113 42 815 190 951 
66 1126 205 616 293 1338 38 168 1144 
1494 317 875 1185 353 980 848 39 1077 
117 630 256 1083 635 291 1288 859 819 
1508 350 528 962 461 1035 231 788 523 
123 679 1775 86 142 423 314 1214 372 
1262 853 1355 1503 686 134 802 417 92 
1123 1584 399 562 20 783 1096 126 558 
72 1359 1772 1071 731 485 447 354 906 
1333 175 821 221 58 584 612 1101 1133 
496 1105 931 903 342 445 543 500 489 
441 427 1486 627 1481 710 1027 1088 1569 
967 784 1142 322 900 1692 855 537 73 
410 421 393 1161 896 389 933 1032 458 
48 108 842 914 241 367 418 1151 604 
1014 105 292 781 1516 1009 12 857 766 
224 755 742 1351 813 775 610 16 5 
463 23 1269 971 330 607 702 998 1254 
1128 352 77 594 462 1512 677 667 229 
206 78 1460 1277 346 563 845 886 170 
763 1106 193 1168 370 305 498 375 734 
560 517 384 127 712 935 1478 81 432 
286 934 171 473 128 320 377 380 88 
1197 673 1073 155 1613 313 341 182 295 
586 847 745 1066 288 954 265 716 949 
535 1024 387 915 214 657 827 394 836 
165 592 244 298 1086 331 572 436 287 
519 868 334 691 631 640 191 273 260 
721 996 64 326 541 216 98 579 671 
80 79 225 283 646 910 356 1040 576 
3 266 337 480 626 159 944 524 75 
103 361 1124 347 316 197 522 104 21 
1016 1097 212 412 923 1072 736 1220 146 
660 388 715 556 91 839 425 880 926 
62 521 76 160 290 121 152 1248 332 
628 28 406 569 386 599 177 1103 478 
748 929 235 1611 312 428 226 116 1368 
227 799 95 928 705 1899 220 1084 582 
255 96 851 304 513 1725 339 275 1134 
118 1703 409 629 133 204 1745 1484 181 
259 642 299 264 973 140 1117 529 15 
6 636 45 321 438 829 173 289 213 
769 916 507 433 327 129 475 1025 141 
899 497 207 904 132 111 701 395 530 
422 217 268 1489 477 215 124 474 532 
780 162 909 1790 454 414 161 625 218 
866 40 1461 328 882 2618 1 913 455 
250 122 18 885 1323 67 995 1765 178 
26 1386 864 601 430 1119 1350 531 2254 
1792 19 1213 1433 505 200 1171 680 100 
1270 390 1098 282 1477 997 1392 969 797 
1194 1957 2073 1564 407 271 1506 153 1328 
1575 1164 1828 1995 1620 647 1861 795 566 
1326 2364 1079 2621 2464 194 464 10 1286 
981 1650 452 1289 1834 65 1589 1299 1846 
1774 1602 1882 1705 1690 219 2527 1649 2157 
596 185 83 892 233 1446 1232 665 772 
2165 883 1999 1498 1878 1718 2031 1175 457 
1033 391 1067 1632 907 696 707 1580 1471 
852 1677 1688 1411 1614 1358 605 968 1387 
1176 1284 1608 1434 147 449 1850 1543 1365 
1421 1251 1169 1258 1519 1981 2295 340 1485 
1756 1678 411 285 1280 675 580 443 764 
750 1188 1013 323 889 2027 662 1341 1187 
1186 2416 687 1952 254 713 1005 94 1162 
488 183 198 548 1563 574 1416 493 279 
1017 1275 1058 2300 1949 2143 1733 49 402 
1476 119 55 1043 953 1463 1639 2042 1836 
744 2067 1785 2781 2347 1026 2145 1633 1470 
2185 1418 1028 711 1640 515 818 1331 1242 
1023 1605 1059 905 1843 1734 1768 1943 1538 
2150 2292 1437 1696 400 633 1676 1285 1179 
534 2285 1789 1855 1159 1944 1283 2065 2092 
1883 2191 1654 1908 970 2470 102 392 937 
2221 1754 943 1697 1862 1074 1609 938 1274 
2109 1170 1550 1691 2345 1483 1919 1456 1405 
1953 1412 248 2136 442 1217 1191 1491 1330 
785 1406 69 1468 2296 872 1182 2161 1780 
1659 540 2408 90 267 1114 22 779 689 
617 643 652 471 800 1047 1652 902 1962 
1224 2053 1403 1954 249 921 2328 1327 1178 
506 1829 2776 1093 525 703 803 741 639 
824 1064 1389 1113 578 1398 319 961 1265 
1592 2228 1680 1184 2004 2743 1968 1858 533 
1325 243 668 854 1407 1683 963 977 1345 
2129 1561 1844 106 1354 1955 2066 2557 1848 
2430 2779 1448 1623 1208 1722 1055 697 7 
1672 9 2047 832 1594 655 1749 2209 2113 
1687 2304 1562 2714 1794 201 964 808 403 
747 990 1647 986 179 1525 888 1201 1597 
1555 1587 2093 1595 1814 2728 807 1881 718 
1152 994 1482 1404 1174 2128 1684 1012 1644 
1572 1240 1753 2490 1701 1076 1210 1061 211 
1979 1203 1966 833 622 1177 1497 1710 726 
270 1377 1913 1960 1628 1852 1413 1183 1272 
2091 1763 1141 2594 1931 1383 240 987 1369 
2312 1223 1199 1256 611 1552 806 2277 2301 
2652 1087 43 927 1132 1319 834 518 1243 
2278 1767 1347 1811 1417 1308 1685 2426 1958 
1642 1219 590 1180 739 754 1276 252 805 
2565 1293 1863 1905 692 139 1372 1324 1222 
749 894 653 2205 1397 1893 2366 1730 1212 
615 1961 1118 1679 898 222 1196 1329 1385 
985 1860 1250 1505 1215 1835 25 1759 1776 
1233 826 1830 202 613 767 881 941 1500 
978 318 2194 2014 1318 863 1268 2348 2548 
1902 619 884 1443 1231 369 1310 1235 1429 
1548 2307 1472 694 1317 581 2299 1109 1127 
1643 1315 1363 1396 2006 545 278 1130 727 
1295 1618 376 1622 508 1099 1822 1081 1536 
1374 661 1380 1513 1155 2478 1507 831 1586 
1140 1509 2104 869 575 1003 491 1839 1091 
1356 1263 2021 1479 1340 1588 2297 1888 1216 
830 1876 1728 695 1030 1366 1964 1125 479 
1529 483 2038 1809 1425 1049 865 1634 1838 
1206 1674 1202 1281 1845 1181 1444 893 1630 
1967 1279 812 1492 1348 2159 2210 714 2240 
1094 1447 1120 1100 658 1145 1060 1886 1982 
1702 1493 1399 2346 959 1925 1332 1921 1629 
2395 753 1663 1832 751 137 1945 1041 1914 
1517 1577 1935 1391 1573 1137 536 172 1813 
1948 693 796 1011 870 1557 1006 879 1624 
2043 2451 2036 1334 24 511 756 1228 873 
1221 1038 1353 835 1122 1719 1002 2200 2037 
2052 860 2852 890 654 867 1744 982 1111 
1225 110 983 1842 1357 585 2453 2024 2537 
2232 1502 2441 499 920 1131 1567 1522 1928 
794 1362 2362 1158 2001 2139 1804 1435 1252 
1496 2379 1992 2154 2258 1808 1998 2762 351 
682 1871 947 2018 843 1907 237 743 1975 
1615 1361 1821 2425 2140 1600 2716 2546 945 
840 526 1395 1300 280 300 355 1226 942 
878 1480 838 728 717 1720 1455 1260 1787 
1342 1541 2335 2589 678 1238 309 587 792 
1428 1320 1148 570 1305 381 606 1518 761 
1895 1750 1593 1578 1521 1466 297 719 189 
362 1054 188 565 431 1089 148 1707 555 
1381 1046 814 1129 770 1501 1304 956 730 
975 527 1010 1487 1796 1831 1139 993 723 
1445 253 31 1063 1306 1031 2264 2074 2400 
1244 1911 564 1426 984 1778 503 1112 1977 
1812 1291 187 757 2072 1528 1104 1080 1149 
1297 1450 1673 1301 2651 2269 1524 919 101 
1294 1439 1576 922 2248 632 232 817 366 
2319 1370 2237 2176 1940 1110 239 1523 1018 
1352 1090 167 1052 1459 2279 1078 2242 789 
1312 1553 1499 2260 1675 1910 1007 2414 2839 
303 988 419 32 588 778 1344 1884 1255 
1936 700 1826 1870 1714 2034 2398 1556 1997 
1419 672 2123 1193 70 1490 1430 1335 29 
1337 737 1879 1972 459 1367 733 1462 1339 
2133 1574 2012 1218 1237 36 301 1020 746 
1153 676 420 2114 453 911 2452 1154 1546 
1721 1664 82 1766 1747 1150 1085 180 974 
1311 979 930 484 809 164 87 315 1402 
1535 822 568 553 1743 932 1302 1415 1241 
1970 955 186 130 709 648 958 609 1976 
1682 940 1021 708 2115 2148 1469 549 1082 
2156 1190 1075 448 238 765 368 1321 1271 
1069 554 561 405 150 887 74 1236 358 
1230 1115 810 2375 539 1511 1559 1583 50 
1400 1384 481 1207 1056 1963 1441 656 849 
573 51 2 1135 13 1532 740 60 1566 
620 1984 1029 1247 1379 2152 1849 1827 2598 
891 1022 600 688 841 1604 1560 435 1343 
559 2010 2225 2446 2318 2134 2750 2660 2223 
1665 472 93 357 771 1346 439 925 1349 
1617 1449 1726 790 2406 1257 71 1373 1048 
1551 2119 2160 1394 1442 258 1004 603 1819 
1001 1897 774 325 1102 2051 470 1971 2910 
948 2155 2101 2022 1314 1246 791 957 683 
793 618 1309 1156 284 1540 681 644 1510 
1625 1934 1669 2039 1841 2203 35 272 277 
251 725 1436 373 685 846 698 1859 416 
2158 456 960 2090 2272 1375 444 2040 1698 
1227 738 1670 976 820 638 329 1695 547 
752 1582 192 2035 1424 1467 1163 2219 1565 
637 965 1393 2410 2000 1205 991 850 85 
34 1273 804 1267 363 1423 1261 17 2198 
972 571 494 1121 1655 151 1959 1053 1136 
306 61 383 1165 1296 1875 169 2460 1873 
1764 1172 468 1388 1867 1116 2629 2243 2032 
2064 2956 798 89 14 1298 1287 196 624 
2055 2049 1534 2764 308 1755 2030 1923 1932 
1760 2023 1612 2434 2007 1571 1641 1160 1868 
1475 1410 1303 4 2127 1795 2284 2403 2211 
597 649 166 1068 811 591 1000 2146 486 
184 1167 538 1631 261 1514 1195 917 1401 
2474 1758 2813 1903 324 30 666 1504 490 
1108 1651 645 759 1542 1610 1591 577 1645 
1724 651 176 1627 1453 1050 823 195 415 
59 143 157 1249 583 801 466 1336 1713 
359 1579 989 2110 1708 1422 1282 825 786 
1752 1307 1554 1173 999 234 593 1147 1495 
908 1266 1530 1290 552 510 729 56 269 
762 156 670 1364 1239 1062 451 1209 621 
542 1816 1390 1980 2081 1922 2384 2327 1657 
1211 2569 3162 343 446 1189 768 1570 1143 
2514 735 2690 1717 2680 2122 2843 2554 2775 
602 1245 3284 2196 2641 2046 2257 2100 3086 
3465 2999 2528 2911 2938 3002 2289 1638 1259 
1598 3160 2845 3808 3564 2713 3025 3155 3142 
2633 2720 2686 1906 1996 1777 1278 2349 2508 
2918 2195 1869 699 782 2303 2247 1581 2847 
2102 2250 2977 2512 492 2341 2588 3540 2801 
1856 1547 2275 2245 1603 2987 1783 3013 2421 
2417 1661 2208 2963 3098 3529 2862 2851 2262 
2096 3319 2612 2121 1590 2106 1681 2084 2526 
1626 2098 2840 2968 2433 3636 2958 3413 4100 
3362 3707 1488 1420 2003 2825 1146 2351 2383 
1800 2959 2833 2975 2761 2506 3033 3256 3099 
2487 3315 3060 1533 2472 2455 2187 2624 2684 
2418 2378 2448 3174 3271 3095 3207 3378 3008 
2377 2075 2355 2932 2517 2606 3464 2545 3215 
3734 2871 3187 3650 2855 2332 4051 2499 2735 
2809 2044 1937 465 2560 2611 2689 2538 1802 
2675 1865 2806 2443 2568 2669 2877 2339 2533 
1771 2391 2646 1382 2314 1991 2493 2601 2041 
2135 1458 3193 2645 2483 2556 2330 3469 2239 
3125 3348 1779 2869 2008 2613 3094 1746 2746 
3425 3411 3391 3851 3111 3037 2427 2305 1253 
2291 2812 2767 2396 3297 3027 3303 2516 3122 
2795 3492 1619 2498 3221 2009 3082 2661 2532 
2510 1983 1376 1727 1414 2276 2183 2368 2120 
2486 3539 2673 2505 3360 1686 2511 2015 1978 
2468 2765 2111 2953 3079 2048 1866 2402 3249 
2824 3553 2739 2522 2808 3078 2088 1699 1693 
2562 1989 1716 2964 3175 2515 2338 2423 2280 
2415 3015 3699 2848 2659 3028 3721 2365 37 
2013 2173 2329 2298 2943 2181 3024 3124 2105 
1737 2025 2450 1711 1817 2216 3828 2271 1378 
2859 2639 2610 3238 3451 1607 2667 2429 2061 
1065 2886 1887 1773 2491 2385 2359 1700 3252 
2576 2389 2787 2829 2805 2268 2231 2226 2057 
2142 2282 722 2177 3156 2816 2668 2708 2363 
3375 2387 3247 2858 2880 3614 2983 3345 3309 
1662 3173 2794 1917 2399 2151 2103 2674 2457 
3072 1781 3338 2581 3005 2477 2944 1408 1636 
2190 1988 2916 2182 2870 3040 1942 3180 2694 
2693 3286 1070 939 1671 1668 2600 1264 2804 
2333 1889 2736 2540 3772 2549 2666 2050 1824 
2671 2409 1840 2846 3158 2687 2520 2432 3211 
3690 2519 3208 2461 3090 2317 2179 2440 2745 
2071 2420 2717 1965 2005 1987 3924 2732 3542 
2241 3508 1198 2709 2370 2322 2361 1531 3167 
1658 2116 2083 2579 3063 2202 3185 2656 2665 
1539 1924 2935 3339 1896 2939 1667 3368 3445 
2774 2206 2163 2141 2688 1969 2773 3258 2082 
2373 3029 2482 1890 3250 3620 1916 2883 3548 
3001 1793 2796 2712 1723 1431 2861 1807 1938 
2875 3455 2772 2251 3039 2444 3892 1806 3150 
3140 1993 1200 1736 1452 1815 1994 1877 2207 
2989 2678 2407 2922 2897 3890 2915 2172 2577 
1704 2392 1568 1558 2786 2521 1051 2950 3453 
2263 2704 2741 2484 1927 1454 2531 1637 2130 
2326 2595 2737 2820 3012 2863 3214 2323 2536 
2309 2481 3326 3327 2567 2449 2607 2534 1694 
2215 2603 2357 1786 2978 1545 2676 3003 3189 
2405 2059 2125 1985 3129 2256 1833 1920 2118 
2699 2193 2192 2885 3569 3336 2614 2086 1732 
1660 1689 1941 1900 2220 2798 3257 1901 2749 
2343 2835 2539 2466 1653 1803 2422 2770 2940 
2814 2881 3363 3316 1616 2290 1805 3499 1735 
1946 3149 3278 3506 3633 2951 3757 1440 1769 
2488 3387 1885 1762 1990 2068 2473 2827 2677 
3246 2572 2899 3121 2169 2941 2344 2653 2912 
871 2026 2079 2077 2439 2424 2752 2070 2647 
2222 2504 2325 2306 2849 2356 1729 1909 1739 
1585 2564 1825 2476 3574 2632 2828 3016 2733 
2458 1599 2112 1292 2094 2830 2630 2132 2657 
2969 2217 2164 2844 2573 3112 3179 3071 3308 
2738 2393 2465 2570 2642 2124 1432 2095 2500 
1851 1820 2887 2404 1039 1930 2724 2865 2854 
2204 3009 1646 2313 1857 2990 3351 1360 1648 
1549 2503 2636 1798 1956 2442 2725 3196 2218 
2249 3485 2382 2620 2524 2931 1515 2459 1933 
2584 1738 2638 1621 1915 2682 2316 3054 2802 
3273 3439 2919 3486 2797 1761 1810 1797 2994 
2253 3312 2431 2445 1874 2462 2017 2985 2934 
2011 3505 2763 3429 2615 3006 3390 3085 2604 
2374 2785 3014 1526 2529 1656 2701 3053 1706 
2799 1409 2592 2342 2587 3050 2413 2789 3700 
2890 2471 3489 3448 3480 3093 2367 2386 2178 
3047 2902 2923 2352 2214 2274 1731 3234 2436 
1947 2273 3373 2480 3337 2697 3213 3087 2803 
2238 1740 2759 1465 2199 1892 1204 2543 2108 
1898 2658 950 2287 2167 2447 3105 1451 1799 
2213 2201 2608 2016 2162 2961 2908 2535 3403 
4017 3123 1229 2324 2336 2702 2888 2029 2230 
236 2649 2492 1894 3398 3463 2137 1918 2753 
2555 1854 2609 1880 2340 2924 2175 2456 2321 
2751 1872 2288 3277 2625 3304 2045 2730 3756 
2233 3494 2925 3251 1666 1457 2186 1527 1709 
2281 2655 2982 2654 2261 2933 2153 1847 2679 
3432 2437 1138 2020 2768 2019 2700 2962 2227 
2705 2212 1192 1234 1427 1635 2898 1742 2495 
2744 3138 3070 2734 2605 2681 3178 3785 1748 
2622 2626 2265 2174 1818 2602 2331 3307 2376 
2578 3980 2097 2315 3170 2715 4228 3546 2672 
2731 3737 2837 2283 2259 3031 1939 1853 2900 
2547 2810 3232 2691 3280 3712 2841 2525 2469 
3733 3190 2635 3224 3803 1801 1596 2502 2310 
3045 1864 2397 3017 2729 3287 3274 3225 2244 
2184 2561 2496 2062 3893 2952 3065 3745 2619 
3559 2917 2583 634 2559 3010 2063 2089 2494 
2078 2727 3153 2644 3301 3219 3358 3330 3369 
3436 3836 1912 1712 2822 2711 1473 2590 2580 
2936 2390 2087 2882 3202 2703 2949 2311 2650 
2884 3267 2874 2485 3091 2054 1322 897 1601 
2957 2784 2360 3371 2627 2748 3145 3116 3818 
2591 2475 3367 3248 3736 3269 3270 2138 460 
1757 2076 1544 2188 2903 2988 2401 1784 2080 
3292 2663 2831 3212 3397 2388 2892 3119 2380 
2766 2876 1715 1474 2394 262 2670 2948 3372 
2706 2170 2631 2171 2107 2945 3114 3747 2582 
3034 2234 1788 1791 2236 2513 2033 2942 2872 
3400 2270 2593 2563 3460 2294 3293 3081 3939 
3937 3357 3059 3562 2197 2180 2099 2411 2575 
2586 2350 3201 3171 3266 3073 3895 3263 2992 
1926 1034 3004 2758 3442 3752 3684 3646 2497 
1891 1313 2302 1770 2229 2369 2692 3561 3341 
2255 3435 2793 2085 3444 1520 2811 2147 2235 
2523 2412 2778 2909 2585 2144 3406 3401 2246 
3268 2637 2058 3115 2479 3396 2060 2381 2662 
2372 2126 2501 3172 3738 2266 3285 2002 2542 
1951 1973 1823 2856 1837 2937 3176 3120 2530 
2574 3591 3783 3410 3320 3759 2970 3487 3089 
3538 3525 335 2056 2131 2868 3630 2518 2866 
3255 3718 3580 3657 3509 2435 2069 3106 2685 
3493 2771 3288 2742 2836 3804 4039 3282 3955 
3289 3713 2879 3722 3446 3279 2718 3792 4166 
3834 3703 4216 2507 3056 3958 4464 4734 3961 
3331 3902 3235 2623 3845 3639 4200 2864 4060 
4618 4497 3972 3607 4124 3404 2634 3862 3758 
3471 3677 3822 2783 2891 3032 3790 3077 4129 
3058 4422 3440 3778 3654 3276 4358 4392 3148 
2308 3844 3334 3194 3723 3405 3302 4149 3632 
3523 3195 3985 3727 3547 3670 3977 4257 3682 
4002 3361 3472 2371 3433 3831 3913 3763 4139 
4326 4388 2955 4310 3764 3349 4475 4738 3761 
2930 3152 3165 4248 3766 3967 3379 3618 4066 
3735 4416 4642 4072 4270 4918 4390 5772 2747 
2467 2616 3768 3350 3623 4439 4211 3894 3800 
3675 2967 3711 3083 4375 4038 5535 3311 2553 
4415 4661 4086 1950 2596 3537 3048 3500 3437 
3578 3708 3811 3868 3883 3717 4456 4891 4395 
4451 4536 2597 3313 3847 2740 3067 2189 4279 
2973 3478 4170 4188 4460 2929 4647 4255 2834 
4389 3662 3833 3450 2946 4637 4813 3715 4371 
4420 4169 5082 4664 4463 3920 2966 3325 2904 
3449 2721 3052 4000 3512 4480 3516 3993 4632 
3264 4496 4284 4567 3346 2821 2628 2438 3186 
4056 3676 3983 2832 4521 4007 4946 4705 4775 
4361 4366 4136 4993 4543 4619 4458 3041 3522 
3599 2842 2907 3103 3188 3907 3794 3527 3253 
2980 4093 3771 3990 4797 3898 3572 3769 3751 
3226 3353 4317 3714 3806 3412 4198 5425 3347 
4161 4202 4290 4003 4519 4453 3199 2896 3365 
3096 2648 3370 4113 3534 4068 4559 2976 3674 
3298 2777 4012 5112 3789 2867 3774 3556 3528 
4240 3799 4089 3743 3477 3615 3476 3826 3753 
3482 3409 3642 3754 4065 4646 4001 3000 3169 
3260 3462 3813 3594 3415 3317 3518 3231 4403 
4130 4560 3126 3908 2168 2696 3388 2354 3651 
3166 3931 4504 3101 3634 3468 3399 3242 3963 
3459 4175 3956 3328 2838 2788 2984 2857 2927 
3020 4259 3829 3624 4019 3773 3681 3344 4700 
3376 3821 4205 3672 4924 4117 4064 3679 3143 
3183 3418 4742 3848 3457 3402 3974 4134 3987 
3640 3323 4466 4328 3944 3294 3616 3306 3979 
3695 3244 3259 3730 4525 3897 4291 4387 3951 
3988 4127 4440 2895 4150 3281 3817 4876 3853 
1741 2954 3590 3825 3504 2726 4232 4253 4120 
3849 3011 3705 3861 4374 4600 4870 4729 3434 
5367 3742 2757 3557 2769 2860 3706 3392 3092 
4545 4359 3377 3474 4242 3526 4793 3814 2286 
3227 2558 4281 3655 3788 4575 4490 4444 3881 
2544 4075 3611 3921 4699 3571 4590 2664 4833 
4806 4448 3860 4485 2995 3100 3692 3427 4306 
3649 4133 4597 4046 3886 4754 5026 4477 4970 
4971 3466 3746 4154 3157 3222 3422 3973 4103 
3819 4084 3596 4979 3035 4340 3275 4263 3767 
2894 3563 3136 2993 3237 3236 3926 3191 4099 
3652 4031 3856 4189 4184 4484 2683 2819 3927 
3748 3952 4125 2823 3108 4688 4872 3577 3204 
2541 3941 3545 2998 2617 2914 3229 3638 3685 
2707 3644 4262 3598 3139 3698 3055 4142 4914 
2698 2986 3066 3163 2293 3272 3428 3107 3030 
3837 3424 3127 4506 4753 3586 4109 4061 4566 
3097 3075 2947 2571 3925 3810 4237 3550 4295 
4570 3484 3241 3104 4731 4937 3786 3333 3498 
3181 4454 3393 3408 4112 3356 3622 3744 4105 
4315 3592 3473 4095 3858 2780 3935 2850 3762 
4335 3588 3891 3200 3859 4245 2419 3628 3981 
3877 3568 4233 4069 3324 4394 4207 4465 4617 
5247 5179 4443 4958 5076 3936 3694 3023 3864 
3061 4402 4429 4349 3452 3888 3530 3007 2928 
3230 3243 3558 3283 3044 4434 4528 4554 2722 
3665 3855 4128 4156 3210 3970 3414 4438 3458 
3824 3470 3084 2358 2756 3022 4217 3663 2760 
3946 4114 3332 4246 3220 3576 2552 2991 2971 
3161 2599 3796 2807 3197 2965 3205 4024 3867 
3609 3443 3502 4386 3989 3659 2337 2320 3109 
2997 3617 2920 2815 3501 3613 4020 3619 3680 
3128 4468 3689 4594 3863 3820 3602 3668 3948 
3135 2817 2926 2893 3601 3544 3130 3198 2974 
4176 3830 3184 3144 4419 4239 4772 2972 3164 
3305 4365 4083 3673 3117 4165 3088 3018 4531 
4899 3608 3776 3687 4235 3380 4327 2755 4452 
4344 3666 3582 3431 3795 3146 4053 4573 3872 
2979 3755 4714 3842 3177 2906 3560 3366 3584 
3874 3552 2643 4081 3686 3479 4203 3850 4062 
3513 3750 4369 5001 4331 4028 3915 4137 3300 
4309 3702 3239 3775 3359 2960 3575 3110 4614 
3996 4347 3447 3595 4183 4206 4479 4148 4311 
3827 3945 4193 3991 4077 3950 3816 3395 4018 
4472 3749 3805 4811 3631 4338 4352 4685 3610 
5195 4116 4097 2826 3719 4736 3159 3779 4102 
3600 4551 4158 3589 4673 3960 4249 3871 3419 
3835 3777 2792 2428 3593 3720 3383 3541 3245 
4231 4990 4080 4639 3739 3637 3134 2723 1974 
2463 3295 3491 4187 4163 3233 3343 3043 3520 
4090 3329 3314 3299 3262 2889 3975 4425 4201 
2334 3661 3019 4256 3488 4412 3168 4197 4486 
4565 4342 1904 3741 3074 3760 3394 2353 3832 
3533 4288 4320 3420 3605 3656 3218 3514 4204 
3966 3151 3182 3068 2224 2754 3904 3441 3914 
3900 2853 3660 4058 4215 3554 3223 3042 3133 
4146 3999 3261 4199 4561 4487 4121 3318 2800 
3732 4252 4250 4174 3716 4219 3965 4591 3865 
3846 4258 3731 4272 3426 4307 4791 3645 3296 
4108 3627 3968 3930 3629 3876 3051 4152 4047 
2981 3740 5224 4598 3693 4999 4341 4727 5294 
3793 3626 3036 3407 2550 3878 3962 4157 4860 
4823 4190 3653 2551 4041 3969 3354 3597 3917 
3643 3697 3291 4131 3782 3064 2921 4073 4042 
4178 3929 4078 3216 2719 3688 4182 4234 3901 
3240 3531 4107 4055 3916 3021 4192 4589 3587 
3852 4377 4513 3381 3678 4033 3704 3352 3290 
3787 3519 3141 3389 3382 3515 3461 2901 3780 