# vtk DataFile Version 4.2
Generated by LIGGGHTS
ASCII
DATASET POLYDATA
POINTS 6000 float
-0.0164716 -0.0172803 0.0123062 -0.0144707 -0.0171643 0.0122971 -0.0142363 -0.0191512 0.0124449 
-0.0125913 -0.0202787 0.0122467 -0.0110555 -0.0187148 0.0123195 -0.0124785 -0.0173128 0.0124247 
-0.0106255 -0.020686 0.0122739 -0.0091274 -0.0192671 0.0123732 -0.00886805 -0.0169533 0.0122695 
-0.00735217 -0.022747 0.0124371 -0.0078593 -0.0208121 0.0124093 -0.0073823 -0.0182953 0.0122782 
-0.00543185 -0.023276 0.0122286 -0.00591794 -0.0213147 0.0125154 -0.00566655 -0.019339 0.0122979 
-0.00365914 -0.0193911 0.0122301 -0.00393773 -0.0214319 0.0122487 -0.00344654 -0.0235638 0.0122187 
-0.003296 -0.0174105 0.0122875 -0.00195076 -0.0204303 0.0122477 -0.00127749 -0.0172984 0.0123245 
-0.00148103 -0.0239119 0.0124555 -0.00514951 -0.0176279 0.0132659 -0.000651896 -0.0219927 0.0122741 
-0.000416965 -0.0191218 0.012352 0.000521639 -0.0238564 0.0123269 0.000724502 -0.0174 0.0123458 
0.0014778 -0.0219416 0.0122743 0.00253921 -0.023751 0.0122226 0.00211508 -0.018849 0.0123582 
0.00458228 -0.0234415 0.0123261 0.00554082 -0.0197668 0.0122785 0.00606577 -0.017386 0.0123002 
0.00422008 -0.018265 0.012284 0.00357853 -0.0202447 0.0123485 0.00657393 -0.0229228 0.012282 
0.00739546 -0.018993 0.0124166 0.0071391 -0.0210009 0.0123109 0.00272248 -0.0169348 0.0122956 
0.00520746 -0.0216096 0.013008 0.000973664 -0.0202571 0.0132409 0.00326543 -0.0220653 0.013162 
0.00881984 -0.0222851 0.0122854 0.00905895 -0.0201293 0.012309 0.00922319 -0.0181223 0.0122865 
0.0126813 -0.0183637 0.0122907 0.0107209 -0.0213073 0.0122822 0.0109854 -0.0171578 0.0123161 
0.0125031 -0.0203555 0.0122963 0.0145784 -0.019012 0.0123062 0.0107928 -0.0193733 0.013002 
0.0146873 -0.0169508 0.0122775 0.0168749 -0.0169116 0.0123559 -0.022047 -0.00898514 0.0122823 
-0.0191923 -0.00975319 0.0125291 -0.0191472 -0.0143899 0.0123953 -0.0174102 -0.00877909 0.01233 
-0.0182825 -0.0125866 0.0123483 -0.0212912 -0.0108365 0.0123881 -0.0202761 -0.0125682 0.0125553 
-0.0174198 -0.0107793 0.0123939 -0.0176897 -0.0157428 0.0127381 -0.0167732 -0.0138977 0.0122753 
-0.0107566 -0.0162926 0.0123809 -0.0155563 -0.0154847 0.012258 -0.0133444 -0.0155038 0.012401 
-0.014368 -0.0113173 0.012327 -0.0123746 -0.0116145 0.0125859 -0.0156714 -0.00979797 0.0124132 
-0.0120729 -0.00926318 0.0125178 -0.0105948 -0.0107303 0.0123112 -0.0129002 -0.0135395 0.0123362 
-0.0109049 -0.0136844 0.0124657 -0.0101239 -0.00878553 0.0122892 -0.0139625 -0.00894288 0.0131717 
-0.0148777 -0.0132516 0.0122833 -0.00932026 -0.0148967 0.0123264 -0.00888045 -0.0117934 0.0123526 
-0.00841609 -0.00982761 0.0123582 -0.00651836 -0.0164806 0.0123497 -0.00743005 -0.0142265 0.0122792 
-0.00649016 -0.0103639 0.0124111 -0.00544125 -0.0140157 0.0122731 -0.00270609 -0.0116908 0.0123037 
-0.00254088 -0.00969805 0.0122989 -0.00473642 -0.0121257 0.0123493 -0.00344373 -0.0139331 0.012299 
-0.00455563 -0.0158291 0.0123807 -0.000782942 -0.0106869 0.0122588 -0.00450729 -0.0100398 0.0124104 
-0.00672328 -0.0123514 0.0123085 -0.00244569 -0.0156192 0.012714 -0.00112454 -0.0129221 0.0123164 
-0.000507831 -0.0152969 0.0122641 0.000571827 -0.00916831 0.0122335 0.000742141 -0.013727 0.0122731 
0.00383616 -0.0130898 0.0123163 0.0056061 -0.0121497 0.0123132 0.00224243 -0.0118702 0.0122907 
0.00332495 -0.0150269 0.0123477 0.00529667 -0.0155199 0.0123147 0.00668376 -0.00992145 0.0122941 
0.00652999 -0.013928 0.0123469 0.0044089 -0.00862622 0.0123139 0.00141838 -0.0155212 0.0128491 
0.0074832 -0.0116992 0.0128449 0.00295675 -0.0100521 0.0127237 0.00729369 -0.0157779 0.0123276 
0.000450449 -0.011967 0.0131807 0.00489611 -0.0104238 0.0130547 0.00845135 -0.013365 0.0122731 
0.00872882 -0.00963192 0.0122704 0.012791 -0.0163158 0.0125409 0.00941485 -0.0115365 0.0123404 
0.0126257 -0.0135997 0.0122653 0.0112482 -0.0150506 0.0122918 0.0120278 -0.0114722 0.0123636 
0.0106629 -0.0131253 0.0123031 0.0142674 -0.0150016 0.0128502 0.0146764 -0.0131259 0.0122639 
0.0139148 -0.0107877 0.0123305 0.0125223 -0.00933501 0.0122799 0.00929785 -0.0160727 0.0123645 
0.0158209 -0.0101603 0.0123696 0.0144046 -0.00875843 0.0127879 0.0161856 -0.0147745 0.0123123 
0.0106259 -0.0100101 0.0128058 0.0163992 -0.0120875 0.0122996 0.0182798 -0.0154806 0.0123155 
0.0177723 -0.0135455 0.012304 0.0177865 -0.0097593 0.0122377 0.0197959 -0.0134093 0.0123278 
0.0185794 -0.0117153 0.0122846 0.0197887 -0.00964957 0.0122383 0.0206863 -0.0116291 0.0125906 
0.0217912 -0.0099639 0.0123255 -0.0223875 -0.00649282 0.0122041 -0.0207864 -0.00529663 0.0122851 
-0.0190296 -0.00621809 0.0125383 -0.0204227 -0.00779673 0.0124885 -0.0217701 -0.00355525 0.0123001 
-0.0187252 -0.00423357 0.0123398 -0.0186388 -0.00214602 0.0122732 -0.0233805 -0.00474088 0.0122667 
-0.0237483 -0.00277623 0.0123491 -0.0220295 -0.00157251 0.0122749 -0.0204164 -0.00236274 0.0131673 
-0.0167944 -0.00482542 0.0123604 -0.0171113 -0.000845371 0.0122799 -0.0171153 -0.00679859 0.0122939 
-0.0238529 -0.000749852 0.0122596 -0.0187815 -0.000253753 0.0132123 -0.0205356 -0.000242753 0.0122516 
-0.0167558 -0.0028256 0.0122678 -0.0153925 -0.00781471 0.0123023 -0.0135049 -0.00714174 0.0122987 
-0.00933187 -0.00544487 0.0122752 -0.0115127 -0.00734583 0.0123203 -0.0132858 -0.00493105 0.0123575 
-0.0128075 -0.00296701 0.0122903 -0.0113301 -0.00535425 0.0123728 -0.0149118 -0.00366812 0.0123952 
-0.010836 -0.00341377 0.0123298 -0.0119659 -0.00115315 0.0123522 -0.0100134 -0.00158896 0.0123362 
-0.0151802 -0.00158794 0.0123784 -0.0150671 -0.00584202 0.0124086 -0.00883577 -0.00350623 0.0122989 
-0.00872615 -0.00735249 0.0122952 -0.0137407 -0.000198487 0.0123235 -0.00861113 -0.000147193 0.0124275 
-0.0014481 -0.00802227 0.0122691 -0.00546825 -0.0079408 0.0123486 -0.00699292 -0.00434325 0.0123466 
-0.00318325 -0.0021462 0.0123379 -0.00460823 -0.00609721 0.0123707 -0.00669219 -0.00632363 0.0123569 
-0.00466047 -0.000794142 0.0123844 -0.00134992 -0.00296784 0.0123333 -0.00357042 -0.00426391 0.0123686 
-0.00505306 -0.00290126 0.0123396 -0.00662639 -0.000430091 0.0124384 -0.00346272 -0.00778634 0.0123998 
-0.00256708 -0.0059947 0.0123194 -0.00720814 -0.00234738 0.0124324 -0.000306523 -0.0046854 0.0123073 
-0.000264887 -0.00130527 0.0125847 0.00245765 -0.00815025 0.0122902 0.00622243 -0.00776001 0.0123039 
0.000700025 -0.00716746 0.0122556 0.000924383 -0.00289197 0.0123163 0.00378191 -0.00470581 0.0122922 
0.00293012 -0.00287222 0.0123821 0.00687354 -0.0035152 0.0123311 0.00397752 -0.0011624 0.0122829 
0.00458389 -0.00661414 0.0123338 0.00776067 -0.00532323 0.0123841 0.00625434 -0.00155338 0.0123715 
0.00492268 -0.00304753 0.0123634 0.00266682 -0.0062558 0.0129074 0.0016261 -0.000903899 0.0131 
0.00554514 -0.00473655 0.0132368 0.00824565 -0.00727404 0.0122776 0.00832287 -0.00124919 0.012353 
0.00891743 -0.00361446 0.0123151 0.0100597 -0.0081323 0.0122834 0.0097014 -0.00590267 0.0122923 
0.0148138 -0.00538122 0.0122453 0.016191 -0.000662605 0.0122714 0.011569 -0.00679653 0.012277 
0.0135632 -0.00699235 0.0122645 0.013088 -0.00428147 0.0122017 0.0141488 -0.00258296 0.0122752 
0.0118337 -0.00260506 0.0122732 0.0103316 -0.00125377 0.01231 0.0122311 -0.000618111 0.0123028 
0.0158589 -0.00367922 0.0125091 0.0110979 -0.00447334 0.0123821 0.0164386 -0.0082556 0.0122704 
0.0142162 -0.000242574 0.0123643 0.0224864 -0.00807828 0.0122143 0.0186808 -0.00757969 0.0123581 
0.021507 -0.00625773 0.0122562 0.0174043 -0.0060086 0.0123104 0.0233422 -0.00514128 0.01223 
0.0173621 -0.00231187 0.0123538 0.0218319 -0.00112959 0.0122183 0.0195669 -0.00572817 0.0123235 
0.0238511 -0.00101633 0.0122858 0.0181995 -0.000455585 0.0122712 0.0200489 -0.00375744 0.0122704 
0.0232714 -0.00294123 0.0128318 0.0217053 -0.00446873 0.0131616 0.0181119 -0.00413783 0.0127357 
0.0192675 -0.00202631 0.0129041 0.0206447 -0.00799674 0.0130452 0.0201547 -0.000192838 0.0127936 
-0.0223547 0.000603028 0.0122773 -0.0175347 0.00111095 0.0124367 -0.0238513 0.00220126 0.0123268 
-0.020563 0.00175713 0.0123153 -0.0220518 0.00310056 0.0123625 -0.0192977 0.00331182 0.0123776 
-0.0234138 0.00457151 0.0123827 -0.0198338 0.00623678 0.0122875 -0.0179005 0.00691714 0.0125349 
-0.0214296 0.00500479 0.0122867 -0.0181318 0.00493801 0.0123139 -0.0173046 0.00309519 0.0122971 
-0.0227217 0.00664658 0.0124533 -0.0210115 0.00785557 0.012299 -0.0150545 0.00353515 0.0123442 
-0.0156214 0.000490179 0.0122661 -0.0120668 0.000903945 0.0123659 -0.0140862 0.00177309 0.0123297 
-0.0100871 0.00120526 0.0124202 -0.0154973 0.00548861 0.0123076 -0.0104583 0.00317879 0.0122956 
-0.0138289 0.0066183 0.0122964 -0.0124407 0.00290936 0.0123526 -0.0133982 0.00466422 0.0122993 
-0.00865593 0.0040498 0.0122793 -0.0159733 0.00743095 0.0123479 -0.0127356 0.00828699 0.012442 
-0.00826423 0.00722029 0.0123744 -0.00817951 0.00180592 0.0123582 -0.00119108 0.000453095 0.0123502 
-0.00318889 0.000560054 0.0124066 -0.0017634 0.0042352 0.0122913 -0.0036671 0.00476332 0.012604 
-0.00449525 0.00656405 0.0123212 -0.000891299 0.00243327 0.0122945 -0.0056664 0.00494237 0.0123669 
-0.00583695 0.00141022 0.0123505 -0.00681404 0.00327496 0.0123761 -0.00115803 0.00614289 0.0123161 
-0.00288777 0.00255059 0.0123285 -0.00480637 0.00313178 0.0123782 -0.00632934 0.0071294 0.0128917 
-0.00748325 0.00549289 0.013015 -0.00301304 0.00791004 0.0122799 0.000277313 0.00406381 0.0122997 
0.000410573 0.00794394 0.0124477 0.000791534 0.000771274 0.0123734 0.000835607 0.00598768 0.0122915 
0.00685927 0.00035245 0.0123367 0.00663519 0.00636127 0.012329 0.00423519 0.00422482 0.012311 
0.00623046 0.00440223 0.0124081 0.0022501 0.00449582 0.0123149 0.00361278 0.00232326 0.0123292 
0.00281394 0.000488593 0.0122832 0.00560398 0.002503 0.0124201 0.00163096 0.00259018 0.0123012 
0.00756555 0.00291044 0.0123126 0.00479895 0.000666612 0.0124606 0.00855855 0.00514678 0.0122536 
0.00876736 0.00723165 0.0122755 0.00883829 0.000797918 0.0122808 0.014135 0.00629752 0.0122343 
0.0159003 0.00742334 0.0122478 0.012275 0.00757025 0.0122498 0.0130632 0.00345533 0.0122867 
[...]
POINT_DATA 6000
FIELD FieldData 7
id 1 6000 int
595 1278 1169 727 441 1154 508 632 1141 
534 837 224 587 186 1053 1300 195 1455 
663 719 904 14 1017 944 158 608 980 
108 556 1081 37 298 279 227 533 297 
1255 13 639 986 443 192 117 230 1367 
26 955 239 605 833 1136 578 1380 1585 
909 1753 21 1203 628 1662 1535 1226 539 
231 1890 1714 793 176 501 954 2061 552 
102 399 191 549 142 404 301 1132 456 
479 67 497 762 455 1360 570 1395 772 
741 1070 500 946 274 1429 879 581 532 
56 115 1103 219 1219 700 1658 253 129 
777 1518 2113 323 1390 989 1092 1038 1096 
360 273 1827 3188 3170 867 1938 174 691 
2960 1313 1052 1936 1063 1098 45 2852 1197 
1725 8 4536 5020 1640 647 2011 122 5931 
4497 1247 454 894 4470 1651 2424 818 3467 
20 832 15 392 143 2194 189 693 1615 
616 1986 4001 431 1586 810 97 4697 537 
607 1332 265 611 551 451 385 540 1001 
825 1040 753 1031 258 988 673 646 495 
59 658 362 315 856 805 132 1205 345 
447 1441 357 692 1980 1718 351 919 171 
1764 415 1104 1285 594 636 88 774 604 
95 30 707 731 2669 105 966 1868 784 
396 208 1460 1131 1458 215 711 590 934 
623 953 188 3083 3090 6014 2595 5833 6070 
5556 5774 5486 5904 4671 6001 5623 5793 3538 
1492 3713 542 2215 3248 1072 4036 1530 5766 
124 2549 5740 4248 2169 1349 499 504 652 
3546 737 2358 866 308 1117 1468 1126 2154 
749 2799 669 651 529 196 264 386 1477 
622 520 127 359 696 140 912 58 968 
482 1123 389 450 321 1442 1286 1146 773 
1822 1635 1149 674 783 25 167 765 440 
266 1005 269 423 918 267 414 181 3 
1159 1481 5 5287 4137 3440 5708 951 5951 
5775 5155 5616 5599 5068 3131 5980 5610 5977 
2720 5825 5011 5171 1561 3349 2417 5757 4356 
2618 3524 2481 2923 168 1689 1352 3382 3080 
2642 4422 1381 1333 2920 1630 1234 752 3918 
47 1670 979 544 1867 1027 666 960 52 
1076 3447 254 517 2268 2536 865 397 111 
582 427 939 263 233 317 1617 824 311 
1931 448 110 1009 184 492 1365 1181 1318 
1478 221 228 835 4484 2708 3594 3762 4332 
2432 3478 5808 4246 1249 5360 3402 6 3463 
5348 98 278 5959 3924 4213 2308 5204 995 
3861 57 689 336 2458 3254 4561 2682 3410 
3632 1965 2245 74 304 1032 240 776 425 
1043 1574 1212 941 285 1260 569 874 1047 
393 708 260 817 104 888 1106 562 1329 
1426 1576 1130 588 210 197 84 1703 271 
94 1006 378 309 1128 1797 1167 800 618 
468 1155 1652 1224 1747 320 2204 735 368 
466 49 1416 12 561 2497 1048 1473 584 
896 83 547 353 1095 785 889 68 1464 
391 781 1704 1739 407 790 477 1110 204 
1265 1180 803 2040 64 1685 630 1789 1120 
1015 100 2097 1643 572 1243 1690 854 217 
2160 1884 1174 957 789 2 1674 1158 349 
296 367 364 1025 981 656 1261 1246 1766 
1143 2136 828 1951 148 1988 152 1633 234 
2081 2423 1273 1510 1680 412 1517 1242 1655 
179 300 1737 419 687 1054 305 256 123 
99 1176 287 73 1540 591 1439 348 1555 
48 624 222 206 620 428 1012 1504 214 
289 1202 714 1733 525 1153 1543 17 1869 
483 1799 1605 1914 1201 458 717 2220 1147 
332 2078 2123 2163 585 2261 193 435 33 
1319 1357 1486 1552 2612 1389 314 1231 1291 
1188 722 326 1139 876 2293 3168 371 1007 
216 172 2013 3275 5048 2673 1908 794 46 
1553 331 3346 637 3104 1810 4502 4351 4281 
3073 2997 596 2616 438 3774 4792 3149 2519 
2935 4121 293 1942 4375 4285 1569 1435 1793 
908 629 1107 1673 1138 723 232 1860 706 
599 2341 1310 1093 1034 1593 1963 429 87 
1400 603 1940 1750 769 640 1235 1449 1982 
1343 1814 2243 1339 1229 1173 617 1619 250 
961 685 701 1405 154 992 151 380 372 
1317 426 840 418 846 682 999 1089 901 
494 650 32 598 1609 344 161 816 713 
2010 225 764 493 563 565 704 606 1084 
1820 576 782 775 1612 460 1254 43 814 
778 871 1334 40 1362 72 925 146 1175 
2075 1283 1527 1274 868 242 1682 416 1222 
1371 510 1611 1620 1077 1463 1779 36 2111 
1184 760 1194 1280 276 1462 383 498 1549 
259 615 521 1004 207 850 318 166 522 
1266 712 223 1452 248 131 61 558 545 
1060 244 829 931 885 1233 237 373 949 
683 1275 738 155 983 275 449 465 792 
947 1309 235 523 347 873 1323 655 462 
369 160 241 892 406 1638 302 718 1083 
1193 891 710 975 156 703 190 1664 437 
2384 1571 18 86 133 1995 2118 1575 1035 
408 218 1164 586 39 1000 1538 680 550 
638 366 1064 1716 1087 81 664 897 1228 
1045 1698 797 177 2093 724 958 631 394 
725 352 1428 1363 2083 375 90 715 1557 
1074 1476 1562 1407 559 2157 1813 779 974 
488 1369 1144 1843 1548 201 1964 1016 66 
2418 1223 1892 358 1841 1157 864 2329 1499 
1948 1584 2141 199 2793 327 1603 268 1772 
1100 1904 1978 1723 1654 3250 1248 1221 1937 
1368 878 2020 2238 2601 1692 342 1475 334 
1102 2192 1906 1436 548 758 2413 1065 4103 
2443 3150 1608 62 3911 2393 1208 2049 257 
2620 2710 3262 3011 1241 2540 2747 2882 3706 
3535 4271 3332 3118 1297 4861 2008 1621 768 
2399 1928 1950 1968 1023 2606 1705 2166 2142 
78 910 2115 2886 3397 3536 2533 3765 2977 
2402 2520 130 1947 4390 2339 3359 3303 3319 
2545 3788 5001 2588 796 2253 4083 3223 2437 
3532 4808 3461 2289 3966 3060 2035 2970 1374 
2400 2931 1307 3853 5334 2470 1921 1370 2147 
5773 2674 4880 2658 3117 541 514 5508 1342 
5882 1804 4443 4843 1037 1422 1199 4358 1564 
5926 5293 3607 3526 4160 1480 1877 3062 2395 
5581 1491 5012 2082 3272 2969 978 137 2834 
3324 1213 5539 5946 2102 3071 2462 2705 3763 
2186 5690 2272 1849 3455 2929 2804 3146 2979 
4312 5220 5930 872 1443 1502 1028 1069 695 
3152 141 2171 795 511 4426 1127 716 1388 
1828 333 162 1809 139 322 574 1588 688 
1484 848 395 295 2246 859 4207 1434 1142 
1994 356 757 213 811 2647 1397 1878 182 
3302 1993 1738 858 2514 2482 2209 163 1150 
641 1292 1411 1850 402 820 3292 3014 126 
887 2269 806 1642 1328 3109 2518 690 1447 
834 1671 678 808 469 819 34 763 211 
721 150 515 526 627 1024 459 457 175 
335 220 7 1770 1151 1399 410 312 994 
1293 756 1331 481 1387 165 726 1044 16 
93 1080 1613 387 272 173 2156 932 382 
180 1111 350 118 23 1036 1311 354 1438 
1376 229 1166 1566 489 895 63 518 261 
1913 1385 1348 286 1731 1366 1384 956 85 
1437 1472 339 1325 1326 1372 1567 1837 2210 
928 1344 755 310 1558 205 1118 973 238 
461 4 959 92 1186 1108 613 860 564 
1058 153 341 101 863 411 634 524 771 
1506 676 770 2045 1085 852 1787 471 1051 
138 1479 1851 1086 1786 906 698 496 1695 
1889 567 788 1097 838 649 791 527 720 
1148 1949 1354 1417 355 1565 1137 1544 916 
280 1450 185 27 409 113 2429 1842 665 
476 70 1262 2088 1881 766 405 1623 1379 
882 836 950 194 2145 964 1029 998 1377 
245 433 1105 571 478 823 855 935 1220 
42 491 699 1539 1263 728 1189 1207 1925 
1537 512 746 1501 473 270 3121 54 1519 
2711 1 1494 560 1624 1601 1713 1308 730 
1394 1090 1591 1520 2282 452 645 729 125 
475 1919 1985 787 902 1451 365 1287 1996 
251 648 1474 1512 1629 1757 900 577 2582 
1790 2087 1595 1858 610 1259 2105 530 390 
71 671 307 593 474 1886 1039 921 546 
1645 1696 1406 675 531 77 767 80 120 
2751 147 1172 844 633 1190 106 985 555 
1240 926 870 554 1819 937 984 1756 1010 
1979 893 759 736 1375 1284 812 967 1891 
1489 1298 899 262 1987 1721 1835 1604 1279 
288 1708 2286 2785 827 1470 1812 745 4388 
3295 3997 5850 5324 3422 5891 6064 5353 5052 
5901 5018 3730 5709 4473 5464 4335 4055 5824 
1823 5805 5987 4421 4720 4909 5131 5229 3792 
5794 5815 5231 4674 5472 4728 5554 5799 5788 
5900 3176 5073 5239 5576 5266 4459 5214 5569 
4679 5779 6031 3648 5538 4976 5734 5635 3258 
3618 3883 4776 5846 4700 2135 5309 5446 4651 
4961 4959 5429 5561 5804 5208 5605 6028 5281 
4965 4073 4056 1715 4628 5568 614 1495 4191 
6017 4222 2625 2104 5047 5430 4848 4408 3171 
2535 5994 5292 2167 3922 1454 6038 5027 4534 
3892 3078 5029 5196 2551 761 3193 4757 3462 
5432 5563 5728 3894 4807 3160 2240 1545 4319 
3822 5150 3348 5310 5163 4522 4758 3926 4105 
5631 5494 6006 2847 3477 4028 1945 144 1356 
1299 1217 1647 65 340 751 3027 134 119 
200 2608 2532 2802 845 1099 3108 1717 743 
2098 2504 2307 1290 3259 2500 3191 849 3401 
1420 2179 4019 1337 1466 1957 2177 1187 116 
2492 668 2152 2117 2405 2094 2516 929 1627 
377 2262 1761 2828 1678 2621 1541 2703 936 
2043 2761 2569 2666 1665 2249 1923 2463 2553 
3053 3578 1315 1206 1650 3507 2604 2626 1687 
2128 1864 3623 3021 4696 2677 799 580 635 
754 135 346 1392 1347 1250 681 543 1330 
1427 853 1066 821 626 807 880 164 1989 
1214 583 813 159 1059 400 1269 1281 861 
1109 145 969 316 1547 659 877 1412 2501 
1003 2132 1706 1773 2453 2202 467 28 338 
667 1929 2127 1409 2879 2116 1983 1402 1622 
430 2336 324 2183 2784 2168 1335 2063 869 
1668 1801 513 597 187 178 1162 1116 381 
841 82 226 943 942 1225 1720 1784 1580 
38 281 306 1796 945 1050 798 1192 660 
1408 149 1582 1211 528 1959 1614 420 157 
1748 1872 1691 2107 1341 31 1094 1952 1496 
2449 915 963 1204 1847 1653 1710 1895 1019 
2029 1497 1735 2573 1736 1423 75 1818 2866 
170 2100 503 592 1160 2162 2055 2398 917 
3725 1419 1897 1257 3154 2624 1974 1758 1483 
516 1445 439 434 686 446 938 325 486 
379 2131 202 802 51 490 826 1846 1125 
1752 361 1528 1272 1046 445 847 1967 2165 
1509 236 29 2324 987 246 1926 2687 1101 
2112 1191 2471 2197 3234 1216 747 22 1033 
2219 2752 1340 2904 2038 1071 1573 2465 2138 
2263 2120 1893 1646 1503 1693 3943 1433 2526 
1533 2672 53 3114 3046 2510 2228 914 5957 
3837 5139 1879 6002 5567 5677 5722 5966 4367 
4659 4571 5082 5141 5663 5356 5737 3696 5199 
5466 5339 4201 5105 4920 4557 5758 4343 5143 
4900 4209 6000 4834 5326 5744 5419 4152 5135 
5040 5821 5537 4850 5622 5125 4819 4887 3492 
4639 5119 4539 4446 5714 3345 4748 5246 5571 
3517 3838 5910 4616 6058 5670 5938 5976 5701 
4912 5660 3642 4277 5271 4310 5178 5252 5847 
3388 5492 5335 4157 4675 5741 5398 5836 5235 
5967 3881 5839 4299 6007 4860 5100 5256 4727 
5420 5520 5674 3045 4677 5288 5213 6024 4617 
5565 4769 5521 5877 5939 5724 3219 4428 5308 
5470 4719 5932 4430 4303 3494 4787 3606 2941 
1594 5223 3652 5703 4545 4118 5138 2954 1871 
5474 4107 3836 2430 3064 5394 3649 3186 4924 
2995 4014 5619 5527 4910 4917 3681 3736 4110 
4172 5301 3603 2146 5154 2912 5046 3424 4598 
5158 3731 5099 4901 4939 4602 5405 4150 2064 
4546 4178 3249 5342 4400 4938 3740 4413 5647 
4661 4389 4711 4610 313 1424 2291 2583 1848 
303 1927 1785 76 684 2297 2313 2351 107 
2684 2867 2486 1728 3225 2335 3279 3960 1600 
2772 3863 3862 2281 2099 2789 2223 1782 1661 
1876 3373 2714 470 2632 1916 4100 1915 4514 
4167 2300 2947 3151 3572 4188 3127 3563 2933 
2325 3539 3084 3361 4726 2724 2373 2760 2899 
3047 1378 1322 1500 1386 487 376 733 19 
343 786 702 485 35 1836 1056 1453 621 
363 96 2041 198 575 612 291 1656 1068 
2522 1524 1875 1383 1883 2851 890 2242 2103 
1556 2433 2880 2056 2865 1780 1734 2831 3134 
881 3106 3626 2484 3227 1769 2109 3799 2915 
2074 2649 2548 3905 1301 1008 1179 809 424 
996 277 642 464 971 566 282 109 2080 
839 480 907 670 506 24 600 1014 1834 
1806 2478 2375 875 2306 2071 1583 1446 1981 
1403 1649 2652 1467 2499 1771 2126 2746 5604 
4461 4969 6008 3591 5411 5261 4101 4166 4735 
5928 5684 4541 5248 5359 5002 6048 5923 5816 
5993 6003 5650 5515 5719 4417 5118 5236 3962 
4950 2570 4895 5861 4991 5999 5498 4214 6050 
5975 4907 6065 4851 5608 3996 3742 1350 5800 
4198 5195 3377 5557 5704 2829 2735 2391 5764 
4974 5280 5185 4176 5344 5844 243 4519 5006 
5692 5381 4903 4063 5400 4368 4117 5311 5066 
5760 4032 5786 4058 5392 5414 3101 5612 4525 
5869 3819 4874 5767 5514 5721 5736 5585 5886 
5630 6020 5828 5403 5491 5449 4407 5699 6018 
5896 3022 3873 1258 1133 3611 2288 3395 4323 
5037 2290 1011 4147 169 3672 2993 91 3566 
2524 4076 4070 4937 3043 3766 3957 3655 3604 
2018 1156 3635 4489 3122 3812 4463 3945 1073 
2284 4436 3811 2661 3437 4145 4582 3845 4494 
3576 4580 4330 4657 4158 1115 1579 421 804 
2633 79 398 2643 255 3949 2296 41 679 
830 2379 112 505 2164 1185 328 2436 780 
1182 2640 1984 3434 2729 2381 2596 2050 2354 
2585 2004 2699 2786 3614 2657 3859 3009 3051 
3469 1742 1021 1026 990 1421 1314 1457 2028 
2396 1498 857 1075 884 337 1513 2129 69 
1078 2644 453 2007 384 2721 2345 2457 2185 
3638 913 1057 2023 370 1865 1954 2491 1264 
1482 2411 3016 1905 1829 519 1253 10 905 
1592 1145 417 1572 1414 2072 1013 2328 1119 
2022 422 11 1523 1018 965 1312 55 1355 
923 1382 1844 1701 1022 2542 619 1597 2940 
1152 1859 2431 2250 662 2389 1316 3281 1590 
60 3735 1997 2143 2962 1628 2059 2872 2378 
2148 1493 1953 1514 1684 2332 1215 3002 1854 
2144 4647 2725 4420 2906 2425 2928 2125 2614 
2713 2987 962 2566 2184 2416 976 2006 553 
2617 1866 1554 1636 2267 2233 2234 374 2264 
2513 2653 2000 2447 1840 1759 2456 3198 442 
1578 1808 2016 2046 3322 1909 2697 2348 2031 
1657 2732 1346 1729 3155 2216 2543 2862 2237 
1432 3020 2972 2738 1485 2572 2796 2756 2663 
2791 3561 2541 1763 2466 3464 2096 3558 3602 
2594 2919 4712 2076 3370 2890 4730 4090 3897 
5217 4193 5628 3230 2564 4482 3216 4469 3797 
3619 4173 4629 5169 2745 3207 1943 1751 2554 
1251 330 822 1425 114 2455 2656 2188 5544 
2515 1030 1448 4896 2175 2009 2067 5778 4169 
2731 1874 4841 4429 3010 3983 3800 3839 2077 
5881 4601 3133 5164 5341 5443 4691 4882 89 
1992 1508 1288 1744 2605 2224 509 1091 1303 
750 1531 1767 1041 1336 284 1930 2159 1707 
1295 2376 507 1239 1932 1917 2092 2850 1899 
1679 1529 50 2380 463 1991 299 3224 2734 
183 930 2274 1525 1960 2037 2309 2502 2730 
2212 1577 5373 3677 3091 993 2814 2366 3351 
2680 3785 2581 1863 3474 2830 3328 2765 2958 
3986 2170 1515 1113 294 1232 1321 1732 502 
2280 579 1719 1413 1042 1618 734 694 203 
557 970 1198 2260 740 661 1900 653 1568 
927 1802 2201 329 538 1754 2091 2057 2350 
991 1681 2452 2058 1345 1526 2321 247 1990 
1268 1648 2315 2609 1161 1587 1711 1196 2200 
2174 1853 1536 283 2333 609 249 2176 2733 
589 2498 1912 2021 2736 1838 2817 1542 3426 
2211 2222 2178 3280 1999 1800 654 842 1398 
1327 1121 1901 1020 1134 432 977 3187 1775 
1237 1210 1922 1792 1973 1918 815 1256 1488 
2155 2252 697 886 2406 1082 1852 1227 1625 
2229 1741 1471 1304 1238 1430 2419 2025 1903 
2488 1487 1359 982 1289 2773 2610 2559 1245 
1602 1677 2531 1364 3075 2555 2507 2226 1560 
1338 2628 1270 2247 2027 3590 1444 2881 2323 
1676 2124 2667 1140 1532 2314 1888 4477 2370 
2468 3458 2068 3331 948 2722 3126 3592 1683 
2119 3857 3529 2343 4687 2651 2270 2978 2748 
2561 4490 1049 2505 3627 3444 3878 2285 1788 
4143 1939 3291 2678 3472 2963 4673 3928 3195 
1749 2917 3666 3067 2139 3708 3992 3025 2819 
5978 5626 2592 3095 3314 2860 3846 3613 3769 
5091 3782 4020 3315 3831 2994 3358 5302 3189 
3448 3163 3551 2576 3886 2639 3156 4951 4287 
3360 2574 4655 5385 2461 1675 3908 4135 2809 
3622 5636 5769 5533 4881 2645 3087 2816 2777 
4914 5659 3703 2767 2304 4718 3685 4134 5043 
2957 5030 2825 3887 3218 3694 5640 4933 4786 
3579 3773 4097 2742 2876 103 3950 3938 3980 
3196 5056 4670 5173 4573 5004 4418 2310 3233 
2759 3901 3818 3340 3849 5384 3194 4376 4818 
4918 5086 4963 2275 3501 3847 5790 3183 2671 
5524 4764 2485 4416 5257 2981 4298 5843 5657 
5809 1970 4035 4247 3753 4284 3416 5323 4339 
3145 4062 3287 4518 1975 4363 3586 677 1124 
2085 2371 2754 2051 1461 4386 4593 1122 1817 
2258 2014 1898 3031 3059 3362 3074 739 2807 
1933 2277 1791 3099 1855 2302 3489 2193 1631 
2840 2195 1598 2327 1781 3326 2033 3175 2743 
2060 3004 2403 2467 4243 883 3423 3789 2248 
1599 252 922 1856 898 1267 1135 319 1666 
484 1663 643 1178 2768 1114 2017 1163 1244 
1639 2956 2577 1765 1393 1783 997 1209 831 
2401 1862 1305 1659 1743 1271 1183 1815 2151 
2048 1465 1282 2001 1955 1252 2283 1171 1061 
1774 3205 1934 2521 2114 2517 2692 2066 2895 
3554 2259 3012 1551 3329 2584 2675 2870 2552 
940 1079 601 1700 1589 2052 403 2106 1200 
1699 705 1795 2153 1055 1415 2298 843 2567 
1456 2483 1294 2255 933 1794 2084 2254 1088 
2320 2331 413 2460 1760 1824 1606 1845 2557 
2377 1946 1062 1961 1634 1129 1667 2365 2024 
1353 2547 1776 2441 2346 2032 2479 2367 1637 
1165 1641 2580 2095 2412 1236 2086 1195 2550 
1694 1550 2670 2182 1956 2359 1324 2983 2316 
2273 2444 2883 1559 1726 2251 2305 2042 2771 
2869 2565 1002 1803 862 2108 121 1880 1276 
1894 1358 2352 972 2230 1302 2571 1826 2528 
1839 1516 2187 1911 2161 2388 2357 1873 2700 
2503 3688 3044 1798 1709 3888 4415 4180 3420 
2330 1902 2782 3105 3728 3228 3668 3641 1697 
2706 2709 3913 2079 3159 2868 2874 4507 4824 
3096 2385 3867 1740 2053 2715 3255 3828 2810 
2589 1277 3190 1296 1977 2221 2898 2634 5776 
1361 2739 2303 2591 3488 4949 1607 4161 2322 
3070 625 3917 2855 1431 4495 4377 4450 3390 
5269 3698 4250 2704 3427 4607 3612 4280 1320 
3518 5146 4637 3732 3232 2878 5325 2225 1469 
4286 5611 2355 5700 3124 5972 4866 4516 3311 
5874 4884 1351 3466 4095 5113 2783 5922 3268 
4783 2986 5832 4577 4054 3620 6052 5705 4370 
4768 5377 5296 5675 3820 4979 5725 5607 4801 
5438 5442 4177 4156 5761 5081 4897 4125 5950 
4854 4782 4799 5911 5509 5602 5887 2805 5065 
5511 3097 2558 4008 3278 3405 4515 5181 4729 
5829 4703 5580 4944 5865 3914 5279 4015 6021 
4888 3868 5777 4391 4071 4212 6015 2884 5752 
5668 4195 5328 5054 3665 5801 5240 3547 4811 
2887 4926 3316 3173 6009 5219 5588 5273 4425 
4203 5986 4862 5858 5856 4595 4278 1546 4003 
3870 4902 4664 4452 4761 5878 2755 5711 3553 
4226 5123 4500 4660 4237 4088 4612 3625 4274 
4855 3989 4111 3630 3745 4604 3940 4326 3816 
5129 3965 5205 4181 4771 5625 5918 3958 3723 
2695 4638 3715 5107 3212 5182 5447 3179 2191 
1830 3335 2360 3970 3050 2438 3192 4540 1755 
2218 4592 2257 2968 3975 4164 3238 2619 2631 
2392 3817 2627 1972 2723 2390 3300 5791 2770 
2861 2889 3076 2414 3645 3598 3776 2496 3394 
3181 2948 3375 3802 3605 3407 3815 3136 3135 
3414 2926 5085 2949 4382 3680 2326 2196 2952 
3143 2859 5008 4093 2415 4252 3702 3318 3533 
4245 3509 4202 4053 2818 1831 1230 1616 1505 
2353 136 1924 2911 2480 1722 2815 2408 2140 
1702 2797 2312 2019 2613 748 2976 3848 1910 
2587 2440 3285 3419 2090 3209 2896 1626 2292 
2864 1857 2849 2383 3499 3333 2967 2845 1896 
4106 1727 2908 3790 3000 2361 2660 2638 3001 
3624 2665 2648 2900 2980 2844 2795 2764 2026 
3556 2776 2342 4340 3498 1712 742 1688 2172 
1306 2137 1887 3347 1969 3520 536 2205 1418 
2239 1724 3088 2334 3353 2073 1861 4007 3534 
2953 2629 2961 2877 2214 2689 2943 1825 2311 
2575 2654 2778 3008 2420 1170 3049 3307 3294 
2955 2530 2848 3793 2924 2276 5060 5253 3235 
4627 2232 1112 2685 3243 4804 4009 3082 4441 
2885 4993 2775 3056 5502 2062 1768 4705 3617 
4738 5609 4722 3342 2206 2070 4480 3180 4453 
4221 5743 3400 3369 3199 2047 4708 2679 2527 
2779 4372 3978 2727 2893 2347 1644 3942 644 
5104 4676 5238 4225 2901 3041 1672 3386 3629 
1730 4045 1976 2349 2446 4113 5418 3511 2934 
4485 3167 5756 3306 1966 5152 3764 3722 3350 
3468 4505 4823 4108 4136 3026 4275 4492 4943 
4092 4337 2973 5621 1832 2990 5114 5493 6061 
4704 3296 5455 5656 4894 5116 4360 5919 5685 
5860 5644 5358 4890 5039 5130 5095 5461 4820 
5716 4023 5488 4935 3856 5080 5872 2921 4739 
5112 5995 5059 5216 3644 3552 4631 4341 4689 
6011 4437 5671 5505 5649 4932 4046 4618 5578 
5638 5590 5177 6040 5028 5592 5535 6026 6029 
4229 5475 5409 5543 5321 4235 5017 5519 5669 
6023 5501 4681 5817 5803 5551 4995 5439 5678 
5873 5584 4702 5090 5227 6060 5996 5534 5909 
5676 4952 4266 5366 4922 5224 5137 5687 4401 
5276 4747 5989 4024 5144 4324 4962 4119 5739 
5189 4742 5404 5968 5863 5890 5157 5147 4527 
4549 4649 5618 5992 5929 5530 4844 4734 4750 
5416 5652 5203 6037 5435 4759 3826 5870 4833 
4261 4049 2603 4665 4338 3963 4232 4197 5745 
6053 6022 4365 4872 4977 3628 4986 4186 5471 
4017 4656 4954 3142 4925 5198 5845 4814 2646 
4668 4256 5025 5964 4568 4669 3903 3954 4827 
3069 3872 4403 5387 4562 5960 4946 5933 4350 
5201 4263 5637 4973 4124 4889 4552 4512 4891 
4170 5167 3164 5903 5349 3451 4556 3325 5889 
5906 5243 5192 5718 5482 4583 4966 5145 4102 
4693 4845 4684 4795 6035 3669 3247 5723 5921 
5259 4531 4268 3709 2950 3393 3504 3430 2812 
3898 4486 2798 3453 5762 3409 3660 2476 3865 
4127 5393 2562 3221 4317 4692 4211 3449 4599 
5230 4021 3457 4878 5298 2913 2846 3941 3712 
3601 3288 3242 4154 5096 3433 5862 3525 5570 
4041 4242 4781 3392 5552 3443 3959 4981 4427 
4200 4329 5132 3366 4929 3033 4542 5120 4632 
3933 4410 4547 3991 5033 3701 4006 3355 1885 
3771 2409 3471 2158 4016 2787 4130 3885 3343 
2121 3141 2374 2925 3431 2421 2265 2538 3446 
3460 2231 2964 4424 3220 4260 3998 4334 2902 
3639 3132 3921 3231 3659 3184 5067 3876 3858 
2426 5516 3844 4279 4906 3354 4217 2888 3915 
5267 4293 3937 2607 3100 2871 4569 3994 2509 