# vtk DataFile Version 4.2
Generated by LIGGGHTS
ASCII
DATASET POLYDATA
POINTS 5999 float
-0.0177703 -0.0413466 0.0039998 -0.0139972 -0.0426786 0.00400053 -0.0100035 -0.0424602 0.00400015 
-0.00657719 -0.0445226 0.00399867 -0.00267305 -0.043654 0.00399988 -0.00638245 -0.0405215 0.00400204 
0.00110208 -0.0449752 0.00399931 0.00863417 -0.0441435 0.00399888 0.00472728 -0.0432862 0.00399921 
0.0020162 -0.0402533 0.00414317 0.0103889 -0.0405494 0.0039986 0.0153758 -0.0421442 0.00400736 
-0.030544 -0.0330551 0.00399934 -0.0248612 -0.0331635 0.00399873 -0.0248038 -0.0375193 0.00399943 
-0.021486 -0.0310061 0.0039985 -0.0213758 -0.0351231 0.00399822 -0.0213677 -0.0395708 0.00400048 
-0.0143452 -0.0311959 0.00399767 -0.0145542 -0.0351889 0.00399839 -0.017924 -0.0373496 0.00399994 
-0.0179123 -0.0330177 0.00399937 -0.0118889 -0.0389331 0.0039997 -0.0103473 -0.0317566 0.00405808 
-0.00835746 -0.0370377 0.00400046 -0.00641785 -0.0310137 0.00399834 -0.00374616 -0.0343282 0.00400122 
-0.000759054 -0.0371816 0.00399983 -0.00246544 -0.0304048 0.00399901 0.000285157 -0.0333207 0.00400164 
0.00649309 -0.039635 0.00400427 0.00724829 -0.0352082 0.0040012 0.00844539 -0.0313919 0.00400004 
0.00310995 -0.0361639 0.00399714 0.00432165 -0.0323539 0.0040002 0.0128556 -0.0307247 0.004001 
0.0182194 -0.0392387 0.00399757 0.0168056 -0.0313919 0.00399955 0.0111576 -0.0343473 0.00400125 
0.0178299 -0.0352582 0.00401688 0.0141191 -0.037037 0.00399954 0.0208873 -0.0312528 0.00401165 
0.0255657 -0.0370241 0.00399939 0.0218416 -0.0351368 0.00399957 0.0249938 -0.0326759 0.00402145 
0.0290405 -0.0343016 0.00399867 0.0282675 -0.0303784 0.00399903 0.0221987 -0.0391481 0.00438404 
-0.0399668 -0.0207012 0.00399909 -0.0329614 -0.029712 0.00400675 -0.0359552 -0.0270568 0.00399912 
-0.0324312 -0.0218432 0.00399968 -0.0368022 -0.0231472 0.00399974 -0.0299014 -0.0253896 0.00411755 
-0.0289682 -0.02935 0.00399881 -0.021649 -0.0267951 0.00399895 -0.0224199 -0.0228647 0.00400321 
-0.0257421 -0.0250967 0.00409414 -0.0282833 -0.0216889 0.00399823 -0.0249764 -0.0290481 0.00402356 
-0.0180148 -0.0290194 0.0039997 -0.0180649 -0.0250203 0.00399953 -0.0186646 -0.021056 0.00399875 
-0.014091 -0.0256617 0.00400003 -0.0147015 -0.0216061 0.004 -0.010328 -0.0241089 0.00399954 
-0.0109298 -0.0201327 0.00415302 -0.00695378 -0.0209723 0.00413975 -0.0088102 -0.0278089 0.00400033 
-0.00406506 -0.0239081 0.00399908 -0.000220643 -0.0228109 0.00408012 -0.00123123 -0.0266504 0.00467446 
0.00930505 -0.0274835 0.00399969 0.0064775 -0.0246526 0.00399862 0.00364891 -0.0218061 0.00399847 
0.00539717 -0.0285032 0.00399846 0.00258487 -0.0256606 0.0039997 0.00150547 -0.0295118 0.0039996 
0.0168216 -0.0273928 0.00399929 0.0136564 -0.0249354 0.00399946 0.012873 -0.0208826 0.00400007 
0.0166282 -0.0222589 0.00403237 0.0199679 -0.0244635 0.00399993 0.0224828 -0.0275746 0.00399904 
0.0242639 -0.0239944 0.00399777 0.027217 -0.021246 0.00400073 0.0300084 -0.0241227 0.00406247 
0.0377815 -0.0243015 0.00399891 0.0314533 -0.0278908 0.00400066 0.0368133 -0.0202903 0.0039988 
0.0338377 -0.0229679 0.00400402 0.0354606 -0.0275594 0.00412084 -0.0428284 -0.0105149 0.00400182 
-0.0423222 -0.0151515 0.00408751 -0.0386341 -0.0169302 0.00399687 -0.0314905 -0.0144799 0.00399834 
-0.0336322 -0.0108968 0.0040213 -0.0392585 -0.0125415 0.00399888 -0.0304843 -0.0183501 0.00400052 
-0.035489 -0.0144626 0.00399793 -0.0351716 -0.0189311 0.0039997 -0.024844 -0.019647 0.00399942 
-0.0280168 -0.0124648 0.00399927 -0.0246125 -0.0103648 0.00400001 -0.0234239 -0.0146504 0.00400249 
-0.0270459 -0.0163273 0.0043662 -0.021221 -0.018012 0.00444141 -0.0122471 -0.0162727 0.00399865 
-0.0119949 -0.0119819 0.00399884 -0.0183011 -0.0105917 0.00399885 -0.0194278 -0.0144647 0.00399975 
-0.015945 -0.0177979 0.00399912 -0.0155029 -0.013848 0.00445086 -0.00306349 -0.0199799 0.00400346 
-0.00464828 -0.0132399 0.00399808 -0.00856633 -0.0140419 0.00399944 -0.00186683 -0.0161453 0.00399965 
-0.00723794 -0.0101922 0.00400105 -0.00585046 -0.017069 0.00408174 0.00214303 -0.0129296 0.00399808 
0.00133626 -0.0185434 0.00399875 0.00540559 -0.0181406 0.00400027 0.00894194 -0.0150708 0.00399818 
0.0093163 -0.0190515 0.00402193 0.00565842 -0.0109168 0.00400706 0.0197265 -0.0197303 0.00399856 
0.0169697 -0.0133583 0.00399871 0.0126303 -0.0168137 0.00399866 0.012535 -0.012735 0.00402483 
0.0165729 -0.0173125 0.00444129 0.0202275 -0.0156782 0.00399946 0.0279607 -0.0132338 0.00399931 
0.0237467 -0.0192524 0.0041208 0.0225261 -0.0117275 0.00399971 0.0278061 -0.0172788 0.00399925 
0.024333 -0.0152957 0.00404249 0.0312682 -0.0198303 0.00400303 0.0350453 -0.0136069 0.00399936 
0.0313303 -0.0153875 0.00399897 0.0397041 -0.0122386 0.00410815 0.0381632 -0.0161111 0.00402112 
0.042156 -0.0154367 0.0039991 0.043568 -0.0111895 0.00400124 0.0406692 -0.019228 0.00399986 
-0.0406132 -0.00692113 0.00400195 -0.0406753 -0.00288488 0.00400849 -0.044558 -0.00624601 0.00399886 
-0.0448205 -0.002261 0.00436209 -0.0314991 -0.00523063 0.00399821 -0.0368114 -0.00484315 0.00399889 
-0.0371707 -0.00896065 0.00400226 -0.0328109 -0.00144077 0.0040211 -0.0300771 -0.0089682 0.00399906 
-0.0230707 -0.00362306 0.00400574 -0.0274834 -0.00582403 0.0039989 -0.0208356 -0.00747363 0.00402217 
-0.0286901 -0.00199535 0.00410274 -0.015418 -0.00161345 0.00399932 -0.0132234 -0.0049568 0.00399894 
-0.0115885 -0.000466421 0.00414416 -0.0107039 -0.00819645 0.00399871 -0.0194039 -0.00194232 0.00399962 
-0.0146652 -0.00891222 0.00400048 -0.0172155 -0.00576776 0.00401809 -0.00776975 -0.00169877 0.00401913 
-0.00269809 -0.00968724 0.00399923 -0.00638001 -0.00625415 0.00399873 -0.00399348 -0.00301717 0.00400219 
-0.000888687 -0.00559727 0.00403284 0.00959255 -0.00991404 0.00400029 0.00683449 -0.00701784 0.00399868 
0.00124814 -0.00903209 0.00399919 0.00311609 -0.00549505 0.00399965 0.00114574 -0.00201425 0.00399947 
0.00569855 -0.00138208 0.00399924 0.0103183 -0.00505337 0.00399864 0.0182882 -0.00403981 0.00399865 
0.0171476 -0.00787293 0.00400047 0.0142961 -0.00426247 0.00399923 0.0131543 -0.00809515 0.00399869 
0.0123051 -0.000795056 0.00399954 0.0287255 -0.000562747 0.00399938 0.0277987 -0.00553303 0.00399833 
0.0248646 -0.0084831 0.00399889 0.0213042 -0.00666429 0.00399994 0.0250931 -0.00225095 0.00402308 
0.0287011 -0.00936607 0.00469338 0.021565 -0.000331413 0.00400107 0.0318206 -0.00696477 0.00399794 
0.0350472 -0.00460236 0.00399835 0.0369826 -0.00871979 0.00399697 0.0342323 -0.000569582 0.00399799 
0.038002 -0.00190645 0.00399923 0.0412501 -0.00423936 0.00399996 0.0449013 -0.0024494 0.00400018 
0.0444948 -0.00657626 0.00399969 0.040911 -0.00825236 0.00458206 0.0416116 -0.000162526 0.00400515 
-0.0448853 0.00294356 0.00399924 -0.0444444 0.0069192 0.00400034 -0.0412303 0.00107651 0.0039988 
-0.0373666 3.91025e-05 0.00399826 -0.039587 0.00759901 0.00399694 -0.0378145 0.00401348 0.00399951 
-0.0344609 0.00639064 0.00399955 -0.0341346 0.00240489 0.0039991 -0.0301934 0.00172246 0.00399895 
-0.0252072 0.000479444 0.0042179 -0.0235479 0.00931318 0.00399923 -0.0249982 0.0053754 0.00400146 
-0.0208761 0.00177617 0.00399911 -0.0274686 0.00852053 0.00399907 -0.0209929 0.00577425 0.00399967 
-0.0195522 0.0095055 0.00399915 -0.0170099 0.00639732 0.00399803 -0.0145476 0.00229814 0.00399905 
-0.0125332 0.00968506 0.00399962 -0.00989919 0.0032034 0.00399769 -0.00156263 0.00482454 0.00399884 
-0.00606245 0.00192484 0.00399873 -0.00544735 0.0060899 0.00399855 -0.001896 0.000691363 0.00400379 
-0.000157827 0.00893507 0.00399887 -0.00923077 0.00741077 0.00406206 0.00193774 0.0019056 0.00407223 
0.00241673 0.00587588 0.00400153 0.0060131 0.0041289 0.00399724 0.00906401 0.00154535 0.00399987 
0.00738988 0.00788631 0.00399978 0.00378384 0.00963561 0.00400298 0.0184283 0.00239009 0.00399961 
0.0183989 0.00639528 0.00402137 0.0106716 0.00520849 0.00399966 0.01118 0.0091754 0.00400019 
0.0144199 0.00682482 0.00405383 0.0140522 0.00283322 0.00410774 0.0221224 0.00394804 0.00399859 
0.0220895 0.00794696 0.00400149 0.0254629 0.00174957 0.00399972 0.025686 0.00576593 0.00399916 
0.0291951 0.00348023 0.00401054 0.0256409 0.00979671 0.0039998 0.0365595 0.0058391 0.0039995 
0.0380012 0.00209595 0.00400433 0.0334139 0.00336985 0.00400136 0.0328566 0.00735039 0.00399984 
0.0359575 0.00986611 0.00424076 0.0405948 0.00598953 0.00399892 0.0445941 0.00604186 0.00399893 
0.0449401 0.00205755 0.00399879 0.0438131 0.00996803 0.00399825 -0.0424674 0.0146593 0.00401338 
-0.0436676 0.0108433 0.00399913 -0.0377669 0.0170335 0.00399838 -0.0397389 0.0115951 0.00399889 
-0.0321783 0.0125375 0.00399968 -0.0337716 0.0169527 0.00413441 -0.0299317 0.015846 0.00399958 
-0.0260164 0.0166567 0.00399757 -0.0220243 0.0168864 0.00399862 -0.0238021 0.0133043 0.00406199 
-0.0277221 0.0125122 0.00400068 -0.0198091 0.0135249 0.00400006 -0.0112602 0.0179581 0.00399741 
-0.0162197 0.0117609 0.00400144 -0.0111292 0.0134294 0.00399812 -0.0180332 0.0171317 0.00399937 
-0.0149049 0.0196217 0.00411659 -0.014456 0.0155138 0.00475706 -0.00781945 0.0111864 0.00399866 
-0.00392711 0.0102703 0.00400024 -0.00193976 0.0186791 0.00400208 -0.00394091 0.0144333 0.00404629 
-7.64368e-05 0.012933 0.00399875 -0.00785443 0.015583 0.00487558 0.00183759 0.0164438 0.00399932 
0.00822142 0.0118667 0.00399988 0.00459834 0.0135538 0.00414663 0.00719546 0.016719 0.0040017 
0.00367109 0.0199972 0.00399894 0.0185043 0.0104799 0.00400187 0.0171862 0.0142597 0.00399975 
0.018115 0.0192971 0.00400354 0.0145234 0.0173347 0.00399816 0.0111344 0.0146136 0.00401036 
0.0108697 0.01896 0.00400544 0.0140651 0.0118571 0.00469489 0.0283538 0.0182451 0.00400103 
0.0222623 0.0119422 0.00399903 0.0209147 0.0157068 0.00399944 0.0243784 0.0177093 0.00409905 
0.0270115 0.0136634 0.00455883 0.031584 0.0111746 0.00399972 0.0362262 0.0175258 0.0039992 
0.0349536 0.0137314 0.00399939 0.0388749 0.0145296 0.00399814 0.0315112 0.0157689 0.00399954 
0.0327833 0.0195603 0.00400047 0.0398731 0.0106556 0.00403501 0.0428165 0.0138403 0.00399889 
[...]
POINT_DATA 5999
FIELD FieldData 7
id 1 5999 int
544 514 482 144 333 828 856 1092 1037 
589 203 307 1045 120 924 520 97 862 
379 135 52 145 107 228 53 263 426 
158 1095 1008 408 336 706 476 501 364 
230 992 41 404 246 608 245 247 46 
760 397 690 1316 966 557 274 440 115 
434 378 816 623 1019 874 63 946 294 
669 724 11 502 1015 704 546 174 424 
365 469 504 952 684 776 114 276 149 
8 1042 614 310 876 112 516 401 350 
210 509 861 136 348 57 659 349 1107 
437 787 344 650 360 281 131 550 664 
374 345 84 311 487 296 429 99 42 
175 113 205 1126 616 168 293 66 396 
1144 317 1494 875 39 117 630 848 1077 
256 528 231 461 1035 962 86 142 423 
372 1214 1262 853 686 1503 417 802 163 
20 783 126 1096 906 354 1269 731 447 
485 1071 612 221 821 58 584 441 1105 
931 903 342 1460 1481 627 489 1486 427 
1027 305 967 1142 900 322 784 498 410 
73 393 935 421 1032 48 108 458 128 
418 241 914 134 604 1014 105 292 12 
558 224 766 813 755 857 463 16 5 
971 1128 1254 998 352 77 229 594 78 
563 206 1277 346 334 170 763 886 273 
1106 193 375 560 384 734 517 579 81 
1478 286 432 3 712 473 320 159 380 
88 155 1073 313 341 182 847 745 1066 
586 214 657 387 915 1024 1072 535 165 
592 394 298 836 244 436 868 287 691 
519 260 631 640 191 996 721 64 79 
671 98 225 80 910 1040 356 337 266 
576 75 944 524 522 103 347 1124 361 
316 197 212 1016 954 21 288 104 1097 
736 1220 146 660 556 425 880 91 715 
839 521 160 121 290 76 152 628 332 
406 28 569 529 478 1611 929 1103 177 
235 312 748 226 428 1368 227 116 928 
1899 705 1084 220 304 851 513 96 255 
629 1134 409 118 133 1484 181 259 299 
642 15 140 6 1117 636 45 213 289 
173 769 916 327 129 1025 475 899 141 
497 111 701 395 530 217 1489 268 215 
477 124 474 532 162 780 909 414 27 
161 454 625 218 866 40 1461 328 882 
1 2618 250 877 455 122 18 1119 885 
1323 67 995 1765 864 178 901 495 430 
907 1350 531 19 1213 598 1044 505 1171 
200 100 680 1270 1098 390 282 1477 997 
1392 969 450 551 271 153 407 1328 1575 
1164 1828 1620 647 1995 1861 566 795 1299 
1326 2364 1079 257 242 209 464 515 194 
1286 10 981 1650 1289 452 2165 1834 1589 
1846 65 1774 1882 1602 773 138 185 400 
83 596 233 1446 1232 665 892 772 2065 
883 1498 1999 1878 1411 777 567 109 338 
1033 391 1632 1067 696 1580 707 1471 1677 
852 1688 1176 605 1792 47 1358 968 1387 
1284 1434 1608 449 147 1850 1543 1365 1421 
154 340 800 1485 512 285 675 764 1280 
580 443 750 1188 323 1013 889 2027 411 
1187 662 1341 119 33 94 1005 713 254 
1162 183 488 198 548 574 493 1416 1017 
1785 279 1275 302 402 1476 1506 49 2300 
55 1043 953 1639 1463 1836 2042 744 2067 
1026 2781 2347 199 1166 1418 1640 1028 711 
818 1331 1242 1023 1605 1059 905 2292 1843 
1734 1768 371 633 1676 1285 1179 1754 534 
2285 1789 1855 1159 1283 1210 2092 1883 1944 
758 918 844 641 102 2109 937 392 2221 
1697 943 1217 1862 1074 1609 1274 938 1550 
1170 1691 2345 54 1036 1258 858 1412 248 
2136 442 1330 1191 1491 785 1468 69 872 
2296 1182 267 382 90 779 22 1114 689 
643 617 652 471 518 902 1047 1652 1962 
1224 413 1057 249 921 1327 1678 2328 1178 
1829 223 803 703 525 741 639 824 1113 
578 1389 1064 1398 961 1265 319 1592 2228 
1680 68 125 243 533 1563 1325 854 1407 
977 963 1683 1345 2129 1844 655 1561 1354 
106 1955 674 1623 668 697 1208 1722 1055 
7 1448 9 1672 832 2047 1749 1687 1594 
2209 2113 815 190 201 951 964 808 747 
990 403 986 179 1647 1525 888 1597 1201 
1555 2490 1338 980 38 718 1152 1482 994 
1404 1174 2128 1012 1684 1644 1572 1240 1753 
1701 1076 1083 353 1185 622 833 1177 1497 
1710 726 1377 270 1406 1960 1913 1852 1628 
1413 1183 1288 291 819 859 635 1508 1931 
240 1383 987 1369 2312 1199 1223 1256 611 
1552 1308 806 788 523 123 1775 43 927 
679 658 1319 1132 834 1243 2278 1767 1493 
1347 1417 1811 314 739 590 1180 754 1276 
252 805 1355 692 506 139 1372 749 1222 
1324 1948 653 985 2205 1584 1123 399 562 
1212 1961 898 1118 222 1679 25 1385 1329 
1860 1250 72 1537 1359 1772 1333 92 1233 
1830 826 202 767 613 881 1196 941 318 
1500 978 2014 2194 884 1443 1109 496 369 
619 1231 1618 1235 1310 1429 2307 1548 694 
1472 2299 1317 581 1101 545 1130 727 1133 
278 1295 508 376 1622 1099 1822 1587 1081 
1536 1374 351 661 445 500 543 1586 1509 
1140 831 869 575 2104 1003 1839 491 1356 
1263 1091 2021 1479 1340 710 1088 695 1569 
830 1728 1876 1428 1366 1030 1964 1125 479 
1529 483 2038 1425 1809 1049 1692 855 537 
1202 1630 1674 1281 1444 1845 1181 893 1967 
812 1279 1492 714 1161 896 389 1120 1100 
1145 1060 1886 1796 1982 1831 2346 1399 1702 
1925 959 1332 1921 933 1426 842 137 751 
1914 1945 1041 1517 1577 1935 1137 1391 367 
1151 796 693 870 1557 1011 894 1006 879 
2043 1624 615 1516 673 781 1009 756 1334 
24 867 1228 511 1038 873 1221 1353 835 
1122 1719 2200 1002 1351 775 610 890 654 
1111 1744 982 983 1225 110 1842 789 585 
1357 23 330 607 499 702 920 1567 1131 
1522 2362 794 1928 1362 1158 2001 2139 1804 
1435 1252 1496 462 677 1512 667 682 29 
1871 2018 843 1907 947 237 743 1455 1615 
1975 1821 1361 845 526 840 1300 280 300 
1395 355 1226 878 942 1480 728 838 717 
1260 1720 1787 1518 1342 1541 370 1168 974 
1238 792 309 587 1148 1320 570 381 1305 
606 761 1895 1750 1593 127 297 719 678 
362 189 1054 188 1089 431 148 565 1707 
555 1381 814 1046 1129 171 934 956 975 
527 730 368 1487 1010 1139 723 993 1445 
253 31 1306 1031 377 564 984 1778 503 
1400 1112 1977 1812 187 1291 1197 1080 1297 
1149 1450 1673 1301 1104 1613 295 101 1439 
919 1576 1294 922 632 2248 232 817 1370 
2237 366 2319 2176 716 265 1523 1018 239 
1090 742 167 700 1078 1052 2279 2242 1553 
1312 1499 1675 2260 1910 303 827 588 32 
419 778 1344 1884 1255 1936 1826 1714 1556 
1870 2398 1337 2034 1997 988 331 572 1193 
70 1086 1335 1490 1430 1394 737 2114 1972 
1879 733 459 1462 1367 301 36 180 1237 
1020 746 1153 453 676 911 420 2452 1540 
1546 1721 1154 1664 568 541 216 326 1150 
1085 930 1311 484 979 315 164 87 809 
822 1535 1743 1402 932 553 283 646 955 
130 186 648 958 609 1021 1976 1682 192 
940 708 2115 2148 1469 637 480 448 238 
626 765 1069 1321 561 554 405 74 150 
1115 887 1236 358 1230 1583 50 991 1271 
1384 1207 481 1056 656 51 1110 2 573 
849 688 13 740 60 1566 1532 1135 620 
1984 1247 1029 1379 412 600 923 891 1022 
1343 1604 1459 841 1560 435 2010 2446 2225 
2318 2750 949 93 472 357 771 1346 559 
439 925 1349 790 1617 1449 1726 1257 71 
1048 1373 1551 1760 926 1745 258 1442 62 
1004 603 1819 1001 1897 644 2406 325 774 
1102 470 1248 791 683 957 1246 793 618 
1309 1156 284 1625 681 1510 1669 2203 599 
386 272 251 277 35 725 1436 373 685 
846 698 1859 416 2158 456 2090 960 638 
709 1227 1670 738 820 547 583 1695 1582 
752 1424 2035 1467 2219 1565 799 976 329 
571 95 1205 850 34 85 804 1273 363 
1163 1423 1261 17 2198 1267 1655 151 1959 
582 1053 1388 1136 306 61 383 1165 1296 
1875 169 2460 1873 468 1867 1116 2629 388 
1725 339 275 798 14 1287 196 1534 2055 
624 1172 2764 308 1755 2030 1923 1703 204 
89 1298 1641 1571 2007 1160 1868 2049 1475 
1410 2051 1303 4 2023 1795 2284 2127 264 
973 166 1068 811 1195 591 649 1000 538 
2146 1167 486 184 261 1631 1514 917 1610 
30 829 321 324 438 1504 666 1108 1542 
759 490 645 1651 1591 577 1724 176 1627 
651 1645 1453 507 433 965 195 143 415 
59 157 1249 801 466 1336 359 1713 1579 
989 1752 786 1307 1764 234 999 1173 1147 
593 1266 908 1530 207 904 132 552 1290 
510 729 269 56 762 1495 156 670 1239 
1364 422 621 451 1209 542 1816 1390 1980 
2384 2081 1922 1657 343 446 1189 768 1570 
1143 735 1790 2690 1717 2680 2122 2843 2554 
913 602 3284 1245 2196 2046 2641 2257 2100 
3086 3465 2999 2528 26 1386 601 2289 1638 
1259 1598 3160 2845 3808 3155 3564 2254 2633 
1906 2720 2686 1433 1278 2349 2508 797 1957 
2073 1194 1869 699 2195 782 2303 2247 2847 
1581 2102 2250 2963 2512 2341 492 2977 2621 
1547 2464 2275 1856 3348 2245 1603 2987 3013 
2421 1783 2417 1661 2208 3098 2862 3529 1649 
1690 1705 219 2157 2527 2526 2121 2612 2106 
1681 1590 2084 1626 2840 2098 3413 2433 2968 
3636 2958 1718 2031 1175 457 1420 1488 2003 
2825 1146 2383 2351 1800 2959 1414 2833 2975 
2761 1614 1519 1533 2455 2472 2187 2684 2624 
3174 2418 3271 2378 2448 1169 1251 1981 2295 
3008 2377 2075 2355 2932 2517 2606 3464 2545 
3215 3734 2871 2332 3187 3650 1756 2735 1186 
687 2416 1952 2044 1937 465 2611 2560 2689 
2538 2675 1802 2443 2806 1865 1058 1949 1733 
2143 1564 1771 2391 1382 2646 2314 2493 2601 
1991 2041 1458 2135 3193 2483 1538 2145 1633 
1470 1746 2185 1779 2869 2008 2746 2613 3094 
3425 3411 3391 3851 2150 1943 1696 1437 2009 
2427 2305 2812 2291 2767 1619 3027 2396 3297 
2276 3303 2516 2191 1908 970 1654 2470 3082 
2510 2532 2661 1983 1376 1727 2486 2368 2183 
1456 1919 1483 1953 1686 1824 2511 2015 1978 
2468 2522 2765 2111 2953 3079 2048 1866 2402 
3249 2161 1659 540 1780 1699 2408 1693 2562 
1989 2964 1716 3175 2071 2338 2423 2515 2415 
2280 3015 2053 1403 2013 1954 37 2173 2329 
2181 2298 3024 2943 3124 1737 2105 2450 1817 
1711 2025 3063 2776 1093 2271 1378 2429 2859 
2639 2610 2743 1968 1184 1858 2004 2667 1607 
2061 2886 1065 1887 1773 2491 1700 2385 2359 
2576 3252 2389 2066 2557 2779 2430 2226 2057 
2177 2142 722 2282 3156 2151 2816 2363 2708 
3375 2387 3247 2668 1562 2304 2714 1662 1794 
2794 3173 2399 2103 2457 2674 3072 2728 2093 
1595 1814 1881 807 1408 1253 2190 1988 2916 
2182 2944 2870 3040 1636 1061 1203 211 1070 
1966 939 1671 2050 1668 2600 1264 1840 2804 
2333 2120 1405 1979 1272 2091 1141 1763 2594 
2520 2666 2549 2671 2409 3158 2846 2687 2432 
3211 3690 2534 2519 2277 2301 2652 1087 2317 
2179 2440 2745 2420 1965 2005 1987 1958 1685 
1642 2426 1663 1219 1198 2709 2370 2322 2361 
1531 1293 1905 2565 1863 1658 2116 2579 2083 
2202 1397 1893 2366 1730 2665 1924 1539 1805 
2935 3339 1896 2939 2348 1505 1215 1835 1759 
1776 2774 2163 1969 2141 2688 2773 3258 2206 
2373 2082 2482 3029 1890 3250 2787 1848 863 
1318 1268 2548 1902 2796 1793 2712 1723 2861 
2875 1807 3455 2251 2772 3039 2444 1916 1127 
1643 2006 1363 1396 1917 1993 1452 1736 1200 
1815 1994 1877 2989 2678 2407 1315 1380 1513 
2478 1155 1507 2207 2577 2172 2392 1704 1568 
2521 1558 2786 1051 2950 2297 1588 1888 1454 
1216 1927 2112 2531 1637 2130 2326 2595 2573 
2737 2820 3012 2676 3214 2863 2323 1634 865 
1838 1206 1694 2449 2607 2215 2357 2603 1786 
2978 1545 3003 2059 3189 2405 2204 1348 2159 
770 2240 1094 2125 1447 2256 1833 1920 2118 
2193 2192 2885 1573 2210 2395 1629 753 2086 
1832 2584 1660 1689 1732 1941 2699 1900 2798 
2220 3257 1901 536 172 1803 1813 2466 1653 
2422 2770 2940 2814 2451 2036 1616 2290 3499 
1735 1946 3149 2488 3506 3278 1940 2037 860 
2052 2232 2852 1769 1440 2453 2024 2537 1352 
1502 2441 1885 1762 2068 1990 2473 1431 2827 
1938 2677 3246 2572 3121 2899 2169 2379 2258 
2154 1992 1808 871 2762 2026 2079 2077 2439 
2424 2752 2222 2647 2070 2504 2325 2716 2425 
2546 1600 2140 945 1909 1729 1825 2356 1739 
1585 2564 2849 2632 3574 2476 3112 2335 2589 
2458 1599 1292 2830 2094 2630 2132 2217 2657 
2969 2164 2844 3071 3179 3308 1578 1521 1466 
1229 1970 1851 1432 2124 2095 2500 1646 2649 
1039 1820 2887 2404 2865 1930 2724 2854 549 
1501 1304 1360 1648 1549 2175 2636 2503 1798 
1956 2442 2218 2725 2625 3196 2249 2382 3485 
1063 2264 2074 2400 1244 1911 1515 1933 2459 
1738 1621 2638 1915 2682 2316 3054 2802 3273 
757 2072 1528 1761 1810 1797 2994 2253 2269 
2651 1524 2431 1874 2445 2462 2017 2934 2985 
2615 3006 3390 1007 2839 2414 2413 2529 1526 
1656 2799 2701 3053 1706 2342 2592 1409 2587 
3050 2789 3700 2890 2471 3213 1419 1998 2123 
2367 2386 2178 3047 2902 2352 2923 2214 2274 
1731 2480 2436 1947 2273 672 1339 1574 2012 
1218 2133 2238 1740 1465 2759 1204 2199 1892 
2543 2244 82 1314 1766 2108 1898 950 2658 
1747 2167 2287 2447 1451 3105 1799 2213 2201 
2961 2016 2608 2162 2908 1302 1241 1415 2324 
2753 1894 1473 2888 2702 2336 2230 2029 2492 
3398 2137 3463 1918 2555 1082 2156 1190 1880 
1075 2340 2924 2456 2321 2751 1872 236 2288 
2627 3277 3304 2045 2730 3756 2375 810 539 
1511 1559 3251 1666 1457 2186 2076 1527 2281 
1709 2261 2982 2654 2153 2933 2655 1847 3432 
1963 1441 2768 1138 2020 2019 2700 2227 2962 
1849 2152 1827 2598 1192 1234 2212 1427 2898 
1635 1742 2495 2744 3138 3070 2734 2681 2605 
2223 2660 2134 1665 1748 2622 2265 2626 1818 
2331 2602 2376 2174 2578 3234 2315 3980 2097 
2715 2119 2283 2259 2160 2837 3031 1853 2900 
1939 3017 2810 2547 3232 2691 3307 3280 3712 
2841 2469 2525 3733 4228 2910 1971 948 2101 
2022 2155 1801 1596 3045 1864 2502 2397 2310 
2729 2561 3287 3274 2496 2184 3225 1934 2039 
1841 634 2559 3010 1912 2583 2063 2089 2078 
2644 2727 3301 3358 3153 3219 2272 444 1375 
2040 1712 1698 2711 2590 2580 2936 2494 2822 
2087 3202 2703 2390 2882 2949 2311 1393 2410 
2000 2054 1322 897 1601 2784 2360 2957 3371 
3270 3145 2748 3116 2591 3818 2475 972 1121 
494 460 2138 1757 1544 2188 2903 2381 2988 
2401 2080 3292 1784 2663 3212 2831 2380 2766 
2876 2243 2032 2064 2956 1474 1715 2394 262 
2670 2948 2170 3372 2706 2631 2171 2945 2107 
2582 3114 3747 1932 1612 2236 2434 1791 2234 
2513 2033 3400 2270 2942 2872 2593 3460 2563 
2294 3293 3081 2403 597 2211 1788 2197 2099 
2180 2411 2575 2586 2350 3201 3171 3266 3120 
2474 1401 1758 2813 1903 1926 2992 1034 3004 
2758 3442 1050 823 1313 1891 2497 2302 1770 
2229 2369 2131 2692 3561 3341 2255 3435 3752 
3444 2085 2110 1708 1422 1282 2246 825 2147 
2523 2235 2412 2778 2585 3406 2909 2144 3401 
2637 3268 2058 1554 2060 2662 2372 2126 2002 
2501 3172 3738 2266 1062 1951 2542 1973 1823 
2856 1837 2937 3176 2574 2530 3591 3783 2327 
1211 2569 3162 2970 3487 3089 2514 335 2056 
2868 2775 2518 3255 2771 2866 3580 3509 3002 
2911 2938 2069 3106 3493 2685 2879 2742 3804 
2836 3288 2713 3025 3142 3446 3289 3955 3713 
3722 3279 2718 3792 4166 3282 4464 1996 3703 
2507 4216 3056 3958 1777 2918 3331 3902 3540 
2588 2801 3235 2623 3845 3639 4200 2864 4060 
4497 4618 3972 3607 4124 3404 2851 3319 2262 
2096 3822 3471 3677 2891 2783 4129 3790 3077 
2634 3032 3440 3778 3276 3058 3718 4100 2435 
2308 3707 3362 3334 3844 3194 3723 3302 3405 
3632 3195 3985 4149 3727 3547 2506 3033 3682 
3256 3099 3315 2487 4139 4002 3472 2371 3361 
3433 3831 3913 3763 4326 4388 2955 4310 3207 
3060 3095 3378 2930 4248 3618 3761 3165 3766 
3152 3967 3379 4066 3735 4416 4072 4642 4270 
4918 2855 4051 2499 3894 2747 2467 2616 3768 
3350 4439 3623 4211 3800 3675 2967 3711 4415 
3083 2809 3311 2553 2669 2568 2533 2877 2339 
1950 2596 3537 3500 3048 3437 3578 3811 4086 
3708 3868 3883 3717 4456 4891 2645 2239 2330 
2556 3469 3125 2597 3313 2740 3067 3847 4279 
2973 3478 4170 3111 2189 3037 2929 4255 2834 
4389 4647 3833 4637 3450 2946 3715 4813 4371 
4169 3122 2795 3492 4480 2966 3325 3221 3920 
2904 3662 4000 3449 3523 3052 3512 3993 2498 
3286 3539 2505 3360 3516 3346 2438 2821 2628 
3186 4056 2721 2832 3676 3983 4007 4946 4775 
4521 4286 3553 2739 2824 2808 2673 3078 2088 
4797 2842 3522 3599 2907 3041 3188 3103 3898 
3527 3907 3794 2980 3721 2848 2717 3699 2659 
3572 3028 2365 4317 3412 3990 3226 3769 3751 
3353 3714 3806 3347 4198 5425 4161 4003 4202 
3828 2216 3365 2648 3199 2896 3534 3370 3096 
3298 4559 4068 2976 2777 2656 3238 3789 2867 
3774 3743 4444 3528 3451 2829 2805 2268 3799 
4089 3477 3615 3476 3826 3753 4065 3482 3409 
3556 3642 3754 3462 2231 2880 2858 3614 3345 
2983 3309 3000 3169 3260 3594 3415 3813 3317 
3518 3231 4403 4130 1781 3338 2581 3005 2477 
2168 3651 2696 3388 2354 3136 3931 3166 3634 
4504 3101 3468 3344 3242 1942 3180 2694 2693 
2838 2788 2984 2857 2927 3020 4259 3829 3624 
4019 3681 3773 1889 2736 2540 3772 3306 3679 
3143 3183 3848 3457 3402 3974 4134 3640 3987 
3672 3323 4742 3204 3208 2461 2895 3090 3418 
3616 3979 3244 3695 2698 3730 3259 4525 4291 
3253 4387 3951 4127 3924 2732 3542 2241 3508 
2954 1741 3590 3825 3504 2726 4232 4253 3897 
3705 4120 3861 3011 3849 4374 3167 4113 2769 
2757 3181 3557 2860 3392 3706 4545 3092 3377 
3474 3185 4281 2286 3227 2558 3655 3788 3445 
3368 1667 3611 3881 4075 2544 3568 3921 3571 
4699 4590 2664 4833 3620 3548 2883 2995 3001 
3100 3427 3692 4306 3649 4133 4046 4597 3150 
3892 1806 3140 3466 3157 3746 4154 3222 4103 
3422 3973 4084 3819 3596 2922 3890 2897 2915 
2894 3767 3563 2993 3236 3237 3399 3926 3191 
4099 3856 4031 3652 4184 3453 2741 2704 2263 
2484 2683 3748 2819 3952 3927 4125 2823 3108 
4688 2536 2309 2481 3326 3327 2541 2567 3941 
3545 2998 2617 2914 3229 3638 2707 3685 3644 
4262 3598 1985 3129 3066 2986 2293 3163 3109 
3107 3428 3272 3030 3680 3424 3837 4506 4753 
3127 3586 3569 2614 3336 3241 3097 3948 3075 
2947 3925 3810 4237 4570 4295 3550 3786 2571 
3104 2343 2749 2539 2835 3333 3498 3393 4454 
3408 3356 4112 3484 3622 3744 4105 3592 2881 
3363 3316 2850 3858 2780 3935 3762 3431 4335 
3588 3891 3200 2951 3633 3757 4465 3877 3981 
4233 3324 4069 4207 4394 5179 5247 4617 3387 
3936 3694 3023 3864 4402 3061 2941 2344 2653 
2912 3530 3007 2928 3230 3558 3243 3283 3044 
2306 2722 3665 4128 4156 3210 3855 2828 3470 
2733 3016 3084 2358 2756 3663 4217 2760 3946 
4114 3332 3220 2738 2393 2465 2570 2552 2642 
2991 2971 3161 2599 3796 2965 3022 3197 2807 
3205 4024 3609 3502 3443 3867 2313 3351 3009 
2337 2990 1857 2320 3617 2815 2920 3501 4020 
3613 3619 3128 4468 3520 3689 2620 2524 3602 
3668 3135 2817 2926 2893 2334 4083 3601 3544 
3130 3198 4176 2974 3184 2931 3439 2919 2797 
3486 2972 3305 3164 4365 3673 3117 4165 4315 
3018 4531 4899 3608 3687 3776 3380 4235 3312 
3666 3582 3795 3146 3088 4053 4573 2979 3872 
2011 2763 3505 3842 2906 3177 3560 3366 2604 
2374 3085 2785 3429 3014 4349 3874 2643 3552 
4081 3686 4137 4203 4062 3850 3750 3479 4369 
3513 3489 3093 3448 3480 4309 4077 3300 3775 
3702 3239 2960 3359 4479 3110 3575 3447 4614 
3996 4347 3373 3337 2803 2697 3087 4018 3827 
3945 3950 4193 3991 3816 3395 3749 3805 4472 
4311 4811 3631 3610 4338 4116 4097 3719 3779 
3159 3600 4736 4102 2535 3403 3123 3871 3593 
3835 3419 2792 3777 2428 3653 3643 2826 3720 
3245 3383 3541 3637 4364 1854 2723 2609 3091 
2884 1974 3295 3491 2463 3216 4187 2997 4163 
3233 3043 3343 3494 2233 2925 3329 3314 1904 
3299 3975 2889 4425 3262 3661 3019 4486 4201 
3488 4256 4412 3852 2437 2679 3741 3074 3760 
3394 2353 3832 3533 4288 3420 4320 3514 3656 
3218 4204 2705 3151 3182 2224 3904 2754 3441 
3178 3785 3900 3584 2853 3660 4058 4215 3554 
3223 3042 3133 3999 4146 3261 3915 3170 2672 
3546 2731 3318 2800 3737 3645 4174 3732 4250 
4219 3731 3965 3846 3865 4258 4591 3426 4272 
3190 2635 3803 3224 3296 4108 3627 3968 3930 
3793 3629 3716 4152 3876 3051 2981 4598 4047 
3693 4999 5224 4341 2619 2062 3893 3559 2952 
2917 3745 3065 3036 3626 3407 2550 3878 3962 
4157 4551 3436 3330 3369 3267 3836 4017 2551 
3049 3354 4041 3969 3597 3917 3697 3291 3782 
3064 2921 4073 4131 2650 2485 2874 3929 4078 
2719 3688 3725 4234 3367 3248 3736 3269 4589 
3901 3240 3531 4107 4055 3916 4192 3021 3587 
3340 4377 3678 4513 2892 3397 2388 3119 3704 
3290 3352 3519 3787 3389 3141 3217 3515 2901 
3382 3131 3780 3461 3068 3603 3671 3034 3507 
3495 2913 3154 4252 3132 3691 3421 4391 3802 
3384 3658 4273 3937 3939 3059 2791 3357 3069 
3562 3521 3321 4505 3798 3535 4336 4044 4274 
3566 4943 3869 4727 3073 3895 3263 4035 3565 
4194 3342 3517 3254 4578 3430 4300 3322 4023 
4135 4926 5232 3684 3646 2489 3683 4096 3192 
3355 4118 2905 4316 4212 4009 4801 3635 4428 
4224 2811 1520 2793 3467 3843 3823 4459 3934 
4087 3503 2878 3203 4305 4292 3664 3942 3765 
3396 2479 3884 3115 3080 3026 2028 4346 4091 
3076 3709 4043 3543 4447 3604 3667 3386 3038 
4079 3454 3885 3285 3912 2695 3701 4275 4602 
5152 3320 3410 3759 3606 4500 4426 3583 4314 
4223 3511 3994 5115 4902 3538 3525 3641 3581 
3573 3310 3964 4264 4119 4657 4764 3551 3630 
3046 4455 3807 5330 4526 5334 3657 4302 4385 
5220 4612 4039 3834 3118 3335 4788 5526 4082 
4004 5475 4738 3961 4734 5519 4267 5421 4766 
6043 4744 4628 3919 4147 5177 5996 4367 3862 
3758 4098 4168 4709 4457 4433 4510 4579 5194 
4592 5223 5237 4151 3654 3148 3532 5727 4636 
4392 4422 4584 5934 4276 5163 4751 5122 3977 
3670 3764 3147 4257 4360 3933 4358 4894 3567 
5202 4782 4606 5409 3349 4390 4318 4398 5394 
5147 5584 5772 4818 5312 4285 4321 4954 5159 