# vtk DataFile Version 4.2
Generated by LIGGGHTS
ASCII
DATASET POLYDATA
POINTS 6000 float
-0.0105422 -0.0176515 0.0123608 -0.0158652 -0.0179354 0.0123611 -0.0142417 -0.0191093 0.0123241 
-0.0125942 -0.0202724 0.0122948 -0.0140329 -0.0171091 0.0124096 -0.00923995 -0.0192095 0.012211 
-0.0124212 -0.0183068 0.0126449 -0.0106399 -0.0207177 0.0123632 -0.0148425 -0.017937 0.0140839 
-0.010691 -0.0191637 0.013725 -0.00912439 -0.0220404 0.0125756 -0.00894274 -0.0203232 0.013894 
-0.00623627 -0.0192858 0.0122514 -0.00427925 -0.0178007 0.0122857 -0.00523814 -0.0233109 0.0123489 
-0.00430475 -0.0198276 0.0122474 -0.00590233 -0.0212966 0.0122318 -0.00256151 -0.018836 0.0122391 
-0.00600416 -0.0167888 0.0123239 -0.00100596 -0.0201009 0.0122686 -0.000933939 -0.0238817 0.0122132 
-0.00777862 -0.0205776 0.012247 -0.00768208 -0.0179015 0.0123724 -0.00723618 -0.0227749 0.0124503 
-0.00392025 -0.0217906 0.0122734 -0.00307143 -0.0236351 0.0124067 -0.00190852 -0.02201 0.0124822 
-0.00250343 -0.0172754 0.0135641 -0.00289411 -0.0205422 0.0134746 -0.00716049 -0.0194204 0.0140683 
-0.00560743 -0.0181152 0.0137691 -0.00526914 -0.020077 0.0139821 -0.0037265 -0.0188009 0.0140017 
-0.00516319 -0.022076 0.0139359 -0.00164348 -0.019034 0.0140104 -0.00101419 -0.0209296 0.0141075 
-0.000703343 -0.0180977 0.0122681 0.00119411 -0.0238145 0.0121959 0.00321287 -0.023709 0.0121746 
0.00554169 -0.0226883 0.0122288 0.00100141 -0.0204062 0.0122579 0.00285401 -0.0196428 0.0122501 
0.00128033 -0.0183821 0.0122235 0.00314191 -0.017645 0.0121872 0.00395277 -0.0213487 0.0123562 
0.0058529 -0.0207121 0.0122026 0.0070248 -0.019046 0.0122613 8.95885e-05 -0.0221754 0.0125024 
0.0048035 -0.019008 0.0122939 0.00209013 -0.0220565 0.0125713 1.96509e-05 -0.0173095 0.0139639 
0.000147818 -0.0238643 0.0139228 0.000329855 -0.0192843 0.0137966 0.00203867 -0.0203075 0.0139766 
0.00445054 -0.0235102 0.0137437 0.00621868 -0.0179024 0.0140166 0.00419838 -0.0176244 0.013897 
0.00217905 -0.0237604 0.0140618 0.0067999 -0.0228605 0.0137766 0.00514755 -0.0216232 0.013936 
0.00703769 -0.0208439 0.0138226 0.00508284 -0.0170056 0.0121686 0.00797058 -0.0225194 0.0121768 
0.00807053 -0.0188747 0.0139806 0.00920837 -0.0186737 0.0121776 0.0104403 -0.0212947 0.0121739 
0.0111612 -0.0193178 0.0122085 0.0155752 -0.0171282 0.0121551 0.0114891 -0.0171808 0.01226 
0.0131806 -0.0200014 0.0120767 0.00846543 -0.0205824 0.0124225 0.0133493 -0.0179684 0.0122546 
0.00984675 -0.0172036 0.0134099 0.0093385 -0.0220424 0.013676 0.0118541 -0.0207039 0.0134732 
0.010146 -0.0197262 0.0139097 0.0116902 -0.0183778 0.0139072 0.0150476 -0.018651 0.0133541 
-0.0172765 -0.0164477 0.0123328 -0.0189871 -0.0145981 0.0123101 -0.0184235 -0.00925324 0.0123577 
-0.0203941 -0.00888915 0.0123146 -0.0223935 -0.00847591 0.0123339 -0.0200684 -0.0129015 0.0123588 
-0.0180377 -0.012808 0.0123136 -0.0191241 -0.0111284 0.0122993 -0.0211193 -0.0111668 0.0124813 
-0.0182003 -0.0154726 0.0139335 -0.0198315 -0.0100294 0.0138607 -0.0175756 -0.0101855 0.0139569 
-0.0218 -0.00966671 0.0138285 -0.0170135 -0.0144917 0.012657 -0.0169364 -0.0111286 0.0123022 
-0.0121868 -0.0163213 0.0123609 -0.0154303 -0.0156674 0.0123275 -0.015962 -0.00937466 0.0123808 
-0.0148763 -0.0110541 0.012338 -0.0159214 -0.0128558 0.0122845 -0.0135887 -0.0148808 0.0123278 
-0.0103052 -0.0156471 0.0123033 -0.011695 -0.0142068 0.0123351 -0.0117262 -0.00922941 0.0123097 
-0.0105748 -0.0108639 0.0123299 -0.0139244 -0.0128117 0.012387 -0.0101102 -0.0128117 0.0123014 
-0.00910829 -0.0095034 0.0123643 -0.00880084 -0.0143232 0.0123424 -0.0144406 -0.0159384 0.0140547 
-0.0120134 -0.012242 0.0125431 -0.0130433 -0.0105786 0.0129856 -0.0149539 -0.0140719 0.0135496 
-0.0104864 -0.00956548 0.0138538 -0.0158157 -0.01169 0.0139942 -0.00969953 -0.0147702 0.0141241 
-0.0138166 -0.00865506 0.0140608 -0.00883006 -0.00846488 0.0140664 -0.00868267 -0.0104629 0.0140743 
-0.008644 -0.0128634 0.0137123 -0.00855742 -0.0162555 0.0130971 -0.00502557 -0.0149488 0.0122979 
-0.00134404 -0.0162021 0.0122794 -0.0010162 -0.0142261 0.0122627 -0.00826415 -0.011393 0.0123533 
-0.00333618 -0.0160195 0.0122467 -0.00399928 -0.0110561 0.0123144 -0.00720038 -0.0131185 0.0123392 
-0.00610149 -0.0114287 0.0123168 -0.00383309 -0.00898125 0.0122923 -0.00215052 -0.0100676 0.0122865 
-0.00188134 -0.0120492 0.0122719 -0.00480537 -0.0129514 0.012347 -0.00296388 -0.0137315 0.0122946 
-0.00712827 -0.00972752 0.0125573 -0.00698019 -0.0150758 0.012706 -0.000724006 -0.00862085 0.0123943 
-0.00529857 -0.00991254 0.0133499 -0.0032435 -0.012236 0.013748 -0.00206839 -0.00885236 0.0138751 
-0.00223291 -0.0150315 0.0136358 -0.00517727 -0.0118195 0.0140512 -0.00578047 -0.0139129 0.0138343 
-0.00159582 -0.0110623 0.0140262 -0.00138826 -0.0130797 0.0139177 -0.000140901 -0.0105441 0.0124181 
-0.00017641 -0.0152656 0.0137577 0.00582232 -0.0085465 0.0122218 6.99549e-05 -0.0125309 0.0123157 
0.000642605 -0.0164866 0.0122356 0.00258915 -0.0157209 0.0122519 0.00205571 -0.012806 0.0122662 
0.00365035 -0.0140134 0.0122457 0.00391897 -0.0109901 0.0123008 0.00597278 -0.0108474 0.0122275 
0.0055977 -0.0145478 0.0122401 0.00367028 -0.00896142 0.0125372 0.0070453 -0.0125801 0.0122244 
0.00760877 -0.014585 0.0121883 0.00801381 -0.0107639 0.0122149 0.00127695 -0.00887978 0.0122934 
0.00187359 -0.0108104 0.0123138 0.000984645 -0.0145108 0.0123134 0.00504309 -0.0126147 0.0126277 
0.00423616 -0.0156313 0.0133826 0.00717476 -0.00940988 0.0134383 0.00661177 -0.016071 0.0131415 
0.00330688 -0.0123288 0.0137525 0.00162894 -0.0161168 0.013963 0.00522676 -0.00976183 0.0137566 
0.0061371 -0.0136562 0.0139645 0.00137534 -0.00988515 0.0140244 0.00236093 -0.0142538 0.0138288 
0.00700203 -0.0114698 0.0139219 0.00808701 -0.0132152 0.0138185 0.00827848 -0.0167313 0.0122514 
0.0139013 -0.016029 0.0121696 0.0121328 -0.0150506 0.0122268 0.0142322 -0.0103399 0.0121921 
0.0110616 -0.00885421 0.0122197 0.0150225 -0.00849833 0.012195 0.0102473 -0.0107637 0.0122626 
0.0128893 -0.0119018 0.012298 0.015639 -0.0150416 0.012219 0.0101904 -0.0155976 0.0122267 
0.00904458 -0.0125003 0.0122077 0.0107466 -0.0135784 0.0122869 0.013742 -0.0138526 0.0122955 
0.0160203 -0.0129249 0.0121057 0.00913941 -0.00904205 0.0127557 0.013055 -0.00878018 0.0127781 
0.0156851 -0.00987981 0.0135067 0.0150431 -0.0160758 0.0138392 0.0146709 -0.0119732 0.0132689 
0.0119738 -0.0104425 0.0133363 0.00883498 -0.0152104 0.0137052 0.0106862 -0.0121322 0.0136706 
0.0133366 -0.0150313 0.0138853 0.00902499 -0.0106838 0.0139852 0.0122784 -0.0133624 0.0135734 
0.0114956 -0.0158716 0.0139549 0.0150916 -0.013919 0.0137878 0.0168255 -0.0110669 0.0121997 
0.0166992 -0.0121067 0.0139036 0.0201678 -0.0128852 0.0123122 0.0186963 -0.0148717 0.0122288 
0.0181432 -0.0128403 0.0121888 0.0211308 -0.0111071 0.0123642 0.0221471 -0.00900502 0.0121637 
0.0190763 -0.0108348 0.0123338 0.0177427 -0.00927721 0.0122043 0.020133 -0.0090613 0.0123887 
0.0174057 -0.0163511 0.0126594 0.0171255 -0.0141341 0.013365 0.0176076 -0.0103201 0.0139262 
0.0216633 -0.0101588 0.0140557 0.0194039 -0.0139474 0.0138656 0.0187681 -0.011959 0.0139869 
0.0184953 -0.00848731 0.0139203 -0.0193284 -0.00591622 0.0123039 -0.0217054 -0.00281703 0.0123568 
-0.0236205 -0.00354309 0.0123894 -0.02298 -0.00655583 0.0123778 -0.0210209 -0.00698569 0.012343 
-0.0183523 -0.00417073 0.0122598 -0.0193471 -0.00243512 0.0122895 -0.0207832 -0.00104353 0.0122948 
-0.0178035 -0.00116165 0.0124019 -0.022788 -0.00104416 0.0123075 -0.0220326 -0.00479281 0.0123756 
-0.0170208 -0.00566328 0.0123089 -0.020472 -0.00780955 0.0140952 -0.0180022 -0.00734306 0.0127722 
-0.0202339 -0.00411651 0.0129441 -0.0238452 -0.0019902 0.0137312 -0.0174847 -0.00286602 0.013509 
-0.0188507 -0.00498874 0.0141106 -0.0203803 -0.00241987 0.0140182 -0.0206756 -0.00580654 0.0140041 
-0.0199984 -0.000391597 0.0140611 -0.0167513 -0.0046443 0.0140579 -0.016664 -0.00817861 0.0140304 
-0.0101208 -0.00777803 0.0123411 -0.0140097 -0.00767388 0.0123176 -0.0159879 -0.00737553 0.0123279 
-0.0160525 -0.00212898 0.0123232 -0.0157601 -0.00410997 0.0123475 -0.0127716 -0.00141761 0.0123256 
-0.0141451 -0.00293381 0.0122713 -0.0121939 -0.00337762 0.0123101 -0.0107429 -0.00199752 0.0123265 
-0.00890662 -0.00282042 0.0123306 -0.0159412 -0.000113235 0.0123222 -0.0120545 -0.0072545 0.0123669 
-0.0106364 -0.00584233 0.0124509 -0.0125948 -0.00533117 0.0124571 -0.00920637 -0.000713964 0.0124453 
-0.0146182 -0.0057661 0.0123413 -0.00888459 -0.00488565 0.0123257 -0.0104327 -0.00387744 0.0131149 
-0.00899365 -0.00655697 0.0134541 -0.014562 -0.00132727 0.0133901 -0.0107864 -0.000566701 0.0138093 
-0.0165908 -0.0011454 0.0140875 -0.0135178 -0.00645364 0.0139624 -0.0155849 -0.00639883 0.0141123 
-0.00938257 -0.00195724 0.0141155 -0.0155706 -0.00302179 0.0140693 -0.0141925 -0.00445118 0.0138173 
-0.0118251 -0.00226915 0.0139901 -0.00591398 -0.00814903 0.0123537 -0.00791205 -0.00789686 0.0123642 
-0.00722774 -0.00601032 0.0123164 -0.0053837 -0.00519974 0.0123321 -0.00241705 -0.00755493 0.012332 
-0.00708295 -0.00401566 0.0123371 -0.00377261 -0.00400773 0.0123446 -0.00726 -0.0016827 0.0123626 
-0.00433247 -0.00692536 0.0123172 -0.00367357 -0.00193637 0.0123635 -0.00168461 -0.0022418 0.0122947 
-0.00542476 -0.000886447 0.0123639 -0.000841889 -0.00541353 0.0123026 -0.00464235 -0.00810715 0.0139117 
-0.00543297 -0.00288713 0.0123942 -0.00241595 -0.000399851 0.0126078 -0.00274959 -0.00565133 0.0128614 
-0.00822114 -0.00358549 0.0140489 -0.002228 -0.00368378 0.0135734 -0.00103872 -0.00691308 0.0136344 
-0.00440797 -0.00581494 0.0139789 -0.00614566 -0.00679025 0.0138067 -0.00473177 -0.00153104 0.0141306 
-0.00646368 -0.00253027 0.0140706 -0.000286992 -0.00360121 0.0129456 0.00161066 -0.00381592 0.0123465 
0.00446653 -0.00361492 0.0122958 0.00460137 -0.00653009 0.0123029 0.000484455 -0.00702593 0.0123161 
0.000245303 -0.00170307 0.0123287 0.00225268 -0.00191527 0.0122832 0.0059315 -0.00500446 0.0122912 
0.00717244 -0.00328273 0.0122567 0.00629958 -0.00147623 0.0122999 0.00265544 -0.00711453 0.0123077 
[...]
POINT_DATA 6000
FIELD FieldData 7
id 1 6000 int
1106 197 1574 1130 569 874 260 1169 1747 
888 727 84 534 441 1265 224 204 1300 
1017 186 49 708 508 1048 837 561 587 
1095 896 1167 285 393 2497 391 1473 1789 
195 1455 1655 222 108 631 179 1081 1737 
192 1242 944 533 556 158 789 889 412 
608 620 1202 68 37 591 714 227 297 
300 419 1540 117 605 13 955 986 230 
1255 305 216 717 256 876 1212 595 1034 
1400 908 1226 493 1662 628 40 603 232 
629 701 1793 941 588 840 816 1203 1278 
1714 1154 1089 549 372 142 102 961 271 
344 539 1890 380 1673 764 793 176 846 
713 562 12 1464 584 151 1053 741 383 
131 259 455 67 1132 663 456 632 772 
404 498 522 558 318 223 1549 61 497 
373 1219 1360 712 980 946 700 1429 581 
115 532 219 129 1658 1395 500 1070 56 
639 1103 123 550 904 1518 2093 777 81 
797 199 298 1136 239 1938 919 707 989 
3170 578 1367 2113 867 1092 273 1980 174 
3250 1908 1827 323 279 360 26 2960 2793 
2293 1038 1063 1313 1098 371 691 2669 784 
2852 105 966 833 1380 2142 71 1052 45 
1645 909 3853 1921 2931 8 1640 4536 5931 
2011 5773 1860 1569 599 1963 5020 4443 1307 
1107 2470 1435 647 514 814 552 650 565 
1651 716 1986 832 15 143 810 1615 501 
154 426 4001 21 392 954 2061 693 616 
1492 191 1535 511 1586 1502 333 301 1317 
399 551 479 451 1001 258 1332 385 611 
1040 607 829 825 1349 1031 1447 540 753 
211 615 469 265 988 362 692 132 762 
658 805 1205 351 1718 253 359 646 345 
495 30 274 447 856 315 4 638 357 
1105 774 681 433 1868 731 934 95 171 
1104 1764 594 636 215 516 604 1458 187 
2105 88 415 396 841 571 1207 728 1285 
478 270 921 1039 82 440 181 1131 423 
590 530 188 686 474 267 765 1460 711 
826 3 1125 1159 1696 51 208 623 938 
671 1886 5334 3467 4470 4880 4671 6014 6070 
1247 4497 2424 5775 3248 5287 5977 5774 2595 
5850 5068 3090 5486 6001 3295 5833 3083 189 
2215 2169 1530 3131 2720 5610 5740 4697 1072 
3349 5766 1495 3538 124 5011 3713 1561 4639 
542 1715 529 4248 308 2481 2154 1126 866 
1352 499 651 669 1468 504 3546 537 1356 
3524 737 2799 2358 1117 1689 340 3027 652 
196 264 1123 127 912 968 752 520 1477 
482 696 517 58 386 622 140 869 1116 
635 346 135 580 1149 226 773 674 1146 
582 110 448 1635 1822 1442 1286 1481 321 
942 311 450 263 783 439 513 1784 389 
1386 1801 25 424 1009 1445 446 266 566 
1005 1365 325 1181 5 1318 167 1301 2131 
918 809 464 996 802 914 1179 1014 5556 
4137 4484 3440 5599 5708 5616 6002 5139 951 
1879 3517 3492 5411 4356 5980 3345 5171 5261 
5757 2618 1249 4332 5825 2417 2708 4539 4101 
2923 3996 2920 3382 5704 168 4787 1333 2642 
3080 5360 1350 4303 4368 3494 5400 4422 3606 
3402 47 1630 1076 278 3918 52 544 666 
1670 1027 1867 960 1424 303 1848 979 1234 
254 1927 76 1378 2041 376 1478 2268 3447 
397 865 824 427 304 1617 939 492 2536 
221 74 233 2245 1931 343 184 485 1836 
363 317 830 2478 642 282 2596 421 1500 
1008 679 2643 198 240 228 505 1834 2080 
3762 5248 5928 2432 6003 5118 5692 4198 3594 
5684 5650 4541 6 4974 4176 3742 5348 5066 
5392 4117 4903 4519 5344 5185 4213 5959 5760 
3962 5721 5280 5786 5204 5491 2829 4032 5195 
689 5557 98 3924 995 3861 2458 3632 336 
4561 5381 3377 3463 3873 1011 3395 1133 3611 
1043 2682 3254 1579 1032 398 3949 3410 1965 
776 57 2164 425 1426 1006 1576 990 817 
94 1021 225 1652 309 378 69 2396 320 
1260 468 1047 2129 1075 1498 337 1057 1992 
2204 857 1421 1314 1457 2345 2457 2007 913 
2185 1078 1513 2411 370 2721 3638 1482 5443 
2680 3016 1863 2023 1953 1865 1829 884 630 
618 14 1797 547 1141 1155 407 1180 1704 
368 104 999 2160 803 100 1685 1246 2040 
981 217 83 785 477 466 1253 854 1174 
1643 656 790 1128 1143 1015 364 572 1592 
1988 1674 519 1690 1951 1243 148 905 2022 
1414 1844 2136 1766 800 10 1572 152 1523 
923 1025 1013 417 662 1145 1316 2250 2389 
1261 11 1355 1859 965 1684 1018 619 1022 
55 349 234 1416 287 719 957 443 1158 
687 525 1439 624 1504 73 367 1176 289 
428 1153 348 1914 17 2081 1119 1273 206 
296 458 1733 214 1605 2078 1633 1147 2123 
1369 2163 2423 585 976 2220 1201 2261 828 
1680 2328 2006 435 1152 1552 1486 553 314 
2184 1121 193 1215 1892 2233 1701 2234 332 
2653 1840 1291 2013 326 1543 1188 483 1555 
794 1553 637 46 172 722 3275 3168 33 
1231 1810 2616 438 4351 3104 1319 2997 2076 
4281 4502 1554 1102 4792 3149 1357 4375 4103 
4285 3774 1942 4121 2264 2935 2393 2977 723 
1310 1753 1235 1463 1329 1343 735 617 1940 
1750 2341 1371 1820 769 384 1026 1093 1339 
1449 1425 114 1751 330 509 2224 2188 1251 
1229 1030 1173 2175 2009 2455 2028 822 4896 
4169 4429 183 3800 682 210 685 598 901 
494 1084 1334 704 429 868 231 1224 750 
2010 242 992 460 775 1527 1288 1611 1362 
1280 1274 706 1233 1703 1452 72 1222 1679 
1091 2092 1707 563 250 1184 2159 782 510 
1336 576 2376 1612 1508 606 1175 453 463 
155 2203 284 2274 1194 760 925 2111 2075 
89 2850 1525 1991 146 1531 1295 2309 1041 
3785 1930 1239 5373 3224 36 1917 2605 3091 
2366 2765 1744 2814 1779 1577 781 850 353 
1004 570 347 237 275 1739 683 545 738 
2097 1309 1110 244 1060 1120 983 64 160 
949 1575 248 885 2 366 1266 1012 1462 
873 449 947 792 235 156 710 86 523 
655 891 369 241 276 1884 302 1510 1077 
680 18 1083 718 406 39 437 1932 2384 
557 1638 970 1571 133 975 974 1995 190 
1000 1664 927 2118 1515 1164 694 218 579 
2280 502 408 1035 653 422 1144 375 724 
1064 879 1087 207 1517 99 1716 1228 1045 
352 1428 1698 394 2083 664 1937 725 1363 
48 715 1562 1799 1557 1475 1869 1476 758 
1407 1223 559 1813 1538 2157 1964 779 1208 
1843 2329 1999 1499 864 734 66 1548 201 
1016 488 1901 2418 1157 1792 358 3187 1978 
3188 1248 177 1054 1263 268 327 1139 1603 
331 1096 1100 878 1723 1584 1390 1368 1904 
5048 1948 1772 1906 2238 1221 2020 596 910 
2192 1692 3073 2443 2711 3911 1436 3346 1241 
2413 1065 548 3150 2540 2620 334 3706 257 
3359 3262 3011 3592 125 2008 2882 1608 3126 
1197 953 1007 1725 2606 1374 2673 2141 1950 
307 1023 1968 1406 1928 1936 2166 3397 78 
2751 2399 2115 3536 1621 633 2588 2402 1947 
2400 1705 3765 2339 1489 926 130 2520 796 
2533 1284 2886 2253 1375 1585 4358 1593 2147 
161 5293 20 2658 87 1138 894 5508 1370 
1814 1422 4843 122 2171 541 3062 1342 1564 
5882 1037 640 2243 978 2674 3526 4160 1199 
1877 1804 137 3607 1491 5581 5946 1480 5926 
2834 2082 2742 2804 1213 2969 2102 2186 3324 
2395 5539 1619 5012 5384 5056 2462 3272 5690 
3763 778 1405 872 1609 1443 2194 1028 1127 
431 141 418 1388 695 871 395 688 1069 
295 162 627 32 1588 795 1809 1484 1982 
43 139 416 1994 1434 1828 859 1254 757 
4207 574 459 402 1283 322 2246 1682 1142 
356 1397 1620 182 2514 213 2647 1044 811 
1411 1878 382 1993 848 1738 163 858 1150 
641 2209 3302 2482 1850 956 526 678 721 
1671 97 166 808 973 834 673 465 521 
175 457 150 819 1151 7 763 690 515 
220 1108 1399 410 1275 1770 335 205 958 
1387 931 1024 173 312 16 1323 756 1331 
1913 481 165 994 852 932 1420 387 1787 
63 462 703 726 1080 93 272 1311 1293 
892 1111 118 1385 1193 649 180 1438 1348 
2177 350 23 2156 229 1166 489 1566 1036 
1376 261 518 339 1731 1372 895 286 85 
1437 2210 1148 2429 564 238 959 1441 92 
863 897 34 59 101 1118 613 634 860 
113 461 341 1186 1506 676 411 153 1074 
823 2045 1377 1539 90 1051 1085 1479 771 
1086 906 524 1189 1494 138 1851 471 567 
1786 62 720 409 1889 791 496 1519 788 
527 1695 355 698 1565 1417 1842 916 1354 
27 1881 1137 1450 70 185 1544 280 1474 
665 1595 476 405 1623 1029 2088 1379 1262 
964 1230 1512 998 245 935 1220 1654 491 
1537 855 281 473 42 812 1240 1211 1925 
1483 390 452 1720 3121 699 512 1019 746 
342 768 2601 1501 1 844 2282 1713 1259 
1520 54 1308 730 1748 1394 157 645 937 
729 560 787 1624 1090 475 1919 1818 1591 
902 1985 1601 1287 1451 251 365 1629 1996 
1757 900 1790 2087 577 1002 1257 610 593 
1580 987 269 414 434 767 246 1752 486 
675 1046 3234 120 546 1926 80 445 1191 
1101 531 1509 147 77 106 2219 2324 2197 
2752 1979 1172 870 1010 2038 1967 2138 1693 
985 736 893 1819 555 1756 1646 3943 1891 
288 554 1708 2206 984 2526 262 1987 759 
967 1296 1721 1470 3342 1812 1277 899 2785 
2634 1190 3190 3942 2047 818 5623 4473 3422 
5904 2549 4056 5793 3117 4388 454 5324 5891 
5281 5052 5353 5957 5567 5709 3997 5824 5464 
5018 4965 5805 4335 6064 5901 5930 5131 4055 
1823 5987 4421 5779 3730 5231 3792 5472 6017 
4909 5799 5141 6058 5073 5214 4674 5794 6031 
5788 4976 5229 5266 3176 4310 5554 5635 4679 
4728 4459 5538 5734 5576 5815 4651 5569 3258 
4807 5105 3648 5900 5737 5239 3152 4426 4036 
4628 144 614 2802 4073 5568 4191 5938 4430 
4720 4222 2104 2625 2167 2179 3838 5563 5047 
5430 5847 1454 5178 2847 2535 3642 5432 4408 
1957 5027 3894 5994 1187 3078 4848 5292 6038 
1923 761 3045 2240 3922 354 3193 5150 3822 
5196 4319 5728 5208 2551 5029 2569 3477 3892 
4534 4757 5154 119 749 2608 1945 134 799 
65 1217 1299 3652 1099 1647 751 3108 2532 
3191 4019 3259 743 849 200 2504 1290 543 
1594 2098 845 2500 853 3401 1989 813 1717 
2307 116 668 929 2152 2262 2117 1627 2954 
1871 2492 1337 1466 2249 1613 2516 400 377 
2094 2405 1281 2621 1761 2043 2828 2146 1541 
1678 2666 2761 936 2677 1665 2463 3053 2703 
2553 1650 1315 3623 1206 2128 2604 4400 1929 
770 38 159 1392 1330 1058 754 1427 1347 
1250 1066 306 1796 164 1214 821 1269 807 
626 733 1059 1097 2772 583 2107 880 838 
1547 1412 1109 1706 969 145 528 877 1003 
2501 621 1782 659 1876 2132 1949 467 420 
316 1773 861 1736 2453 28 1409 2202 2127 
667 1983 1622 75 338 2336 430 2879 2183 
1335 2116 2784 324 1402 742 2168 202 597 
1225 381 111 943 1056 1668 1050 1192 1872 
660 1528 1408 1496 839 96 1582 1162 798 
178 1847 1094 1614 1952 1573 170 1959 31 
915 1341 1691 149 945 1735 1897 2449 1710 
963 2055 1556 1204 2029 2471 1895 1497 2100 
1758 1423 2137 2629 1419 1653 917 503 2573 
2162 2866 1780 1160 3220 1306 2172 1974 1688 
2624 3520 1887 592 3343 3154 3353 2398 2205 
3088 1724 1712 1969 1418 29 1272 490 487 
379 835 1846 971 109 2306 2165 1216 506 
600 24 847 361 236 747 1503 1340 480 
2228 2494 22 1893 2687 2904 2263 2112 1403 
1583 1033 2120 3400 53 1533 3114 3369 2652 
1734 1433 3046 4453 2347 3003 2070 1071 3905 
2465 2679 2615 3893 2893 4221 5743 2510 3180 
5262 3386 3496 3041 3722 4372 2779 2672 3921 
1762 4480 3764 4116 2984 5756 2727 5104 644 
5238 4708 4887 3837 5155 5951 5143 4461 5571 
5966 4659 6008 4912 5082 5271 4571 5604 5359 
5256 5677 4367 4209 6000 5398 3881 5722 5663 
5356 5339 5999 4557 4201 5466 4769 4850 4727 
5199 4900 4920 5758 5419 5537 4129 4152 5638 
4748 5119 5492 5246 3478 4446 4277 4819 4735 
5714 5910 4860 4616 6048 3591 2941 5719 5002 
5976 5670 5701 5660 4157 5736 5235 4417 5252 
4675 5967 3388 5923 5836 4299 4991 5424 4851 
5046 5741 5839 5100 5213 5335 5521 5520 5288 
6007 4972 5420 5932 4617 5535 6024 5189 4150 
5813 5806 5724 4037 6040 4677 3219 5308 5939 
5674 5803 6022 5870 5177 4997 6037 5817 5470 
5435 4107 4545 5236 2430 4014 2391 2308 5703 
5223 3064 2735 5619 3836 2912 2335 2351 5474 
4525 5138 5414 5394 5301 3649 3681 4058 3960 
2995 4910 5612 4610 4917 3186 6065 5311 5527 
3736 3424 4110 4924 4172 4598 3740 4167 3603 
4413 5158 4833 5585 4602 5449 3731 3249 4759 
5405 4546 5099 2064 4901 4656 5647 4939 5523 
4938 4665 4389 4711 4726 684 313 2583 1785 
2291 2297 1381 2313 2684 2486 1453 107 2867 
1728 3225 2300 2281 1600 4118 3863 3862 2099 
2789 3373 1661 2661 2223 1915 2632 470 2714 
4514 3279 4100 2947 1916 4158 2373 3151 3361 
3084 2760 3047 4188 3539 3572 3127 2933 4531 
3563 3709 3430 4692 2899 2950 4268 4486 702 
786 19 2640 35 575 1322 612 291 804 
2436 1883 1524 2865 1656 2851 3725 2074 1068 
2103 2880 1383 2522 881 2548 2158 3134 3106 
2109 2409 1875 3471 2242 3431 2649 3227 3549 
3626 3771 2325 2925 2056 4313 2484 3446 3274 
1885 4006 1769 3639 3659 3791 4016 3885 4130 
3876 4334 2374 4424 3355 3937 2265 2902 1981 
2071 907 277 2375 670 1182 2831 875 1446 
2433 890 2915 1771 1467 2126 1218 3237 1649 
2499 3019 1806 2121 2746 2718 3521 4133 3379 
2538 3380 1742 2421 3775 4112 3720 3072 3354 
4320 3858 5103 3716 4838 4067 3907 5515 5608 
5600 4969 5498 5808 5816 4166 4895 5861 4214 
4907 5993 6050 5460 5713 5730 4950 2570 5984 
6068 4852 5792 5712 5241 5245 3819 6051 3778 
5469 5948 5383 5731 5015 5410 5207 5975 5627 
5875 5468 4650 4513 5888 6049 4732 5886 4246 
5767 5630 6020 5844 5869 5351 5800 4723 243 
5699 5403 5818 4063 6018 5998 3101 5389 5707 
5522 5075 5206 5828 5896 4407 4369 5110 5514 
4489 5667 4346 5140 5168 5763 5624 4874 5300 
3981 5458 4821 5587 4585 5879 4701 4330 5379 
5355 4261 4698 5222 3542 4432 5322 5927 5317 
5345 5936 4383 5961 1258 5037 5006 5764 4323 
3022 4147 3043 2524 91 169 4494 4070 2993 
3845 4580 5307 4937 3635 3957 4076 3122 3812 
2018 3566 3655 6045 4582 3537 5166 4436 5013 
5142 4145 3437 3604 1115 5852 4405 1073 3576 
4523 4812 3936 5782 3945 6055 4120 4657 6039 
4012 5244 4318 5925 5369 2354 2004 79 1156 
780 255 2296 2379 3672 2290 2633 112 41 
4463 328 3469 3799 4048 3051 2284 2288 2729 
1185 3766 2050 2786 1984 3434 2699 4314 2110 
2657 3859 2585 3567 3614 3787 3009 4234 2381 
3550 1905 2491 1954 5232 1805 2951 2988 3596 
3794 3930 2801 4457 5841 3482 4533 3129 2987 
4745 4296 3931 5074 4517 5962 3005 3123 5689 
2958 3172 5034 2211 4873 3165 3977 3948 5695 
3339 4888 4790 5463 3330 5942 5820 2940 2189 
1597 3944 1382 2431 2906 2091 2148 5662 3548 
1514 3693 4066 2614 128 3988 1536 3017 1997 
2059 1590 4412 60 1312 5559 1570 5974 3835 
4648 5350 4294 1778 3733 4840 5375 962 1493 
1686 3824 3092 5399 4474 3486 2005 4797 3015 
1962 1660 5378 6063 2096 4886 1888 4958 5367 
4380 2190 3558 4989 3338 2594 2216 3439 3694 
4477 5093 2593 5954 2466 1628 2542 2697 2447 
1808 2072 2456 3735 4647 2144 1866 2617 2237 
2046 2332 2348 2663 589 3322 2378 5194 2612 
2000 1729 1854 2416 1389 1636 1909 2725 2541 
4236 2459 2016 3020 2962 2683 3002 5117 2738 
2513 374 4361 3784 4829 3281 2928 5831 4983 
3290 2568 2701 4420 3297 2404 4868 4520 2732 
4394 3177 3951 4784 2999 4025 5061 5483 3289 
3470 4811 2450 1432 2839 4385 2323 4173 293 
4861 4271 3788 4712 4808 3535 2519 3370 4730 
3444 4687 3897 4655 2031 2267 2919 4591 4090 
1788 1346 2564 3291 5091 1578 3908 2963 2475 
5043 3230 2645 2891 4282 1943 3425 3155 2803 
3464 4254 5628 3590 3613 3461 2644 2656 5544 
5778 3010 4597 2731 2067 3133 2445 4601 5790 
2077 2759 4841 2217 2744 4322 4233 3351 2737 
4882 4658 3429 1874 1448 4466 4691 3251 3839 
5164 2485 6012 4247 4002 2707 5024 4532 1998 
5054 4978 4288 3569 2622 2464 2380 1529 50 
507 5555 2386 3474 3328 2946 3336 2212 1122 
2734 930 3677 993 2057 6056 1767 739 1732 
2971 4238 4185 2337 4955 3809 4778 3986 2730 
2686 2502 1960 2581 643 2973 3301 299 4218 
4283 4543 4219 4475 4204 3210 3423 2873 3418 
1542 2170 3459 3559 4817 4948 2037 5341 3309 
3833 4588 4174 2830 4926 4842 2200 2817 1413 
294 2260 1113 1042 283 1232 2201 2452 1321 
329 1719 1681 1802 2315 203 247 740 1198 
661 1900 2406 1775 815 2425 249 1568 1754 
2609 2350 2610 2058 1648 1526 4491 1345 3357 
5021 1161 3075 3805 2333 2176 1268 4760 1587 
2733 609 3667 5897 982 1440 1676 2790 1990 
1807 4930 2635 2372 1853 4554 4717 5912 2314 
2539 2690 5111 3676 4050 2321 1759 1841 1134 
842 1800 1398 1020 1327 432 1852 2252 654 
1237 1210 1227 1471 1657 1922 2025 697 1973 
1488 1741 1918 2773 2651 3198 2229 2155 886 
1487 1082 1430 1289 2862 1238 2628 3102 1304 
1625 2559 2419 2756 2488 1270 2531 3570 4224 
2226 1364 2819 1444 3932 2860 3801 3465 1245 
2576 3902 5617 3035 4020 3886 1677 1140 4796 
5315 5407 4836 5640 3718 3769 1740 2909 4244 
2439 1324 2119 2710 1683 3118 3966 2978 2049 
2747 3332 948 3331 2270 2561 3857 1049 2343 
2722 3529 1749 3627 4083 648 2582 2474 2678 
2285 3928 1939 2505 3472 2917 4381 4490 2970 
2139 4287 3878 1560 2574 3831 5302 4673 3195 
3420 4143 2442 3708 3666 3311 4637 2715 5055 
3268 3314 3595 5437 2767 3505 5533 4805 5504 
4366 2592 3935 4134 2230 2528 4095 2545 745 
3532 4390 3319 3303 1279 5001 3223 2437 1298 
1835 2589 5385 2289 3060 3622 4223 3232 3888 
4478 1469 4069 5606 4914 4135 3612 5866 3840 
3384 2554 103 2705 3071 2979 5843 3146 2272 
3014 1849 4312 2515 3340 3455 3938 2929 2876 
2310 3196 3980 5220 5004 5173 1328 3983 3753 
5749 4918 4764 3501 2135 5257 3416 4573 1970 
3950 5323 3059 2981 3901 3849 4670 4339 4156 
5711 5881 4416 3233 4963 5364 4418 3818 5438 
2327 5524 5086 1975 5279 5274 4363 4226 3476 
5254 5859 4015 5205 4125 4729 5809 4944 4782 
2051 820 1292 3292 887 2269 126 3171 3109 
1567 1303 806 1642 2085 1898 1124 677 3586 
2956 2033 1461 5657 1899 2807 1817 3031 2754 
4593 4425 2258 3362 2014 2195 1546 3099 1933 
1791 3630 1855 2277 3004 4386 4527 4111 3074 
2840 1781 2259 1631 4344 4267 1598 3326 6057 
4038 3842 4243 586 1384 1366 1326 1837 1618 
1344 1558 755 1256 1472 1325 1856 922 928 
310 898 2248 252 1663 2017 319 1599 2153 
1178 1114 1267 1639 1666 2298 403 2768 484 
766 1551 538 991 1244 1163 1765 997 2577 
1783 1209 1862 1282 1271 1659 1815 1743 1171 
2401 831 1711 2060 2283 1465 2151 1305 1183 
2001 1774 2521 1955 1934 1252 3205 1912 3175 
2124 3680 2517 4613 5905 2032 1297 2145 194 
836 950 601 1589 940 882 1079 705 2052 
1700 1795 2106 1200 977 843 1699 933 1393 
1055 2483 1456 1894 2084 1294 1760 2567 1794 
2255 1062 1088 1824 2254 1776 2346 1845 2331 
413 1359 1516 2024 1606 2377 2388 1903 1634 
1961 1129 2365 1880 2557 1415 2441 1353 2086 
1697 1165 2547 2412 1902 1559 2580 4327 1956 
2367 2670 2359 1946 2771 2251 2599 2692 2305 
5278 1977 536 121 2108 1803 1858 862 2352 
2782 1826 1276 1358 2322 3008 2334 2961 2460 
2161 3688 3920 1839 1911 2706 2503 2778 4415 
4180 3454 2479 1302 2187 3360 2357 1798 1873 
3044 2709 3641 5922 2868 5885 4614 5609 3105 
5502 2883 2700 2983 3867 4620 2095 5313 3256 
5406 4193 1404 3678 2507 2044 4884 5314 2053 
2079 3664 1882 2303 3070 1604 2286 4949 827 
2527 3199 4225 4113 1361 2591 5611 4161 3629 
2898 5700 5776 2704 2901 3488 2221 4577 2934 
2810 4495 4045 4607 3390 2855 3427 4250 3732 
625 2355 4783 2739 4216 3124 3917 5146 2878 
4377 3518 2809 1351 1607 3887 3698 2039 2777 
6025 4507 4564 4621 4354 4257 4280 5325 4707 
2874 1431 2986 3200 3934 1709 4511 5134 3757 
2304 3657 3728 3668 5814 3618 5846 4961 4768 
3696 5125 5804 4959 4776 5429 5135 6028 5310 
4700 3620 3883 5442 5561 5578 5744 6052 5675 
5377 5725 5326 4370 5095 5631 5446 4515 5309 
2637 5459 2805 4897 4008 5296 4801 5081 4235 
5116 5511 5605 5911 3097 4902 4854 3820 3194 
5149 5705 4799 3253 4935 3577 3484 5234 4324 
3600 4500 6015 3704 3783 5123 5777 3744 5462 
5255 5918 2696 5584 4731 4171 3507 1545 3462 
4028 4522 3160 3348 5877 4758 5565 4105 2518 
4203 5163 5494 3926 6006 4595 4862 4278 3553 
5986 4003 3238 5878 5856 4177 3870 5858 2193 
5909 4664 4452 3903 4612 4604 5594 4814 5551 
3394 6029 5137 5889 2302 4384 4181 4761 5543 
5625 4024 3940 4274 5791 5019 3625 3058 3212 
5586 5482 1135 2626 3578 4178 3021 1830 4661 
3179 1687 3970 4696 1864 3335 2191 2438 3050 
2911 3192 2257 4164 2968 1755 2360 4872 3975 
2218 4592 2496 2048 2619 2390 1972 2627 3300 
2861 2631 2723 3598 3645 3181 2414 3076 2889 
4256 2952 2770 3802 2392 3605 3135 3414 3407 
4252 2949 3817 3715 2948 2397 3574 3375 3815 
2326 2926 2795 4093 3143 1521 5008 4202 4556 
2353 2063 2818 1831 136 2480 1505 1616 1924 
1702 1722 2140 2312 2976 2408 2815 2019 2613 
748 2587 2797 1910 2440 3419 2896 1626 2292 
2090 1857 3209 3285 3499 2864 3790 1641 3959 
4106 2849 2383 2967 2026 3848 1727 2330 3000 
2764 2845 1694 2550 2900 3001 6067 2638 5973 
2340 5337 4544 3128 4253 3318 2435 4007 3294 
3534 2848 972 2953 1861 2924 4627 2575 2239 
2311 5060 2654 2420 2073 2943 3089 2571 3243 
2214 3082 4804 2509 3049 2530 3793 2689 2232 
2877 3307 3617 3803 3772 4192 4535 1825 2685 
2062 4488 2955 4738 4009 2276 5467 3481 1170 
5710 3441 568 3235 5113 6042 3096 4510 2342 
4345 1768 3670 4528 5089 3828 4030 1112 3687 
3964 2477 2957 5595 4108 3511 1644 4485 1672 
5418 1976 4676 2446 3978 5253 4569 3473 2349 
2800 4704 3350 1730 1966 4722 5152 3306 3468 
1832 2775 3544 4505 5972 4136 2885 3167 4441 
1581 6061 5784 4705 5621 4054 4943 4993 3866 
5455 5275 4275 2758 3026 5837 5374 4682 4975 
4755 2030 4516 4626 2565 4828 2989 5477 4414 
4492 5365 5285 4499 4336 2344 3119 5005 3691 
4371 2916 5963 2927 4596 2317 2763 4834 5919 
4343 6026 5622 4428 5685 5461 5040 4894 5321 