# vtk DataFile Version 4.2
Generated by LIGGGHTS
ASCII
DATASET POLYDATA
POINTS 70 float
0.0114581 -0.0368894 0.00699838 -0.0237986 -0.0238458 0.00699828 -0.00516478 -0.0202765 0.00953845 
0.0278628 -0.0211398 0.0135785 0.0230261 -0.0153722 0.00699752 -0.0253441 -0.00911908 0.0113724 
-0.0187622 -0.00161635 0.0107676 -0.00540934 -0.000824611 0.0069993 0.0045111 -0.00742059 0.00934088 
0.0159819 -0.000463851 0.0109253 0.0119743 0.00781084 0.0069976 0.0247776 0.00517861 0.00975104 
-0.0327818 0.0126216 0.00699878 -0.0248283 0.0178785 0.0100133 -0.000589487 0.0181855 0.0102347 
0.00562292 0.011265 0.0139045 -0.0125072 0.0218876 0.00749382 0.00288389 0.0293428 0.00699795 
0.0229398 0.0220761 0.0070533 -0.000836415 -0.0222524 0.0217332 0.0205449 -0.00875754 0.0144138 
-0.00820969 0.00387825 0.0164056 -0.0114136 0.0133337 0.0169576 0.0101142 0.0160929 0.0215669 
0.0225476 0.010684 0.0232497 0.0057422 0.0299437 0.0204631 -0.0141535 -0.0327213 0.0297117 
-0.000932098 -0.0397253 0.0283781 -0.00426073 -0.0305304 0.0304676 -0.0203286 -0.0203268 0.0274441 
-0.00721645 -0.018164 0.0282577 0.00504078 -0.0176016 0.0283518 0.019833 -0.0173874 0.0279802 
0.0294059 -0.0112395 0.0311967 -0.00674141 -0.00769605 0.0261014 0.0291985 -0.00143262 0.0292522 
-0.0127277 0.00477301 0.0347275 -0.00474817 0.00179301 0.0286245 0.0109787 0.0038892 0.0330456 
-0.012138 0.0145033 0.032501 0.0040476 0.0289293 0.0322747 0.0115002 0.0244725 0.0273158 
0.0295522 0.021592 0.0316808 0.00282281 -0.0325029 0.0374722 -0.0125618 -0.0252659 0.0410811 
0.0107596 -0.0251496 0.041906 -0.0216844 -0.0136966 0.0449292 0.00295226 -0.0199709 0.0378388 
0.0380504 -0.0114132 0.036744 -0.0161152 -0.00371844 0.0393055 -0.000240088 -0.00253142 0.0366106 
0.0163072 -0.000789571 0.0443757 0.0206867 -0.00931641 0.0414084 -0.0315248 0.00143338 0.0398353 
-0.0193531 0.0218709 0.0395089 -0.006833 0.0267618 0.0404402 0.0116872 0.0258019 0.0379173 
-0.00905119 -0.0234547 0.0502674 0.020305 -0.0299045 0.0510236 -0.0336379 -0.0136575 0.0531292 
0.0289081 -0.0133596 0.0475458 -0.0282449 -0.001882 0.0510298 -0.00557575 -0.00708143 0.0460092 
-0.0208779 0.00686567 0.0466713 -0.0126155 0.00283972 0.0506102 -0.0020702 0.00309101 0.0460998 
0.00615957 0.000137386 0.051779 0.0273787 0.00968743 0.0508261 -0.00966207 0.0205185 0.0524101 
4.56635e-05 0.0204071 0.0471149 
VERTICES 70 140
1 0 
1 1 
1 2 
1 3 
1 4 
1 5 
1 6 
1 7 
1 8 
1 9 
1 10 
1 11 
1 12 
1 13 
1 14 
1 15 
1 16 
1 17 
1 18 
1 19 
1 20 
1 21 
1 22 
1 23 
1 24 
1 25 
1 26 
1 27 
1 28 
1 29 
1 30 
1 31 
1 32 
1 33 
1 34 
1 35 
1 36 
1 37 
1 38 
1 39 
1 40 
1 41 
1 42 
1 43 
1 44 
1 45 
1 46 
1 47 
1 48 
1 49 
1 50 
1 51 
1 52 
1 53 
1 54 
1 55 
1 56 
1 57 
1 58 
1 59 
1 60 
1 61 
1 62 
1 63 
1 64 
1 65 
1 66 
1 67 
1 68 
1 69 

POINT_DATA 70
FIELD FieldData 7
id 1 70 int
44 732 1464 837 912 1986 1606 936 895 
1371 663 720 467 208 1438 1782 385 1157 
595 2267 398 2166 1751 2117 2149 1929 2782 
2509 2454 2873 2996 2710 2790 3102 2640 2566 
3057 2252 3510 3206 3209 3228 3475 3932 4179 
4006 4181 3841 3364 4052 3265 4362 4280 3857 
3770 3909 3724 5377 4989 4708 4482 5353 5397 
4796 5509 5103 5420 5050 5402 4610 
type 1 70 int
2 2 2 2 2 2 2 2 2 
2 2 2 2 2 2 2 2 2 
2 2 2 2 2 2 2 2 2 
2 2 2 2 2 2 2 2 2 
2 2 2 2 2 2 2 2 2 
2 2 2 2 2 2 2 2 2 
2 2 2 2 2 2 2 2 2 
2 2 2 2 2 2 2 
i 3 70 int
0 0 0 0 0 0 0 0 0 
0 0 0 0 0 0 0 0 0 
0 0 0 0 0 0 0 0 0 
0 0 0 0 0 0 0 0 0 
0 0 0 0 0 0 0 0 0 
0 0 0 0 0 0 0 0 0 
0 0 0 0 0 0 0 0 0 
0 0 0 0 0 0 0 0 0 
0 0 0 0 0 0 0 0 0 
0 0 0 0 0 0 0 0 0 
0 0 0 0 0 0 0 0 0 
0 0 0 0 0 0 0 0 0 
0 0 0 0 0 0 0 0 0 
0 0 0 0 0 0 0 0 0 
0 0 0 0 0 0 0 0 0 
0 0 0 0 0 0 0 0 0 
0 0 0 0 0 0 0 0 0 
0 0 0 0 0 0 0 0 0 
0 0 0 0 0 0 0 0 0 
0 0 0 0 0 0 0 0 0 
0 0 0 0 0 0 0 0 0 
0 0 0 0 0 0 0 0 0 
0 0 0 0 0 0 0 0 0 
0 0 0 
v 3 70 double
3.8544345702e-07 -2.1233008819e-07 -5.5525133474e-08 -8.3566519765e-08 1.3081534646e-07 -1.3843485835e-07 1.6872239221e-07 -1.506817707e-08 -1.5369058013e-09 
1.0127535182e-07 4.8671900133e-08 4.212689799e-07 5.1153429656e-07 2.1552376428e-07 -6.8513526516e-07 2.4178744039e-07 -8.4711373629e-08 -6.5202990813e-08 
5.6434882547e-08 -2.3142065508e-07 7.6621771349e-08 2.0552162999e-07 1.1822441223e-07 4.1577408468e-07 -1.5300957212e-07 2.7730653568e-07 -5.7677736863e-07 
6.7358870686e-07 5.0568029844e-08 6.6898521181e-08 5.1838952637e-08 -7.6102685325e-08 -8.8986537006e-08 4.1044320416e-07 -2.6952160894e-08 1.0542422177e-06 
4.8791658282e-07 1.0181967559e-06 -1.486195483e-06 -3.9550409445e-07 7.9039506426e-07 5.6171971873e-07 -1.3013849502e-06 -6.7684276952e-08 -4.3358626567e-07 
-3.2950553652e-08 1.1229561697e-07 1.8332600807e-07 1.320785173e-06 -1.2201198096e-07 -2.7035996207e-06 7.4377991482e-07 -5.0879790513e-07 -9.6371889527e-08 
2.1150419878e-07 9.7495173054e-07 -1.7686027546e-07 -1.0967936687e-07 1.8590534417e-07 -5.9920704768e-08 3.3729760253e-08 -1.4478958444e-06 1.3283842751e-07 
-6.5259357201e-08 -1.0750740931e-07 3.1919793093e-07 -5.0865483439e-07 1.1811606642e-07 2.276007498e-07 4.2962803991e-07 1.4293515546e-07 -2.4621349647e-07 
-3.5573027959e-07 1.0708983695e-07 2.4672871707e-07 -2.5385034826e-07 -3.2780327364e-08 2.9493501197e-07 1.180202371e-07 2.3008410657e-07 3.1072713565e-07 
-1.9999602572e-08 -7.1698242533e-08 8.2944760192e-08 5.4899799013e-08 -1.0484486865e-07 3.7209224025e-08 -2.9956726516e-07 -4.9553418976e-08 1.9980456412e-08 
-4.3945170191e-09 -4.5518856597e-07 2.3231183694e-08 -5.9785881932e-07 4.7732667654e-08 -8.1444110073e-07 2.5549316383e-07 -2.3713659068e-07 3.3252288084e-07 
-1.0541340548e-06 -1.5447208441e-07 1.3726360564e-06 1.663632842e-07 -1.2336132429e-07 -7.9329949841e-08 1.5282711723e-07 -7.4814562294e-07 -1.2620386055e-07 
-1.2341177622e-07 -2.0155364175e-07 9.7335702077e-08 3.2943442784e-08 -1.5846512879e-07 -2.9029026541e-07 -1.0182533015e-07 -3.7065202031e-08 -1.0384401388e-07 
6.4250824317e-07 8.0078040014e-08 -9.0633164563e-08 -2.087308889e-08 8.6323989863e-08 9.0200126984e-08 -4.1300383077e-07 2.6678852482e-07 -1.0489322582e-07 
-1.6402384343e-07 4.1832279692e-08 2.5395799206e-07 -1.7620141922e-08 -1.4700027028e-07 1.8818242684e-07 -2.5428951522e-07 -7.9036383957e-08 -7.6558277034e-08 
1.5268231228e-07 -4.1987107805e-08 -1.133522017e-07 8.0233410355e-08 -6.2211009623e-10 2.5313221499e-07 2.363692481e-07 -2.2622164087e-07 3.4878126681e-08 
8.5971460336e-08 -3.1831660697e-07 3.29822205e-08 8.6632500237e-08 -2.6158396808e-07 -3.4772924305e-08 1.1401571469e-07 -2.6323603171e-07 2.4905930756e-08 
1.2531965992e-08 -1.4110878802e-08 -3.0599526469e-08 2.1174143836e-08 -3.322542263e-07 -1.6961800316e-08 -1.2033324245e-07 -1.2862870367e-08 2.1998648732e-08 
-9.4976168358e-07 5.6524677941e-07 -1.8524722479e-06 -3.2129603683e-07 7.301337216e-08 -3.4173747525e-07 1.9038544685e-07 3.0880825321e-07 1.941170935e-08 
5.419865088e-08 6.2090327729e-09 -1.7129962317e-08 4.7493600452e-09 -4.7027697943e-09 -5.1248151226e-08 7.8792661198e-08 1.0395259947e-07 1.3439440949e-07 
6.8981959952e-08 5.5233460102e-08 -4.2621030347e-08 4.946382138e-08 2.4212870921e-08 2.5720003346e-08 -7.2154492514e-09 1.6254831348e-07 2.018480475e-07 
-6.9518927168e-08 1.0266149436e-07 -1.3841960494e-08 2.3399876976e-07 -8.4802789365e-08 -1.3617518844e-07 1.3716646125e-07 -7.8646507199e-09 -5.9652621487e-08 
-3.6169768113e-08 -2.4923808359e-09 -1.6036056058e-08 -1.1314716001e-07 1.0798916352e-07 8.6832557659e-08 3.6441082367e-07 -5.1779885391e-07 7.5228624585e-07 
1.658902378e-07 -9.0559646661e-08 6.5624279812e-08 
f 3 70 double
-0.00026055900301 0.00015978096111 8.9881520507e-05 0.00023806654033 0.00029646714724 0.00028567746616 0.00014361891308 -3.7092509226e-05 -0.00033690329221 
-0.00017321445617 4.4689958454e-05 -1.1171134453e-05 -0.00011597390239 2.0747693366e-05 3.8585939423e-05 0.00016735677649 0.00014652536477 -9.8844050114e-05 
-0.00011628093234 7.0428979084e-05 0.00011836800713 9.0939014854e-06 -0.00011285993864 0.00014943924485 -0.00047711451564 -0.00047088865989 0.00010389349112 
0.00010855664792 0.00015296086821 3.8854977158e-06 3.1899103165e-05 0.00022674283408 -0.00011776263522 -0.0001139429237 -0.00016857545446 -0.0003545110881 
-0.00012766336939 9.2511096548e-05 -0.00015527939313 -0.00027401795189 0.00019953057983 -0.00037804464245 -5.9118037324e-05 0.0001407257563 0.00019661005539 
0.00026327728936 0.00013621669321 -8.9492099939e-05 0.00029081178918 -0.0005538834915 0.00033452351689 0.00013962814729 0.00035457498473 -6.0635422951e-05 
0.00016748124345 -3.6249307771e-05 -0.00042967588896 -1.4616434407e-05 -0.00013981149465 -0.00011199505516 6.8052459954e-05 0.00016946962957 -6.6458721491e-05 
-9.9544917527e-06 0.00036999390675 -0.00023541446048 0.00029092244296 -0.00043314825355 -0.00022498021169 -1.9871503149e-05 -5.2298458272e-10 -0.00013634672988 
-1.2434795424e-05 -0.00021169038955 1.2764396643e-05 -0.0001239814754 -0.00033134828967 0.00023276043183 3.9811899105e-05 -7.1325248098e-05 7.1699521439e-05 
-2.7442634514e-05 2.7247743463e-05 -0.00013094761188 -6.5140614346e-05 -3.5561536008e-05 -4.7837168457e-05 8.8031815287e-05 -0.0001381794452 -0.00016430103336 
-0.00012485109678 -0.00011292176138 -6.036948024e-06 -0.00022521033598 -3.5518391772e-05 -0.00046822861629 -9.2096671042e-05 4.0686896991e-05 -5.9885506005e-05 
-0.00011229688608 8.2907580159e-05 -0.00012892921692 -3.6188960913e-05 -3.342346811e-05 3.3160921734e-05 -8.7370945695e-06 4.487082318e-05 3.4149179212e-05 
-0.00028476989007 -7.1587650072e-05 -1.7728635828e-05 0.00016331459266 0.00022030210636 0.00015502582774 -4.4617077109e-06 -1.3675392641e-05 -0.00010428228672 
-2.2381730698e-05 -0.00013836209804 7.2338164186e-05 5.8999420199e-05 2.897218008e-05 -2.3246531832e-05 9.0812481547e-05 -0.00012204078612 8.9515376909e-06 
0.00013116545292 2.5199732637e-05 -4.4390927033e-05 8.5512860597e-06 2.5194670382e-05 -2.895100754e-05 -8.2287288186e-05 3.3818378942e-05 -3.3076746597e-05 
1.552483171e-05 1.0027864629e-05 5.0600974262e-06 7.7838289454e-05 2.75087538e-05 -2.8285186329e-05 -3.0012176194e-06 -7.346282566e-09 1.9793195339e-05 
8.6841430953e-06 -7.8095290884e-05 -6.7386643159e-05 5.5732165659e-05 -3.5096529779e-05 -1.3120831955e-05 3.5071639164e-05 -3.8375284455e-05 9.2300378652e-06 
1.1840921242e-06 1.0575798423e-05 1.3928248249e-05 -0.00011438523325 5.7206805298e-05 5.5524731671e-05 -5.9881084588e-05 0.00011263913984 -5.7095185734e-05 
-3.7806988466e-05 -6.9505051848e-06 0.00013650905536 -3.0345262006e-06 8.3280305529e-06 6.7460801869e-05 -3.9064484623e-05 2.7924617916e-05 7.4914025436e-07 
8.1755652605e-06 1.2989356065e-05 5.3004969272e-06 -7.31061277e-06 -1.6068085421e-05 -2.0636514805e-06 -0.00014309601383 -3.1674907199e-05 -1.2410438236e-05 
-4.5028140391e-06 -2.0663069765e-05 6.8982088686e-05 -1.0775909295e-05 9.2552814347e-07 1.2182195257e-05 -5.7619267873e-05 -9.7749017714e-05 1.9253756756e-05 
-6.236463824e-05 2.4863281659e-05 1.1094657744e-05 3.5826375788e-06 -8.9618681076e-06 9.1095684449e-06 3.8425171569e-05 -1.190525021e-05 -1.0600056754e-05 
-4.4573618183e-05 -4.8382178894e-05 -9.2281331262e-06 -7.4215846052e-05 -9.3975423904e-06 -4.7744176205e-06 -5.4339635303e-05 -2.3125860229e-05 5.6805088099e-06 
2.382375216e-05 5.5193356041e-06 1.0557497925e-05 
radius 1 70 double
0.005 0.005 0.005 0.005 0.005 0.005 0.005 0.005 0.005 
0.005 0.005 0.005 0.005 0.005 0.005 0.005 0.005 0.005 
0.005 0.005 0.005 0.005 0.005 0.005 0.005 0.005 0.005 
0.005 0.005 0.005 0.005 0.005 0.005 0.005 0.005 0.005 
0.005 0.005 0.005 0.005 0.005 0.005 0.005 0.005 0.005 
0.005 0.005 0.005 0.005 0.005 0.005 0.005 0.005 0.005 
0.005 0.005 0.005 0.005 0.005 0.005 0.005 0.005 0.005 
0.005 0.005 0.005 0.005 0.005 0.005 0.005 
omega 3 70 double
0.00022712085563 -9.2346989224e-05 -0.00014935581581 -3.5646014777e-05 6.4003060103e-06 5.2128108218e-05 4.8224140525e-05 -7.5826274891e-05 -1.2344164328e-05 
-0.00015417860539 0.00011285898841 -0.00018363137996 -3.5463055379e-05 0.00035582747155 -0.00023816558331 7.3728129751e-05 -1.5889084391e-05 -4.3242358085e-05 
1.4393547158e-05 -3.4234784261e-05 4.5473444034e-05 -0.00013556861768 0.00021167358889 -0.00014899087444 6.3422877557e-05 -8.1916554212e-05 3.8499226606e-05 
-6.0799372855e-05 -3.4147019428e-05 8.6754735765e-05 -4.0682371579e-05 -4.7297912786e-05 0.00018652580649 -0.00039126993666 -0.00012477179075 0.00024429202932 
-0.00032429793465 0.00027770149148 0.00022696855534 -0.00060132028317 0.00047407437555 0.00046235321753 0.00027072614101 0.00039015857838 0.00014751179055 
8.3326187892e-05 -2.6837047845e-05 1.8630554684e-05 -3.9882439816e-06 -0.00092234004316 -6.8579541666e-05 4.7854233412e-06 9.6702147999e-05 -0.00091095946641 
0.0003379647395 -0.00025954720715 -4.4963465519e-06 0.00013690703172 -0.00026478147043 8.7288838695e-05 -0.00014729187526 0.00028178765366 -6.1722308758e-05 
-0.00011370231361 7.226566141e-06 3.785425322e-05 0.00017230478068 0.000216998419 9.074531743e-05 -3.8219391314e-05 2.4901436334e-05 -6.8646740992e-05 
6.7036947519e-05 -7.397775963e-05 1.310806361e-06 0.00018448672732 -5.2189745137e-06 -8.7209620501e-05 -1.5391168769e-05 0.00013204130177 -0.00015747174797 
9.6978650217e-06 -6.0555039115e-05 1.1612864475e-05 4.42071932e-06 -1.7264794847e-06 3.3054737596e-05 9.502194135e-05 0.00024831018364 4.7871917752e-05 
4.9893835948e-05 -1.9481509006e-05 9.1611291156e-05 -4.1632299224e-05 0.00053855847575 -0.00010862786637 -4.6058177819e-05 0.0002581674072 -0.00038313466242 
0.0001267575231 0.00048297493968 -5.9503242609e-05 -2.120493507e-05 3.4789680618e-05 1.8798949295e-05 -5.3619948598e-05 5.6217193699e-05 -1.164042855e-06 
7.4303263772e-05 1.7088805051e-06 -8.1658666481e-05 6.9356755537e-05 3.9301957333e-05 -2.1538751753e-05 2.2796841557e-05 3.3697300701e-06 -2.0627634278e-05 
-0.00012340256135 -0.00017437376489 -4.2122579543e-05 1.2749070243e-06 -5.6691154642e-06 5.7270532831e-06 0.00018342782771 0.00012327582692 -7.402331437e-05 
7.3007708739e-05 6.0286339867e-05 -1.5633288205e-05 8.4177530009e-06 2.3150046281e-05 -2.6952646121e-05 -4.8744167009e-05 3.182740051e-05 0.00010147013848 
-8.1963311726e-05 -1.9796546446e-05 -5.4796709376e-05 -4.5709865476e-06 -2.4352130265e-05 -9.4792161294e-06 2.6166594768e-05 0.00018941228557 2.1109678795e-05 
-5.0806208559e-05 7.5860248652e-05 3.5669196445e-05 1.7657992386e-06 -6.3329434139e-06 -1.0905602644e-05 -3.5577162076e-05 -3.2552264334e-05 2.0816676004e-05 
-3.2069358421e-05 -2.34591715e-08 -2.7426991216e-05 -3.2206804072e-05 4.7298637988e-05 -2.4761148688e-06 4.3171731236e-05 1.6776870918e-06 -4.6628466733e-06 
-0.00015432592825 0.00021209689975 3.3413288588e-05 -6.2319575562e-05 -0.00014376404627 -5.9872904937e-05 -3.7878860964e-05 2.5265454113e-06 2.1370734199e-05 
-3.982463143e-05 -4.6226883676e-05 4.9125572509e-05 -1.4649424249e-05 8.1027888515e-06 2.6055331088e-05 8.86260449e-06 -1.2982635411e-05 1.8008966532e-05 
2.4359476993e-06 -1.307726351e-05 4.4426564838e-05 -3.6543627899e-05 -2.5970705181e-05 -4.5206231972e-05 4.6503145014e-05 -5.4720992364e-05 9.3305259476e-07 
6.9067746753e-05 3.7366865781e-05 5.8357489912e-05 1.0939203429e-05 -4.4571990456e-05 7.7534227203e-06 5.7527290256e-05 -5.045221309e-06 4.0234631326e-05 
1.4133161372e-05 -7.6156368855e-06 1.862496281e-05 -5.8393457875e-06 4.7787677323e-05 6.4572398422e-07 -1.6151681392e-05 -1.1268830456e-05 4.5903187407e-05 
2.8417787804e-05 -3.6701030125e-05 1.2709228995e-05 
