# vtk DataFile Version 4.2
Generated by LIGGGHTS
ASCII
DATASET POLYDATA
POINTS 70 float
0.0114581 -0.0368894 0.00699838 -0.0237986 -0.0238458 0.00699827 -0.00516478 -0.0202765 0.00953845 
0.0278628 -0.0211398 0.0135785 0.0230261 -0.0153722 0.00699752 -0.0253441 -0.00911908 0.0113724 
-0.0187622 -0.00161635 0.0107676 -0.00540934 -0.00082461 0.0069993 0.0045111 -0.00742059 0.00934088 
0.0159819 -0.000463851 0.0109253 0.0119743 0.00781084 0.0069976 0.0247776 0.00517861 0.00975104 
-0.0327818 0.0126216 0.00699878 -0.0248283 0.0178785 0.0100133 -0.000589488 0.0181855 0.0102347 
0.00562292 0.011265 0.0139045 -0.0125072 0.0218876 0.00749382 0.00288389 0.0293428 0.00699795 
0.0229398 0.0220761 0.0070533 -0.000836414 -0.0222524 0.0217332 0.0205449 -0.00875754 0.0144138 
-0.00820969 0.00387825 0.0164056 -0.0114136 0.0133337 0.0169576 0.0101142 0.0160929 0.0215669 
0.0225476 0.010684 0.0232497 0.0057422 0.0299437 0.0204631 -0.0141535 -0.0327213 0.0297117 
-0.000932094 -0.0397253 0.0283781 -0.00426073 -0.0305304 0.0304676 -0.0203286 -0.0203268 0.0274441 
-0.00721645 -0.018164 0.0282577 0.00504079 -0.0176016 0.0283518 0.019833 -0.0173874 0.0279802 
0.0294059 -0.0112395 0.0311967 -0.00674141 -0.00769605 0.0261014 0.0291985 -0.00143261 0.0292522 
-0.0127277 0.00477301 0.0347275 -0.00474817 0.00179301 0.0286245 0.0109787 0.0038892 0.0330456 
-0.012138 0.0145033 0.032501 0.0040476 0.0289293 0.0322747 0.0115002 0.0244725 0.0273158 
0.0295522 0.021592 0.0316808 0.00282281 -0.0325029 0.0374722 -0.0125618 -0.0252659 0.0410811 
0.0107596 -0.0251496 0.041906 -0.0216844 -0.0136966 0.0449292 0.00295226 -0.0199709 0.0378388 
0.0380504 -0.0114132 0.036744 -0.0161152 -0.00371844 0.0393055 -0.000240087 -0.00253142 0.0366106 
0.0163072 -0.000789572 0.0443757 0.0206867 -0.00931641 0.0414084 -0.0315248 0.00143338 0.0398353 
-0.0193531 0.0218709 0.0395089 -0.006833 0.0267618 0.0404402 0.0116872 0.0258019 0.0379173 
-0.0090512 -0.0234547 0.0502674 0.020305 -0.0299045 0.0510236 -0.0336379 -0.0136575 0.0531292 
0.0289081 -0.0133596 0.0475458 -0.0282449 -0.001882 0.0510298 -0.00557575 -0.00708143 0.0460092 
-0.0208779 0.00686567 0.0466713 -0.0126155 0.00283972 0.0506102 -0.0020702 0.00309101 0.0460998 
0.00615957 0.000137386 0.051779 0.0273787 0.00968743 0.0508261 -0.00966207 0.0205185 0.0524101 
4.56629e-05 0.0204071 0.0471149 
VERTICES 70 140
1 0 
1 1 
1 2 
1 3 
1 4 
1 5 
1 6 
1 7 
1 8 
1 9 
1 10 
1 11 
1 12 
1 13 
1 14 
1 15 
1 16 
1 17 
1 18 
1 19 
1 20 
1 21 
1 22 
1 23 
1 24 
1 25 
1 26 
1 27 
1 28 
1 29 
1 30 
1 31 
1 32 
1 33 
1 34 
1 35 
1 36 
1 37 
1 38 
1 39 
1 40 
1 41 
1 42 
1 43 
1 44 
1 45 
1 46 
1 47 
1 48 
1 49 
1 50 
1 51 
1 52 
1 53 
1 54 
1 55 
1 56 
1 57 
1 58 
1 59 
1 60 
1 61 
1 62 
1 63 
1 64 
1 65 
1 66 
1 67 
1 68 
1 69 

POINT_DATA 70
FIELD FieldData 7
id 1 70 int
44 732 1464 837 912 1986 1606 936 895 
1371 663 720 467 208 1438 1782 385 1157 
595 2267 398 2166 1751 2117 2149 1929 2782 
2509 2454 2873 2996 2710 2790 3102 2640 2566 
3057 2252 3510 3206 3209 3228 3475 3932 4179 
4006 4181 3841 3364 4052 3265 4362 4280 3857 
3770 3909 3724 5377 4989 4708 4482 5353 5397 
4796 5509 5103 5420 5050 5402 4610 
type 1 70 int
2 2 2 2 2 2 2 2 2 
2 2 2 2 2 2 2 2 2 
2 2 2 2 2 2 2 2 2 
2 2 2 2 2 2 2 2 2 
2 2 2 2 2 2 2 2 2 
2 2 2 2 2 2 2 2 2 
2 2 2 2 2 2 2 2 2 
2 2 2 2 2 2 2 
i 3 70 int
0 0 0 0 0 0 0 0 0 
0 0 0 0 0 0 0 0 0 
0 0 0 0 0 0 0 0 0 
0 0 0 0 0 0 0 0 0 
0 0 0 0 0 0 0 0 0 
0 0 0 0 0 0 0 0 0 
0 0 0 0 0 0 0 0 0 
0 0 0 0 0 0 0 0 0 
0 0 0 0 0 0 0 0 0 
0 0 0 0 0 0 0 0 0 
0 0 0 0 0 0 0 0 0 
0 0 0 0 0 0 0 0 0 
0 0 0 0 0 0 0 0 0 
0 0 0 0 0 0 0 0 0 
0 0 0 0 0 0 0 0 0 
0 0 0 0 0 0 0 0 0 
0 0 0 0 0 0 0 0 0 
0 0 0 0 0 0 0 0 0 
0 0 0 0 0 0 0 0 0 
0 0 0 0 0 0 0 0 0 
0 0 0 0 0 0 0 0 0 
0 0 0 0 0 0 0 0 0 
0 0 0 0 0 0 0 0 0 
0 0 0 
v 3 70 double
4.0557500235e-07 1.7740740507e-07 -8.9142215839e-08 2.0394593402e-08 -2.0901813264e-07 -3.8825920073e-08 -5.9971237338e-08 -6.1849586418e-08 -1.0024893489e-07 
-1.7312567753e-07 6.6550104708e-07 6.2779928374e-07 -6.5244550541e-07 -7.7167084631e-08 -3.4243171372e-07 -9.2895746606e-08 -3.028154972e-07 -1.4744480608e-07 
-1.3389363871e-07 2.4496741726e-07 6.0141104208e-08 -3.1090821502e-07 -1.6380828021e-07 -2.6407675968e-07 1.1102154476e-06 9.5840872783e-07 -9.7084287579e-07 
8.3302008247e-08 -3.7072248765e-07 3.3911127362e-08 -1.4364238307e-08 -2.2750010144e-07 -6.2434068433e-08 -5.2521371827e-07 1.066695844e-07 -6.3851072604e-07 
-4.0845114233e-07 -1.5234017084e-06 1.1690430075e-06 7.2642993406e-07 -7.8166545434e-07 -1.2370028693e-06 -4.7516785148e-07 -4.7971348095e-07 1.0790626823e-07 
-1.147542115e-07 5.1564423253e-08 -1.6652759719e-07 -9.0765432272e-07 -1.1419717982e-07 1.9536220632e-06 -7.1917334281e-07 2.3811810864e-07 -5.1946329867e-07 
5.0808444996e-07 1.2096184312e-06 -1.2693066298e-07 -4.0583994273e-07 -9.4777700721e-08 -1.0255382797e-08 -1.8182163253e-07 -9.5758284379e-07 1.4949155857e-09 
-3.0939649457e-07 1.2886686376e-07 9.4359070848e-08 1.6677080015e-07 5.719922769e-07 2.3674646824e-07 3.0516234964e-07 3.9246379013e-08 -1.992637551e-07 
-1.7169867434e-07 -8.60606837e-08 1.7643654771e-07 -1.6409840903e-07 -5.9667093803e-08 2.5810435929e-07 3.0303212241e-08 -3.5141756717e-08 1.2648019761e-07 
-2.543463721e-08 6.1211954649e-08 1.3035510886e-07 -1.014259299e-07 1.3915795704e-07 -4.8793310554e-08 -2.0512702815e-07 1.5772249283e-07 1.8605262923e-07 
-2.9919201475e-07 -1.3853467439e-08 -1.1461332857e-08 -8.7822645441e-07 -2.3249880921e-07 -6.9634522163e-07 1.7064178095e-07 -5.7648785803e-07 4.7827256154e-07 
-1.301319738e-06 9.4332981286e-07 -9.335444306e-07 -1.1493452465e-07 1.4787681191e-07 -1.1368653726e-07 4.7771590809e-07 5.149091922e-08 2.3190654408e-07 
-4.7306717784e-08 8.7714446786e-09 2.8829860742e-07 -5.7384042947e-08 -1.2751513751e-07 -8.5660900572e-08 1.2416879754e-07 -1.9213259284e-07 -2.2628451156e-07 
5.3353976954e-07 -1.6254552257e-07 -2.2470728229e-08 1.3431194898e-07 -2.3161548084e-07 -8.8547386791e-09 -5.7787976872e-07 1.3036701809e-07 1.1423049674e-07 
-1.1156614791e-08 -1.0888170734e-08 -9.0308048396e-08 -6.5766106017e-08 -8.257675413e-08 -2.5168293729e-08 -2.5683465152e-08 -1.3390527752e-07 -1.2792702746e-07 
-4.7640637543e-07 8.4388646383e-08 -1.2049738866e-07 9.0850972893e-09 4.5159121955e-08 -1.2102258951e-07 -2.2900753062e-07 -5.5555257385e-08 1.8006299322e-07 
2.0899412723e-07 -2.6331740205e-07 2.701196848e-08 -1.1020460364e-07 -2.7382147713e-07 2.7359456193e-07 1.0526987148e-07 8.2119240545e-08 -2.6547010907e-07 
7.4802145444e-08 -7.6777924681e-08 -2.1606202371e-07 -3.8995583777e-08 -1.641568466e-08 2.3457624721e-08 7.3952913806e-08 -2.2254628602e-07 4.4241701218e-09 
-9.1970562059e-07 8.7899632711e-07 -2.1040848946e-06 -4.3327997408e-07 3.8439302496e-07 -3.4663761706e-07 2.3624771242e-07 6.0870243519e-08 1.1238680894e-07 
-2.5318419455e-08 3.1466202557e-08 -5.1718632976e-08 -1.2472134348e-07 1.6543592069e-07 -1.934064265e-08 -1.6040579601e-07 -3.0432220902e-07 -5.8219018746e-08 
-1.6219838508e-07 2.7412882897e-08 -9.3643938848e-08 1.4153999507e-07 -3.4557216901e-07 6.1954485267e-08 2.0112542624e-07 -7.1169166545e-08 -4.2885016515e-07 
-3.5511213934e-08 2.2470006079e-07 5.4352264889e-08 5.866612637e-08 -1.9088255045e-07 -2.2309848853e-07 -1.3140628558e-07 -1.3504586099e-07 -4.8394002096e-08 
1.1192983527e-08 -5.2406854317e-08 1.452525674e-08 -1.7099163759e-07 -7.0012661203e-08 -9.6610002783e-08 7.7284446998e-07 -1.0597189703e-07 6.7196315723e-07 
2.7910186179e-07 -3.6912562289e-08 1.446766174e-07 
f 3 70 double
-0.00023549621849 0.00011707447427 9.5735334152e-05 0.00029804414233 0.00024020833697 0.00028589898119 7.3734481505e-05 -0.00015189206048 -0.00039414072418 
-5.5968642766e-05 1.9618149674e-05 0.00032840731727 -0.00051635069106 -6.1957808426e-05 0.00015101646427 0.00019198735139 0.00016270225472 -7.6836916298e-05 
-0.00012111961741 7.0354072363e-05 0.0001395671488 2.1311257369e-06 -9.4735546856e-05 0.0001145487588 -0.00030493150918 -0.00048739933446 -0.00034977219072 
6.0716767644e-05 -6.6997447817e-05 3.3305582293e-05 4.279021254e-05 0.00023367604205 -9.931680721e-05 -0.00010639763107 -0.00022612832891 -0.000430707991 
-1.6774356053e-06 6.8996062304e-05 -2.3659672337e-05 -0.00014838788086 0.00035232683663 -0.00022997735345 -2.3446773983e-05 -0.00017864255442 0.00014727283462 
0.0002495482539 0.00013052423317 -9.3994927791e-05 0.0002968901379 -0.00064462995569 0.00039925303378 0.00034740550504 7.4535845215e-05 -0.00012842375853 
9.0206852602e-05 -0.00022807819528 -0.00049963513456 2.3572940256e-05 -5.3367535551e-05 -4.438055729e-05 0.00010341528305 0.00042809094252 8.6288567686e-05 
-2.2368570144e-05 0.00033043628749 -0.00024231390532 0.00023233838017 -0.00011670011927 -0.00020837505097 -1.5373813589e-05 -1.6015265837e-05 -0.00016004823157 
-6.1102156298e-05 -0.00022630431953 1.148007087e-05 -0.00010240092501 -0.00024264171675 0.00013095642351 7.0477172383e-05 -6.83591214e-05 7.549764628e-05 
-1.9674083103e-05 2.2718411084e-05 -8.9977501305e-05 -7.0679043687e-05 7.9008952243e-06 -7.2034395588e-05 2.3162700405e-05 -5.0012340755e-05 8.125300392e-05 
-0.0001459589136 -0.00012288374578 -1.0875917275e-05 -0.00023095003047 -9.704637585e-05 -0.00044026775038 7.5182961611e-05 0.00013323025947 1.0424809105e-05 
6.041295324e-05 -9.5795375381e-05 -9.1318643313e-05 9.3346566635e-06 -6.8628130962e-05 6.1151519641e-05 -2.5526345698e-05 7.7383968125e-05 2.8980214842e-05 
-0.00029872093025 -5.5649153364e-05 -6.040874867e-06 0.00014790409484 0.00022307821003 0.00018534959447 -4.5332266172e-05 -7.6690108332e-06 -0.00014615795032 
-1.8934310276e-05 -0.00013495392167 -1.0229459538e-05 7.3614444152e-05 2.5875890323e-05 -1.3034356792e-05 6.2344509823e-05 -0.00010590870163 -2.91710131e-05 
0.0001211143783 8.102197219e-05 -5.6010947556e-05 2.7608574111e-06 3.449819277e-05 -2.74517005e-05 -7.8258606679e-05 -2.8711091812e-05 -3.9225765271e-05 
1.9133129443e-05 2.5230511087e-05 9.9553155171e-06 5.9248123358e-05 1.8597434356e-05 -3.9629048846e-05 -6.6821922261e-06 -1.2448633736e-05 5.7555848986e-06 
9.0139804236e-06 -9.7653743033e-05 -8.3291591654e-05 8.6264024709e-05 2.9453295476e-06 -2.8043069262e-05 -4.5662329349e-05 3.7469368627e-05 -4.6784137007e-05 
1.2218002647e-07 1.8942624185e-05 6.6507833083e-06 -0.00010425829401 7.2869883896e-05 -9.6162510679e-06 -4.6306567437e-05 0.00013492675189 -1.9724523081e-05 
2.5688859567e-05 -3.3711594533e-06 8.1160512477e-05 -0.0001150147643 5.2953609986e-05 7.9809528639e-05 -4.1629426175e-06 2.2842595871e-05 -3.9987189888e-05 
2.4877166464e-06 -5.0766552491e-06 6.9035877013e-06 -2.0626813627e-06 -2.1699918188e-05 -1.1325521054e-05 0.00011138190229 -9.2110156705e-07 2.3455451751e-06 
-8.170981066e-06 -2.2099718783e-05 7.4163929716e-05 -2.4323059494e-05 -2.9916996505e-06 9.1047445471e-06 -9.2684577426e-05 -0.00014406756123 7.2988100314e-05 
-7.2250401207e-05 6.9092212636e-05 2.4245300201e-05 8.8541306709e-06 -2.8840804333e-06 7.1781071651e-06 5.7457725817e-05 1.3719992999e-06 -2.6744651277e-05 
-1.9283239675e-05 -2.579180505e-05 -6.2566507642e-07 -6.9026283864e-05 -5.952722649e-06 -1.2893467972e-05 5.7973296427e-06 -3.041170586e-05 -5.711986892e-06 
2.7742225834e-05 -1.4427610503e-05 1.3826934684e-05 
radius 1 70 double
0.005 0.005 0.005 0.005 0.005 0.005 0.005 0.005 0.005 
0.005 0.005 0.005 0.005 0.005 0.005 0.005 0.005 0.005 
0.005 0.005 0.005 0.005 0.005 0.005 0.005 0.005 0.005 
0.005 0.005 0.005 0.005 0.005 0.005 0.005 0.005 0.005 
0.005 0.005 0.005 0.005 0.005 0.005 0.005 0.005 0.005 
0.005 0.005 0.005 0.005 0.005 0.005 0.005 0.005 0.005 
0.005 0.005 0.005 0.005 0.005 0.005 0.005 0.005 0.005 
0.005 0.005 0.005 0.005 0.005 0.005 0.005 
omega 3 70 double
1.2559501044e-05 -2.8224890837e-05 -3.9672088586e-05 5.2999693394e-05 -2.3673987342e-05 -4.747020526e-05 -5.931414843e-05 6.5345704649e-05 -3.3552728273e-05 
-0.00015940375362 0.00026824404911 -0.0001283569461 9.3319741788e-05 -9.5501254398e-05 0.0001390264635 -3.4818052644e-06 4.7728363802e-06 -5.7783125593e-05 
-5.9607258912e-06 1.2291777803e-05 6.0415396901e-05 -8.9423428761e-05 5.3152084856e-05 0.00011223933531 -0.00061906683587 0.0010105482737 0.00062880927313 
-0.00010512538814 0.0004070976555 0.00012848367233 -7.511697966e-05 -2.5465696788e-05 0.00018877268449 0.00021201839771 7.7566629382e-05 -0.0002973025189 
0.00039107274928 -0.00033830236626 -0.00028630196264 0.00067132107252 -0.00039942748875 -0.00044619234299 0.00022340064049 0.00030820849619 0.00024638759202 
8.3257802561e-05 0.00012671112869 6.400185329e-05 -7.6982311568e-05 0.00087858699779 0.00015889707471 3.1487579948e-05 0.00018357072507 0.00064168182919 
0.00045007700539 -0.00025148267515 8.5698968012e-05 -6.0316468009e-06 5.1559714126e-05 -1.2005738545e-05 -6.273299284e-05 0.00015826229073 0.00031831242259 
8.3568093836e-05 3.5408954054e-05 0.00016040553784 -1.6489375478e-05 -7.165840787e-05 0.0001812826627 -8.826381525e-05 -5.9021512285e-05 1.2625366519e-05 
5.4423255957e-05 1.9622460782e-05 0.00013549552526 4.8800026344e-05 0.00010228844648 -7.6154760189e-05 2.0479928741e-06 3.4671833745e-05 -1.6024448299e-05 
1.4727213137e-05 -4.2349490109e-05 -1.0767332351e-05 -2.9164340197e-05 -2.3357307459e-05 -1.4323759275e-05 1.8380343426e-05 9.5465976838e-05 0.00011740187875 
1.6839505813e-05 -5.9551845743e-05 -6.3994135515e-06 -9.0636449779e-05 0.00037388567951 -0.00010032372296 0.0001257187992 -0.00061291158017 0.00021526116144 
0.00040359364257 -0.00029081802664 -7.9894188941e-05 3.5630425883e-05 -1.9945690808e-05 -9.1965835786e-05 -0.00012559519485 1.2663115121e-05 -6.3156497473e-05 
-0.00016164839662 -1.0489483669e-05 -4.6818103984e-05 -1.1322838193e-05 2.4633107624e-05 -1.2067250555e-05 -7.390135056e-06 3.788846492e-06 -3.2161382799e-05 
7.8277738436e-05 3.1847309685e-05 -8.7565671931e-05 -3.8768283257e-05 3.9851513122e-05 4.0563088849e-05 0.0001551643784 0.00022515390831 -1.6507940337e-06 
9.5400148417e-05 3.6725171529e-05 -3.1320681807e-05 2.454682413e-05 3.957939198e-05 -5.36371022e-06 -6.488786601e-05 -3.9997711201e-05 4.4515731953e-05 
3.03485095e-05 0.00011188797429 9.0536229843e-05 2.0620949022e-05 -1.1070491916e-05 -2.1196491676e-05 -3.2785493926e-05 -2.2207865656e-05 1.9538255936e-06 
9.2816717443e-05 -8.8574563129e-05 -0.00011600066221 4.2204285306e-05 -0.00011040501282 -7.4186777728e-07 -1.3110521694e-05 -2.8619959473e-05 2.3908746702e-05 
-1.0488300579e-06 -1.392754592e-05 -1.9136195427e-05 4.7223669462e-05 -2.4584625625e-05 3.7216079986e-08 6.0580673876e-05 2.1427515362e-05 -2.7088115001e-05 
-0.00021204026071 0.00013780020061 -5.5945152765e-06 -8.2814058173e-05 -0.00027955346727 -0.00020945630392 -1.1144289426e-05 5.2368124553e-06 -2.2260750736e-06 
-2.9133414569e-05 -1.044374649e-05 -7.8260189988e-06 -2.2825469765e-05 1.0160796015e-05 1.819961706e-05 -3.7406918689e-05 4.9192991716e-05 -4.7936598751e-05 
1.89882638e-05 1.1085489325e-05 1.2991399336e-05 4.4475531746e-07 -7.2558622948e-05 -5.5346274006e-05 -1.8756125788e-05 -8.6948085459e-05 -6.0727116586e-05 
-1.0016942451e-05 1.9759830748e-05 -1.3484339227e-05 2.489866858e-05 5.6382890652e-05 1.6558382577e-05 2.3857989243e-05 8.5552805083e-06 -1.0645062188e-05 
-3.5521236256e-05 -5.6391893016e-06 -3.1108451414e-05 -3.2168058533e-05 -4.2985817428e-06 4.687601565e-06 2.2507394974e-05 -0.0002123635837 -8.8179187829e-05 
3.4543061222e-05 -1.0487931926e-06 3.0203504804e-05 
