# vtk DataFile Version 4.2
Generated by LIGGGHTS
ASCII
DATASET POLYDATA
POINTS 70 float
0.011458 -0.0368894 0.00699841 -0.0237987 -0.0238458 0.00699828 -0.00516481 -0.0202765 0.00953848 
0.0278627 -0.02114 0.0135785 0.023026 -0.0153724 0.00699754 -0.0253442 -0.00911914 0.0113725 
-0.0187623 -0.00161643 0.0107676 -0.00540944 -0.000824716 0.00699933 0.00451103 -0.00742071 0.00934092 
0.0159818 -0.000464035 0.0109253 0.0119742 0.00781068 0.00699762 0.0247776 0.00517839 0.00975106 
-0.0327819 0.0126215 0.0069988 -0.0248284 0.0178784 0.0100134 -0.000589598 0.0181854 0.0102347 
0.00562283 0.0112648 0.0139045 -0.0125073 0.0218876 0.00749386 0.00288379 0.0293428 0.00699796 
0.0229398 0.0220759 0.00705332 -0.000836467 -0.0222525 0.0217332 0.0205448 -0.00875774 0.0144139 
-0.00820979 0.00387818 0.0164057 -0.0114137 0.0133336 0.0169576 0.0101142 0.0160928 0.021567 
0.0225476 0.0106838 0.0232497 0.00574214 0.0299437 0.0204631 -0.0141535 -0.0327212 0.0297118 
-0.000932182 -0.0397253 0.0283782 -0.00426078 -0.0305304 0.0304677 -0.0203286 -0.0203268 0.0274441 
-0.0072165 -0.0181641 0.0282577 0.00504074 -0.0176017 0.0283519 0.0198329 -0.0173875 0.0279803 
0.0294058 -0.0112397 0.0311968 -0.00674149 -0.00769608 0.0261015 0.0291984 -0.00143279 0.0292523 
-0.0127278 0.004773 0.0347276 -0.00474827 0.00179297 0.0286246 0.0109786 0.0038891 0.0330457 
-0.0121381 0.0145033 0.0325012 0.0040476 0.0289294 0.0322748 0.0115002 0.0244725 0.0273159 
0.0295522 0.0215918 0.0316808 0.00282273 -0.0325029 0.0374723 -0.0125618 -0.0252657 0.0410813 
0.0107595 -0.0251496 0.0419062 -0.021684 -0.0136975 0.0449292 0.0029522 -0.0199709 0.0378389 
0.0380504 -0.0114134 0.036744 -0.0161153 -0.00371843 0.0393056 -0.000240214 -0.00253154 0.0366107 
0.0163071 -0.000789598 0.0443757 0.0206865 -0.00931639 0.0414085 -0.0315246 0.0014334 0.0398357 
-0.019353 0.021871 0.0395093 -0.00683304 0.0267618 0.0404403 0.0116872 0.0258019 0.0379173 
-0.00905111 -0.023454 0.0502674 0.0203047 -0.0299043 0.0510241 -0.0336378 -0.0136576 0.0531294 
0.0289081 -0.0133596 0.0475459 -0.028244 -0.00188303 0.0510304 -0.00557593 -0.00708132 0.0460094 
-0.020878 0.00686569 0.0466715 -0.0126157 0.00284003 0.0506104 -0.00207037 0.00309087 0.0461 
0.00616002 0.000137552 0.0517792 0.0273785 0.00968754 0.0508263 -0.00966158 0.0205184 0.0524103 
4.55738e-05 0.0204072 0.047115 
VERTICES 70 140
1 0 
1 1 
1 2 
1 3 
1 4 
1 5 
1 6 
1 7 
1 8 
1 9 
1 10 
1 11 
1 12 
1 13 
1 14 
1 15 
1 16 
1 17 
1 18 
1 19 
1 20 
1 21 
1 22 
1 23 
1 24 
1 25 
1 26 
1 27 
1 28 
1 29 
1 30 
1 31 
1 32 
1 33 
1 34 
1 35 
1 36 
1 37 
1 38 
1 39 
1 40 
1 41 
1 42 
1 43 
1 44 
1 45 
1 46 
1 47 
1 48 
1 49 
1 50 
1 51 
1 52 
1 53 
1 54 
1 55 
1 56 
1 57 
1 58 
1 59 
1 60 
1 61 
1 62 
1 63 
1 64 
1 65 
1 66 
1 67 
1 68 
1 69 

POINT_DATA 70
FIELD FieldData 7
id 1 70 int
44 732 1464 837 912 1986 1606 936 895 
1371 663 720 467 208 1438 1782 385 1157 
595 2267 398 2166 1751 2117 2149 1929 2782 
2509 2454 2873 2996 2710 2790 3102 2640 2566 
3057 2252 3510 3206 3209 3228 3475 3932 4179 
4006 4181 3841 3364 4052 3265 4362 4280 3857 
3770 3909 3724 5377 4989 4708 4482 5353 5397 
4796 5509 5103 5420 5050 5402 4610 
type 1 70 int
2 2 2 2 2 2 2 2 2 
2 2 2 2 2 2 2 2 2 
2 2 2 2 2 2 2 2 2 
2 2 2 2 2 2 2 2 2 
2 2 2 2 2 2 2 2 2 
2 2 2 2 2 2 2 2 2 
2 2 2 2 2 2 2 2 2 
2 2 2 2 2 2 2 
i 3 70 int
0 0 0 0 0 0 0 0 0 
0 0 0 0 0 0 0 0 0 
0 0 0 0 0 0 0 0 0 
0 0 0 0 0 0 0 0 0 
0 0 0 0 0 0 0 0 0 
0 0 0 0 0 0 0 0 0 
0 0 0 0 0 0 0 0 0 
0 0 0 0 0 0 0 0 0 
0 0 0 0 0 0 0 0 0 
0 0 0 0 0 0 0 0 0 
0 0 0 0 0 0 0 0 0 
0 0 0 0 0 0 0 0 0 
0 0 0 0 0 0 0 0 0 
0 0 0 0 0 0 0 0 0 
0 0 0 0 0 0 0 0 0 
0 0 0 0 0 0 0 0 0 
0 0 0 0 0 0 0 0 0 
0 0 0 0 0 0 0 0 0 
0 0 0 0 0 0 0 0 0 
0 0 0 0 0 0 0 0 0 
0 0 0 0 0 0 0 0 0 
0 0 0 0 0 0 0 0 0 
0 0 0 0 0 0 0 0 0 
0 0 0 
v 3 70 double
0.00020914468937 8.4024697563e-05 -3.7433824781e-05 0.00016376991631 0.00010571893145 -2.5422363013e-05 0.00010944658976 0.00012567435644 -0.00015131318936 
-8.9782059299e-05 -0.00018766240561 1.4953373809e-05 2.9436654069e-06 -8.7384271027e-05 1.1087761466e-05 0.00013160741788 4.7645728878e-05 -0.00011625255457 
0.00011828398791 6.2642424816e-05 -9.0045389285e-05 3.3891414623e-06 0.00011344646409 -6.6089278591e-05 2.5412415429e-06 0.00016547314703 -5.7750813642e-05 
-8.9730678374e-05 6.0376307003e-05 4.3288318466e-06 -0.00010315074206 0.0001014384754 4.314779639e-06 -0.00014831996434 6.2561071719e-05 4.2549578852e-05 
1.9477111612e-05 -5.7574635626e-05 7.7971508582e-05 2.0903455466e-05 -5.9463101125e-05 5.936053306e-05 -5.7911136822e-05 8.0583978968e-05 -2.2362662163e-05 
-9.4061112925e-05 9.4831169985e-05 -4.1835626966e-05 -5.4969328234e-06 2.0352866908e-05 -7.7513784564e-05 -9.3017258782e-05 4.9400984936e-05 4.4511260097e-05 
-0.00017303793306 0.00018722256784 2.6339397643e-05 2.721098537e-05 1.2576212111e-05 -0.0001629338185 -2.7319927889e-05 -6.8967952414e-05 2.6271960073e-05 
-1.9962546627e-05 4.3768003257e-05 -0.00010363653283 -6.8846138381e-05 -9.1747915665e-06 -6.2380147655e-05 -0.00011917736148 8.386910018e-05 9.8639358115e-06 
-0.0001614897814 2.1929426771e-05 4.5516112884e-05 -0.00014002459292 4.1977954863e-05 0.00012929481822 0.00013161016998 -5.2060885823e-05 -0.00014762633824 
3.2996375289e-05 -3.4510258335e-05 -6.3787656337e-05 0.00010650149629 -4.13239914e-05 -4.6482820228e-05 0.00017023682489 -9.9028612232e-05 -0.00021094156246 
0.00015118028307 2.0398405223e-05 -0.00025576113137 9.4848807282e-06 -4.4158784414e-05 -4.5390382858e-05 -5.9641837619e-05 -0.00015457284909 7.8424303971e-05 
-6.2820164491e-05 -0.00025088609087 0.00014079177266 3.0985402476e-05 2.6326062514e-05 -0.00014174348684 -2.7893519595e-05 -0.00022358391389 4.951954512e-05 
2.7257236054e-05 -0.00010729668599 7.8323211386e-06 -1.8984132055e-05 -3.5678549545e-05 -0.00017402850464 -3.4610349262e-05 -5.4436688527e-05 3.1669551046e-05 
-0.00021705673776 -8.5393989081e-05 8.3290328276e-05 -0.00014695339601 -4.4882731026e-05 6.1776209529e-05 -9.7565009199e-05 4.1886844431e-05 8.3077098824e-05 
-9.7519546519e-05 -1.2365389496e-05 4.2392801686e-05 -1.0383230354e-05 -8.4340931729e-05 -2.670255875e-05 0.00013886592908 -0.00015121208199 -0.00023825579084 
-3.6160726579e-05 -8.2738732269e-05 -0.00012884629193 8.7702071316e-05 -0.00036574887055 -5.0190926103e-05 0.00014221812368 -6.9924186892e-05 6.7540743075e-05 
6.7793808923e-06 -0.00034712329602 0.00029049263343 6.5940482429e-05 -0.0001153654389 -6.5861730294e-05 8.7195833138e-05 -0.00012949792935 -8.3713269248e-05 
0.000140713382 -0.00013007746261 -3.4559306626e-05 1.5764451975e-05 -0.00032740240944 7.100394429e-05 -2.3027420336e-05 -0.00017356873756 0.00014013076079 
-0.00019221507404 -0.00020336666697 0.00031293254143 -0.00023164213064 -0.00013230675176 0.00019657508651 -0.00012496892033 -5.9918330382e-06 9.3584042753e-05 
0.00040786880593 -0.00011813508889 -6.8255147973e-05 -0.00019435386854 -0.00023881193801 0.00010660328228 0.00063598334178 -2.8710758111e-05 -0.00038918073715 
-9.710432205e-05 -0.00024623150823 0.00028643431067 1.72448787e-05 -0.00064918456518 -6.5542889134e-05 6.2652623834e-05 -9.7906404866e-05 -8.7165638117e-05 
0.00013570440076 -0.00037589446912 0.00012730344707 -1.3127485829e-05 -0.00027990228874 0.00011842793542 -4.6169639269e-06 -0.00017773620885 0.0001455648746 
2.9315065477e-05 -0.00022306786265 0.00010823289502 4.3756623131e-06 -0.00026777695605 -0.00011064198561 7.4756760569e-05 -0.00019743118725 0.0002694935877 
-5.2897463e-05 -0.000188340566 0.00029372046135 
f 3 70 double
0.00038527267286 0.00052940772506 0.0004451485229 5.246259886e-05 -0.00038311021858 0.0015159863984 -0.0016918451331 7.7528249715e-05 0.00043662370818 
-0.00036463125059 0.00058092742787 4.7950469312e-05 -2.1213688685e-05 0.0016169090949 -8.2383734844e-05 -7.6106699079e-05 0.0010311883779 0.0019562510608 
0.00052208118813 0.00039536167178 0.00084012154448 0.0020928938047 0.0011300186944 -0.00054478352766 0.00029240379508 0.00098929318629 -0.00039564778783 
-9.4286577591e-05 0.0017767700962 -0.00065369342185 0.0016783661002 0.0017748928836 -0.00064257915974 0.00017720108551 0.002621682717 -0.00064898411201 
0.00049721091562 -0.00039195391577 0.001343977988 0.0022846916399 0.0007865611694 0.00013112135921 0.0018671709267 0.0012102176066 -0.00022918992969 
0.0010561605274 0.0023581621715 -0.0001651439229 0.0016054298465 0.001053720978 -0.00021377106144 0.0021478105153 0.0014699823212 -0.0005335360659 
0.00037781728671 0.0014786026909 -0.0013138585567 0.00047363738838 0.00076963002281 0.00042289317854 -0.00099252837353 0.0022330376725 -0.0003577644137 
0.00032553446853 -0.00036906107502 -0.00013352423596 0.0010660279878 -0.00066439328959 -0.00056985940641 0.00099140207359 0.0014877372408 -0.00052218505242 
0.00041519684821 0.0026725607833 -0.0010788403466 0.00076101764743 0.00018111617026 0.0011853192035 0.00015300395541 0.0005430011418 -0.0026676324855 
0.0013927311392 -0.00062259770137 0.0004823803506 0.0011628917678 -0.0011025738425 -0.00095278014807 -0.0027485090621 0.00079518069448 -0.00088776720444 
0.0031980461469 -0.0001818836118 -0.0032559020636 0.0017740442798 4.9442210327e-05 0.00060155885895 -0.0006313619282 0.0018461390323 -0.0008391913675 
0.00036172361593 0.00082434238519 0.00047151170664 0.0017826800984 0.00036797867632 -0.00037988292817 0.00037657451351 0.0014066946184 -0.00072078241701 
-0.00067870102725 -0.00073963180176 -0.00082089228474 0.00043233431684 -0.00039252206952 -0.0016514519793 -0.00027861182559 0.00064533382911 -0.0015295304925 
0.00039483285447 0.00061567441538 -0.001793393349 0.0020942509608 -0.00094099494751 -0.0020768415832 0.00072089206046 -0.00039952087593 0.00010203741079 
0.0015813869078 0.0015387070073 -0.0013067004284 0.00096429068772 0.0012769755317 0.00078137568146 -0.0020565116749 -0.0088290543354 0.00089238349124 
0.00028999110545 0.0001574846654 0.0014884728105 -0.003984755293 0.00050856193942 0.007879978709 0.00061447694851 0.00014401008622 -0.0002755331517 
-0.0018944607819 -0.00032253183927 -8.261816965e-05 -0.00047254926421 -0.0021048907859 -0.00089499882864 0.0021528484443 0.00048974575607 -0.001813947095 
-0.00064446590597 -0.0018374396184 -0.0040913927429 -0.0022040496233 -0.0035331513909 -0.00023806518329 -0.0015366371787 -0.0042218650982 -0.002726882 
0.00067104627792 -0.0021633504765 -0.0038370105928 0.0025693680301 -0.00011273727765 -0.0015403944752 0.00012087033604 8.9168045084e-05 -0.00062206751692 
-0.0049978694148 -0.0044128149101 0.001520570506 0.0028290852621 0.00073369237958 -0.0095828990171 -0.0051743098684 -0.003714858196 0.002223684591 
-0.0033765815016 -0.0018813563638 -1.3665159816e-05 0.00072272000561 0.00096348330096 0.0022681199862 -0.0025429689386 -0.002650869142 0.0017270353917 
-0.0013082394548 0.00013836454475 -0.00041552507633 0.0018114600706 -0.0011022405188 0.0018165006578 0.00065393007796 0.00060458053526 -0.00078559818839 
0.0018298157379 0.00020378321389 -0.00034055889431 0.0013264344348 0.00025576183492 -0.00075339660739 0.00096185204994 -0.002696568897 -0.0010276529909 
0.00017801879753 -0.0020356624665 -0.00086987735445 
radius 1 70 double
0.005 0.005 0.005 0.005 0.005 0.005 0.005 0.005 0.005 
0.005 0.005 0.005 0.005 0.005 0.005 0.005 0.005 0.005 
0.005 0.005 0.005 0.005 0.005 0.005 0.005 0.005 0.005 
0.005 0.005 0.005 0.005 0.005 0.005 0.005 0.005 0.005 
0.005 0.005 0.005 0.005 0.005 0.005 0.005 0.005 0.005 
0.005 0.005 0.005 0.005 0.005 0.005 0.005 0.005 0.005 
0.005 0.005 0.005 0.005 0.005 0.005 0.005 0.005 0.005 
0.005 0.005 0.005 0.005 0.005 0.005 0.005 
omega 3 70 double
0.00038991272141 0.00040770317729 0.0076757222813 -8.9541044527e-05 0.00029290541164 -0.0038283824948 0.0034644911212 -0.0038735036592 0.0042526391802 
0.004260592241 -0.015071913168 -0.0019698806751 -0.00021374818412 -0.00096003045022 -0.014015540718 0.004920293022 -0.001515673529 -0.00014746952816 
0.0048565067106 -0.0020219809574 0.00090190621816 -3.1701403083e-05 -0.00058198925067 0.002670789605 0.0038277493166 -0.0018058492886 0.00092958677583 
0.00093046393006 -0.002426600497 0.0045914152832 -3.6517955816e-05 5.5387563832e-05 0.003251128451 0.0019205966088 -0.0024440686731 0.00081783909121 
-8.0224139486e-05 -0.0018381737296 0.00032613526294 0.0089139927195 0.0007068807065 0.00089749270903 0.00040317657164 -0.0015943111335 0.0012902868713 
-5.7709950022e-05 -0.0018824806529 -0.00013296953231 0.0077513567865 -0.0060476030915 0.010957291949 -0.00041132997428 -0.0007097805465 0.0026311739556 
-0.0011892930284 -0.00023373978534 0.0011132230771 0.0019131271245 -0.0045536083672 -0.0041542287189 -0.00019310612427 -0.0050430326915 -0.004094166573 
0.0036814183583 -0.0039677133786 0.0053082973017 0.0043564987907 -0.0082091167266 0.0065828678282 0.0050027622738 -0.0010649395108 -6.6142547319e-05 
0.0057934548162 0.0067595234917 -0.00019569198282 0.0043094706682 0.00027652012143 0.0064414231479 0.0019358815909 -0.006359227921 0.0086230775525 
0.0015649197464 -0.0052130871581 -0.0032035103668 0.0065078632028 -0.00058458431984 -0.006025550361 0.0025324463325 -0.0007832645179 0.0038479275214 
-0.0041654490033 -0.00018617152949 0.00091258254381 0.00065067417266 -0.004185636843 -0.007029330207 0.0024970654321 -0.007422685561 -0.0083925347641 
-0.0045096479931 -0.00036555511741 -0.0073914381203 0.0082129967622 0.0044013257494 0.0038002480385 0.00011283327284 0.0020915284856 -0.0041824142634 
0.0097352444631 0.010265934541 0.018446583399 -0.0021753309628 0.0049991259377 0.0016497382196 0.0015144189594 0.001309145495 -0.0045513564021 
0.0091829342872 0.012706366414 0.017508943631 0.0062552584916 -0.0010474297133 0.0069592391291 0.0058984203003 -0.00033907369035 0.0054580248591 
0.010074946214 0.0063836155887 -0.00057010764599 0.0074704920262 -0.0016624819697 -0.0035447140619 -0.043636835683 -0.022031516766 -0.00549180031 
0.010739249602 0.031085120212 0.0030282872937 0.03144814053 0.06582768589 0.031822235173 -0.00027164568883 -0.0036679127116 -0.0070803238956 
-0.012306779861 -0.0047493500415 -0.011133346091 0.030122833434 0.018070205441 0.0056413286474 0.0010504936418 0.00048091747296 -0.0054259872207 
0.020544438227 0.025388914426 0.015631810287 0.0091873050112 -0.0045742455157 0.00087168051475 0.043832430838 0.020435802461 0.00011349781637 
0.0057015054718 0.0095734575376 0.011389181658 0.0033487926048 0.011426183504 0.007300144572 -0.00098608705814 0.0036144647283 -0.00085951182147 
-0.03085886746 0.02520452934 0.011564048518 -0.0092473330437 -0.018799046335 0.0038030888895 -0.055470121814 0.10117580216 0.07194159857 
-0.012633279767 -0.020875196824 0.0040603793409 0.05100969291 0.00021277828729 -0.037710212943 -0.019618595556 -0.02561422736 0.0055867977706 
0.013494296677 -0.0088831037986 0.0011046316031 0.024439300759 -0.016621800473 0.0028502322853 0.036359342413 0.015771706532 0.015974102535 
0.0011237657702 -0.0079189074501 0.011741302917 -0.0021664980322 0.019000774309 -0.0031062508246 -0.013420744867 0.030810804698 0.0010064735987 
0.0063237343615 -0.0034988555345 0.0089156098784 
