# vtk DataFile Version 4.2
Generated by LIGGGHTS
ASCII
DATASET POLYDATA
POINTS 70 float
0.00696047 -0.0174251 0.0114368 -0.0192184 -0.0104489 0.0105012 -0.0125048 -0.014176 0.00946293 
-0.00240739 -0.0102269 0.0079989 0.00146532 -0.0153718 0.0126934 -0.0143167 -0.00675088 0.0111671 
-0.0131127 -0.00140688 0.00817826 -0.00712998 -0.0038408 0.00821016 0.00833482 -0.0081712 0.00799943 
0.0110092 -0.00308481 0.0129903 -0.0218543 0.0011226 0.0109011 -0.016314 0.00418938 0.00805497 
-0.00817104 0.00259575 0.0112883 0.00185508 0.00661057 0.00954579 -0.0167392 0.0118222 0.00817565 
-0.00532192 0.00835995 0.00799921 -0.00530226 0.0138131 0.0105009 0.0031731 0.0125712 0.0121897 
0.0105578 0.0117917 0.00800294 -0.00255092 0.0216019 0.0094109 0.00349402 0.0205807 0.00939647 
-0.00877748 -0.0200296 0.0204726 0.000521709 -0.0180313 0.0199711 0.00771995 -0.0205391 0.0212153 
0.0124292 -0.018023 0.0146369 -0.0097184 -0.0156748 0.0164499 -0.0153743 -0.010106 0.0168525 
-0.00785351 -0.0103841 0.0143222 0.00295628 -0.0109815 0.0191785 0.0152421 -0.0113564 0.0153897 
0.0133152 -0.0150042 0.0197456 0.00982655 -0.00878531 0.0156263 -0.0180062 -3.26084e-05 0.0156502 
-0.00106793 -0.00409069 0.016912 0.00247597 -0.00759639 0.0135734 0.00730723 -0.00467095 0.0194053 
-0.0122346 0.00398817 0.0194327 -0.00278898 0.00450753 0.013584 0.00175317 0.000554394 0.0196274 
0.00235522 0.000305956 0.0136563 0.0122812 0.00390356 0.02038 0.018487 0.000153771 0.0155508 
-0.0143851 0.0135074 0.017155 -0.00764623 0.0142644 0.0160053 -0.00112735 0.0099607 0.0157452 
0.00965246 0.0159168 0.0198419 -0.00720649 0.020145 0.0193883 0.00175509 0.02121 0.0177039 
0.00280627 -0.0206515 0.0248611 -0.00611905 -0.0155087 0.0234281 0.00624275 -0.0125854 0.0279409 
0.0136298 -0.00876383 0.0225005 -0.0137818 -0.00724763 0.025069 -0.00687691 -0.00565418 0.0219891 
-0.000754937 -0.00603159 0.0236165 -0.000233138 -0.0011508 0.0289377 0.016086 -0.00148028 0.0241674 
-0.0160767 0.000114604 0.0248693 -0.0132626 0.00790171 0.0262578 -0.0111113 0.00069076 0.0293953 
-0.00193767 0.00353789 0.0256046 0.00705986 0.00234878 0.027724 0.0216935 0.000653029 0.0252339 
-0.00433504 0.00964249 0.0275227 0.00712589 0.00860437 0.0252607 0.0018367 0.013545 0.0250941 
0.0125343 0.0159011 0.0251041 0.0196012 0.00965629 0.0242485 -0.0117129 0.0177373 0.0264443 
0.017653 0.000357567 0.0296594 
VERTICES 70 140
1 0 
1 1 
1 2 
1 3 
1 4 
1 5 
1 6 
1 7 
1 8 
1 9 
1 10 
1 11 
1 12 
1 13 
1 14 
1 15 
1 16 
1 17 
1 18 
1 19 
1 20 
1 21 
1 22 
1 23 
1 24 
1 25 
1 26 
1 27 
1 28 
1 29 
1 30 
1 31 
1 32 
1 33 
1 34 
1 35 
1 36 
1 37 
1 38 
1 39 
1 40 
1 41 
1 42 
1 43 
1 44 
1 45 
1 46 
1 47 
1 48 
1 49 
1 50 
1 51 
1 52 
1 53 
1 54 
1 55 
1 56 
1 57 
1 58 
1 59 
1 60 
1 61 
1 62 
1 63 
1 64 
1 65 
1 66 
1 67 
1 68 
1 69 

POINT_DATA 70
FIELD FieldData 7
id 1 70 int
2132 1617 1943 901 2726 942 209 1166 44 
596 1762 665 736 1796 385 914 842 2268 
398 1380 1477 3936 3793 3015 2526 2469 1446 
2582 3959 2282 3230 2654 2163 2182 724 3387 
3532 2813 3117 1999 3884 468 3295 3233 2889 
3250 2801 3076 3867 4035 5438 4085 5024 3500 
3755 5417 4507 4832 4394 5432 4735 5455 5080 
5388 4210 4318 4213 4635 5141 5547 
type 1 70 int
2 2 2 2 2 2 2 2 2 
2 2 2 2 2 2 2 2 2 
2 2 2 2 2 2 2 2 2 
2 2 2 2 2 2 2 2 2 
2 2 2 2 2 2 2 2 2 
2 2 2 2 2 2 2 2 2 
2 2 2 2 2 2 2 2 2 
2 2 2 2 2 2 2 
i 3 70 int
0 0 0 0 0 0 0 0 0 
0 0 0 0 0 0 0 0 0 
0 0 0 0 0 0 0 0 0 
0 0 0 0 0 0 0 0 0 
0 0 0 0 0 0 0 0 0 
0 0 0 0 0 0 0 0 0 
0 0 0 0 0 0 0 0 0 
0 0 0 0 0 0 0 0 0 
0 0 0 0 0 0 0 0 0 
0 0 0 0 0 0 0 0 0 
0 0 0 0 0 0 0 0 0 
0 0 0 0 0 0 0 0 0 
0 0 0 0 0 0 0 0 0 
0 0 0 0 0 0 0 0 0 
0 0 0 0 0 0 0 0 0 
0 0 0 0 0 0 0 0 0 
0 0 0 0 0 0 0 0 0 
0 0 0 0 0 0 0 0 0 
0 0 0 0 0 0 0 0 0 
0 0 0 0 0 0 0 0 0 
0 0 0 0 0 0 0 0 0 
0 0 0 0 0 0 0 0 0 
0 0 0 0 0 0 0 0 0 
0 0 0 
v 3 70 double
2.9478645747e-06 4.8512120946e-07 1.6988700319e-08 -3.0003743253e-07 -9.9070962041e-07 -4.0582729084e-07 -3.9128541712e-08 1.3975965298e-07 -7.576512573e-07 
-1.0366918129e-06 -6.980482667e-08 -4.1029965544e-07 -8.6956371794e-07 -2.665973982e-07 -1.507909171e-07 2.9397362028e-07 -2.9723841177e-07 -2.0287691108e-07 
-6.0954769227e-06 4.2740230279e-06 -1.3234254654e-06 -5.3128235595e-06 1.6654814149e-06 3.8915423912e-06 7.290758303e-07 -1.4475491909e-06 1.3215784511e-06 
-1.650218857e-06 1.2426492295e-06 9.1557137685e-08 3.5138805672e-07 6.6337615235e-07 -8.5378483389e-07 -2.3724454378e-06 2.3889346558e-06 -3.3543272419e-06 
1.1531619801e-07 -4.8596112855e-07 -4.8527596541e-07 3.0588157418e-07 -9.2241683065e-07 1.2533837568e-06 -2.5305013503e-06 5.9534981311e-07 -1.4487786292e-06 
-1.0982011127e-06 -5.1038292871e-07 2.0114099431e-06 1.7304318205e-08 -1.9143156816e-07 8.6532153733e-07 -2.6807744495e-07 -4.3835441977e-07 2.8558077423e-08 
-4.758599933e-07 -8.338889387e-08 9.5146613259e-08 3.3303489517e-07 -1.3770022482e-07 7.216096896e-08 -3.1630465324e-07 -1.048408349e-07 2.8032240362e-07 
2.1106861104e-07 2.2028553807e-07 3.6037891643e-07 1.5627452615e-06 -4.1123273558e-07 -4.7121448685e-07 4.3439310882e-07 1.4480904859e-07 1.9566702367e-07 
1.7526505065e-07 -1.9952269734e-07 2.9564206957e-07 -4.9090559399e-07 3.8807349688e-08 9.9441912875e-08 4.0948953663e-07 6.7904929429e-07 -1.1446879923e-07 
-2.6963279921e-07 9.2322661835e-08 3.9317690945e-07 -5.4466882939e-07 -2.4094351705e-07 2.9367378259e-07 8.1586347591e-07 9.0650567083e-07 8.0330616111e-07 
-1.4982264457e-07 1.744151294e-07 2.3375766642e-07 3.2685110495e-07 1.1774763033e-06 5.0814824218e-07 -9.5811605185e-07 -1.7798291862e-07 7.0418672356e-07 
-1.336525902e-06 8.9459321863e-07 9.631472692e-08 -6.5243400596e-07 -6.0690152537e-07 -8.8533221197e-07 9.6377170718e-07 -2.2280266852e-06 -6.0578186761e-07 
-4.1341144076e-07 -1.6859158356e-07 -2.2464408971e-07 2.3507718317e-07 1.0533710283e-06 2.1467634347e-06 -3.6275938636e-08 -3.8176844942e-07 3.0519986716e-07 
-2.7419399629e-07 -8.906476406e-07 5.5786998032e-07 -1.4811773629e-06 -7.5763089463e-07 1.7987444849e-07 5.6024146689e-07 1.5140785167e-08 1.1260541923e-06 
3.6917570288e-07 -1.1391213671e-06 -1.0040889123e-06 -6.0716302982e-07 -7.1569063373e-08 6.3630610134e-07 2.6092500709e-07 -6.318927151e-07 7.477619069e-08 
-1.6885543726e-07 -7.2153517203e-08 3.5830252238e-07 1.5516456015e-07 1.0400454869e-07 1.7660912993e-08 7.6110260182e-07 2.6382222162e-07 -8.8493611345e-08 
1.7279587159e-07 1.666389096e-07 2.3668199804e-07 2.1606087475e-07 -8.9928481134e-07 2.3298619101e-07 3.759363005e-07 3.6922353916e-07 7.7869137118e-08 
1.132089623e-07 4.1010570431e-08 -1.2959087896e-07 -1.7487742058e-08 2.3290970406e-07 9.0480343864e-08 -2.4278898154e-07 -3.4503547225e-08 4.7057529192e-07 
2.2155977129e-07 3.1992511323e-08 1.0174656229e-07 -7.5278458186e-08 -2.275282158e-07 2.2749476687e-07 2.3041968954e-07 -7.3595063363e-08 -1.8007873901e-07 
3.7724980019e-07 2.3109392764e-07 1.6817475636e-07 4.4635187528e-08 -1.0290877745e-07 -2.7529450284e-07 3.2619990756e-07 -7.2675976057e-07 1.0082628218e-07 
-3.4799954162e-07 1.192889666e-07 4.1809094003e-07 2.0179577482e-07 -1.052441013e-07 -2.2704012347e-07 1.0933343069e-07 -2.0890206303e-08 -2.989383228e-07 
-8.2870163904e-08 -4.4035602935e-07 -2.6186545814e-07 -6.1143642398e-07 -4.3875495242e-07 -4.7414828634e-07 -3.8886681004e-07 5.154733522e-07 -4.9953691502e-07 
-2.6806550885e-07 -4.7950882988e-07 -2.6791517579e-07 -7.540795127e-08 -1.581010267e-07 4.7937642175e-07 2.7754745353e-07 4.4450220233e-07 1.1703900677e-07 
1.9791460086e-07 1.0150348955e-07 8.2418244263e-08 
f 3 70 double
4.7855528139e-05 7.2113151834e-05 -8.4248996531e-05 -7.1556192107e-05 -7.0660531965e-05 -6.2540405938e-05 -2.8829278365e-06 1.5177036224e-05 9.8569034628e-06 
4.7156040145e-06 0.0001361706352 -5.7888914046e-05 -3.2874648213e-05 -5.7374229778e-05 2.4940232132e-06 0.00010724133448 0.00010744476146 -9.5124181204e-06 
-0.00018132011753 7.2815360089e-05 -0.0001905973741 -0.0001925878249 0.00010467693543 0.00027284246084 3.2024751402e-06 -1.3363813392e-05 1.0535762545e-05 
1.7638348066e-06 1.875433968e-05 3.5751598338e-05 -4.4373755212e-05 3.4453351769e-05 -6.6029054351e-05 -1.0328500178e-05 7.0649768017e-05 -7.7572869744e-05 
-1.266954899e-05 2.4476652654e-06 -1.7146157162e-05 7.5254202688e-05 -2.3660618801e-05 -2.0649508447e-05 8.4652567428e-05 -3.0877131264e-05 -6.4588017544e-05 
7.2643888149e-05 -4.5795990034e-05 4.4268759015e-05 6.6921439337e-06 6.0250306104e-05 -2.7089815987e-05 5.7982562198e-06 -1.8040594746e-07 2.4729963783e-05 
-7.2409542052e-05 1.5241373465e-05 8.199710402e-05 -4.6288592021e-05 -4.5932723867e-05 -5.2028709367e-05 7.1612075955e-06 1.4552328396e-07 -1.6825149663e-05 
-2.1369442292e-05 -1.106138697e-05 1.0501363691e-05 -3.1240391093e-05 3.8272697355e-05 -1.9351453316e-06 -7.8951736456e-06 -6.2770122067e-06 7.063904544e-06 
4.3139930066e-05 -1.320362788e-06 2.3694315784e-05 6.629265401e-05 -1.1238964373e-05 2.8358012175e-05 6.5299483424e-06 4.7601866309e-06 1.6426215582e-06 
-0.00010868106356 3.7772165039e-05 -6.9162837651e-06 -2.064473996e-06 -1.7892678308e-05 -9.79440534e-06 -2.8318586174e-05 -2.2292033877e-05 1.3528693714e-05 
8.1301084384e-06 -3.8339109616e-05 3.9580450576e-05 4.8496077589e-05 4.6140609672e-05 4.2641133598e-05 -1.6078279461e-05 -6.5459283612e-06 4.5159582849e-06 
4.2565156233e-06 3.3579747938e-05 6.1688458774e-05 -1.2711110459e-05 -2.4611904125e-05 -7.3690342898e-05 -1.0290301582e-05 2.4601479219e-05 3.9101465827e-05 
-1.5744838171e-05 9.6968986681e-06 -3.5329205555e-06 -6.1018804896e-05 -8.1409001529e-07 0.00013941157633 -5.3289826938e-05 3.0553359424e-05 -8.4089651742e-05 
-1.7006347686e-05 1.6528324189e-05 -8.1021683863e-06 -1.5676307527e-05 3.1002881487e-05 2.0020467436e-05 -0.00012574624612 -3.1345443036e-05 -1.1526679225e-05 
-7.044862998e-05 2.1777634507e-06 2.2166326281e-06 3.2663195917e-06 1.1081664036e-05 1.9700305628e-05 1.4729539913e-05 3.8562015904e-05 -2.5160962608e-05 
4.3572011179e-05 2.7554119946e-05 1.3250890193e-05 -1.0094657659e-05 1.1140244064e-05 8.9227887254e-06 -3.4105291035e-05 -6.1192919387e-05 1.3578392176e-05 
-7.7994881744e-06 4.2554641236e-05 2.0950646923e-06 -2.9286559838e-05 1.0203252545e-05 -4.5380284771e-07 9.0967331853e-06 4.5053518369e-06 -1.8260810907e-06 
-9.2140405525e-07 -6.5146916052e-05 2.3731279719e-05 2.6698776779e-06 -5.946058749e-06 -8.3574099057e-06 -3.1035088405e-05 -4.5763071461e-05 -4.181563915e-05 
-1.0837369999e-05 -4.6507678441e-05 1.521774087e-05 5.5904367254e-06 -5.1855448215e-07 -1.0894046185e-06 8.5123443271e-06 -1.5452238598e-05 1.5786539856e-05 
-5.5530468036e-05 -6.8598603028e-07 -1.9354080195e-05 -2.1194756232e-05 1.6245067365e-05 -1.974306399e-05 2.3576358623e-06 -9.5012100082e-06 -6.3225740924e-06 
5.6218945983e-06 5.3296339341e-06 -2.5944289284e-05 -5.2656877085e-06 9.0462666049e-06 4.9831244498e-06 -8.2575116531e-06 1.2498524967e-05 -8.030399265e-06 
9.5761795078e-06 -3.9296603774e-06 1.1011268643e-05 1.6232888166e-05 1.0630444174e-05 1.2101097819e-05 -1.2047524834e-05 4.5153718389e-06 1.2020944215e-05 
2.0417513064e-06 -2.6951674104e-05 1.6769365421e-05 -1.6934201852e-05 4.130099036e-07 2.6060492555e-05 9.5625479948e-06 1.0371539663e-05 -1.8026915721e-06 
-6.1569665424e-07 -4.6874402208e-06 -4.2096508625e-06 
radius 1 70 double
0.003 0.003 0.003 0.003 0.003 0.003 0.003 0.003 0.003 
0.003 0.003 0.003 0.003 0.003 0.003 0.003 0.003 0.003 
0.003 0.003 0.003 0.003 0.003 0.003 0.003 0.003 0.003 
0.003 0.003 0.003 0.003 0.003 0.003 0.003 0.003 0.003 
0.003 0.003 0.003 0.003 0.003 0.003 0.003 0.003 0.003 
0.003 0.003 0.003 0.003 0.003 0.003 0.003 0.003 0.003 
0.003 0.003 0.003 0.003 0.003 0.003 0.003 0.003 0.003 
0.003 0.003 0.003 0.003 0.003 0.003 0.003 
omega 3 70 double
0.00069939934773 -0.00070792635314 0.00065265904509 -0.00062786758913 0.00033116464305 -0.00073208319194 -4.6177110373e-06 -8.296354172e-05 0.00024480213679 
0.00080286472678 -0.00021749149701 0.00090330920321 0.00021574183022 -0.00074286541353 0.00033288431794 0.00049300845561 0.00016845585729 0.00020030152154 
0.0050329459792 0.0060912376285 -0.0029377460396 0.00087171167701 0.0044045658169 -0.00082314083375 -0.0013477907936 -0.00080628895884 -0.00059192423351 
-0.0013040468425 -0.00088406812225 -0.00073914309518 -0.00010973354348 -0.00049460385002 -0.00033083830453 0.0036969594258 0.0016619934973 -0.0012512958798 
-2.4854175633e-05 0.00020243266536 -0.00016997225715 4.8873357524e-05 0.00076125348778 9.4422272594e-05 -0.00048552114262 0.0021581344292 0.0016910155674 
0.00079123801708 0.0002808619744 -0.00010675565196 0.00065978853205 0.00014121261264 -0.00038794990066 -6.2196114362e-05 -0.00014865553228 0.00025729229838 
-0.00017318162688 -0.00027785981383 0.00062694063254 0.00022646371443 0.00013286909848 -1.5548034371e-05 -0.00034011830319 0.00025787505123 -0.00030823473219 
-2.4689463915e-06 0.00027349260611 -0.00010596981608 -0.00089556527652 -0.00023212710893 -0.0010770222239 2.3258013996e-05 -9.5425158242e-07 1.8071551546e-05 
0.00017384655085 -0.00035687546234 -0.00017790721012 -2.6725749354e-05 -0.00030006158878 0.00026428041881 0.00026938979683 0.00022595122215 0.00045946652514 
0.00041749751487 0.00059249238225 0.00026499640059 -0.00011797425678 0.00034927934574 0.00028673778032 0.00018010196201 -0.00035837072973 -0.00084532300243 
3.1768670146e-05 -0.00037828505964 3.1679311385e-07 -0.0012211774695 0.0012605619451 -0.00061396254406 -4.961149909e-05 0.00040777842155 -0.0011079694559 
1.5638666804e-06 0.00053954643839 -9.5701711569e-05 0.00087058409176 0.00026534924505 -2.8805293348e-05 -0.00072405790089 -0.0011035991434 0.00051571508926 
-7.8249170881e-05 0.00037468096652 0.0001534482742 -0.00054642388767 -0.00051848104606 -0.00083302754767 0.00012537919091 -0.00021759469408 0.0010421282566 
1.3031861942e-05 7.0874870144e-05 0.00013496924945 -0.00052905572271 0.00081006576906 0.00025318776537 2.5091973425e-05 0.001134594229 -0.00040445664948 
-0.00052495880966 0.00015896106876 0.00016421891691 -0.00051379483566 0.00033292809017 1.9409118939e-05 0.00051131429977 -0.00028538616347 0.00071261017625 
0.00026461246867 -0.0001925803783 -7.3284498741e-05 -0.0001468254132 -8.4485686861e-05 -0.00020913807717 -4.4967164606e-05 -0.00012851652903 0.0002852460637 
-0.0003021637194 -0.00073492716843 -5.4712204987e-05 -0.00045417850794 -0.00040517871313 -0.0006148617327 0.00016888838745 -0.00017341007076 -8.8136892558e-05 
-3.6415623583e-05 0.00039022976362 0.00014057726715 -8.5553301567e-05 7.0272633269e-05 2.3662646006e-05 0.00010252766996 0.00015727225068 8.8717365549e-05 
-0.00010871073781 3.4345315426e-05 -0.00023840943521 -6.4303543852e-05 -1.1117357166e-05 -0.00010502681818 7.4839607342e-05 -0.00013503203796 9.6266152165e-05 
2.9039201607e-05 -0.00010439060167 1.4646079655e-05 9.6730427893e-05 0.00048727401259 0.00026875718637 -0.0006223358745 -0.00047221997382 2.275885221e-05 
8.1022561742e-05 0.00013267614387 9.0351871252e-06 -0.0001305052857 -0.00024965856249 -8.5138945645e-05 -5.5473775949e-05 0.00011120805219 0.00010947749699 
-0.00040837932664 7.6229855815e-05 0.00021162472771 -0.00057872493188 0.0011099322518 -0.00054467925693 0.00033507015184 -0.00021393237069 -0.00051501767986 
-9.3998852613e-05 -2.2021623421e-05 -0.00027643020425 -1.280644647e-05 -0.00013560059962 -0.00011497699591 0.00029714357513 -2.1767558909e-05 0.00018762762474 
-6.037774915e-05 8.5180699178e-05 4.1691627251e-05 
