# vtk DataFile Version 4.2
Generated by LIGGGHTS
ASCII
DATASET POLYDATA
POINTS 70 float
0.0114581 -0.0368894 0.00699838 -0.0237986 -0.0238458 0.00699828 -0.00516478 -0.0202765 0.00953845 
0.0278628 -0.0211398 0.0135785 0.0230261 -0.0153722 0.00699752 -0.0253441 -0.00911908 0.0113724 
-0.0187622 -0.00161635 0.0107676 -0.00540934 -0.00082461 0.0069993 0.0045111 -0.00742059 0.00934088 
0.0159819 -0.000463851 0.0109253 0.0119743 0.00781084 0.0069976 0.0247776 0.00517861 0.00975104 
-0.0327818 0.0126216 0.00699878 -0.0248283 0.0178785 0.0100133 -0.000589488 0.0181855 0.0102347 
0.00562292 0.011265 0.0139045 -0.0125072 0.0218876 0.00749382 0.00288389 0.0293428 0.00699795 
0.0229398 0.0220761 0.0070533 -0.000836415 -0.0222524 0.0217332 0.0205449 -0.00875754 0.0144138 
-0.00820969 0.00387825 0.0164056 -0.0114136 0.0133337 0.0169576 0.0101142 0.0160929 0.0215669 
0.0225476 0.010684 0.0232497 0.0057422 0.0299437 0.0204631 -0.0141535 -0.0327213 0.0297117 
-0.000932096 -0.0397253 0.0283781 -0.00426073 -0.0305304 0.0304676 -0.0203286 -0.0203268 0.0274441 
-0.00721645 -0.018164 0.0282577 0.00504079 -0.0176016 0.0283518 0.019833 -0.0173874 0.0279802 
0.0294059 -0.0112395 0.0311967 -0.00674141 -0.00769605 0.0261014 0.0291985 -0.00143261 0.0292522 
-0.0127277 0.00477301 0.0347275 -0.00474817 0.00179301 0.0286245 0.0109787 0.0038892 0.0330456 
-0.012138 0.0145033 0.032501 0.0040476 0.0289293 0.0322747 0.0115002 0.0244725 0.0273158 
0.0295522 0.021592 0.0316808 0.00282281 -0.0325029 0.0374722 -0.0125618 -0.0252659 0.0410811 
0.0107596 -0.0251496 0.041906 -0.0216844 -0.0136966 0.0449292 0.00295226 -0.0199709 0.0378388 
0.0380504 -0.0114132 0.036744 -0.0161152 -0.00371844 0.0393055 -0.000240088 -0.00253142 0.0366106 
0.0163072 -0.000789571 0.0443757 0.0206867 -0.00931641 0.0414084 -0.0315248 0.00143338 0.0398353 
-0.0193531 0.0218709 0.0395089 -0.006833 0.0267618 0.0404402 0.0116872 0.0258019 0.0379173 
-0.00905119 -0.0234547 0.0502674 0.020305 -0.0299045 0.0510236 -0.0336379 -0.0136575 0.0531292 
0.0289081 -0.0133596 0.0475458 -0.0282449 -0.001882 0.0510298 -0.00557575 -0.00708143 0.0460092 
-0.0208779 0.00686567 0.0466713 -0.0126155 0.00283972 0.0506102 -0.0020702 0.00309101 0.0460998 
0.00615957 0.000137386 0.051779 0.0273787 0.00968743 0.0508261 -0.00966207 0.0205185 0.0524101 
4.56628e-05 0.0204071 0.0471149 
VERTICES 70 140
1 0 
1 1 
1 2 
1 3 
1 4 
1 5 
1 6 
1 7 
1 8 
1 9 
1 10 
1 11 
1 12 
1 13 
1 14 
1 15 
1 16 
1 17 
1 18 
1 19 
1 20 
1 21 
1 22 
1 23 
1 24 
1 25 
1 26 
1 27 
1 28 
1 29 
1 30 
1 31 
1 32 
1 33 
1 34 
1 35 
1 36 
1 37 
1 38 
1 39 
1 40 
1 41 
1 42 
1 43 
1 44 
1 45 
1 46 
1 47 
1 48 
1 49 
1 50 
1 51 
1 52 
1 53 
1 54 
1 55 
1 56 
1 57 
1 58 
1 59 
1 60 
1 61 
1 62 
1 63 
1 64 
1 65 
1 66 
1 67 
1 68 
1 69 

POINT_DATA 70
FIELD FieldData 7
id 1 70 int
44 732 1464 837 912 1986 1606 936 895 
1371 663 720 467 208 1438 1782 385 1157 
595 2267 398 2166 1751 2117 2149 1929 2782 
2509 2454 2873 2996 2710 2790 3102 2640 2566 
3057 2252 3510 3206 3209 3228 3475 3932 4179 
4006 4181 3841 3364 4052 3265 4362 4280 3857 
3770 3909 3724 5377 4989 4708 4482 5353 5397 
4796 5509 5103 5420 5050 5402 4610 
type 1 70 int
2 2 2 2 2 2 2 2 2 
2 2 2 2 2 2 2 2 2 
2 2 2 2 2 2 2 2 2 
2 2 2 2 2 2 2 2 2 
2 2 2 2 2 2 2 2 2 
2 2 2 2 2 2 2 2 2 
2 2 2 2 2 2 2 2 2 
2 2 2 2 2 2 2 
i 3 70 int
0 0 0 0 0 0 0 0 0 
0 0 0 0 0 0 0 0 0 
0 0 0 0 0 0 0 0 0 
0 0 0 0 0 0 0 0 0 
0 0 0 0 0 0 0 0 0 
0 0 0 0 0 0 0 0 0 
0 0 0 0 0 0 0 0 0 
0 0 0 0 0 0 0 0 0 
0 0 0 0 0 0 0 0 0 
0 0 0 0 0 0 0 0 0 
0 0 0 0 0 0 0 0 0 
0 0 0 0 0 0 0 0 0 
0 0 0 0 0 0 0 0 0 
0 0 0 0 0 0 0 0 0 
0 0 0 0 0 0 0 0 0 
0 0 0 0 0 0 0 0 0 
0 0 0 0 0 0 0 0 0 
0 0 0 0 0 0 0 0 0 
0 0 0 0 0 0 0 0 0 
0 0 0 0 0 0 0 0 0 
0 0 0 0 0 0 0 0 0 
0 0 0 0 0 0 0 0 0 
0 0 0 0 0 0 0 0 0 
0 0 0 
v 3 70 double
-1.361711984e-07 2.9014233032e-07 3.4674443967e-08 -1.1147207242e-07 -6.152265092e-08 2.4926892669e-07 4.5853822464e-08 -1.8342089755e-07 4.9162029914e-08 
7.1776666077e-07 4.88697778e-08 6.4642975524e-07 -9.0096866116e-07 -8.3597759449e-09 -3.1934991758e-07 -1.2492260447e-07 6.8509756774e-08 2.6287654892e-07 
4.3585180871e-09 -1.034537697e-07 3.3915194821e-08 -6.0672238837e-08 -9.0246736583e-08 4.8050067876e-07 -3.1650884041e-07 -5.5657399517e-07 -7.4664577165e-07 
-3.5367139926e-07 -9.8193505405e-09 9.8789060864e-08 -1.5860698772e-07 8.4940907938e-08 5.4803577841e-08 -7.1616202858e-07 3.6255087913e-07 -1.34945551e-06 
4.0118079467e-07 1.2624464974e-06 -8.1019901219e-07 -1.1295546538e-09 5.5083920151e-07 1.5612451185e-06 -5.0614465288e-07 7.1209533842e-07 -6.9623997526e-07 
3.3583573364e-08 -5.1764686927e-07 -1.0713125071e-07 8.0368880252e-07 -1.7489733398e-07 -1.6336300047e-06 -1.565406169e-06 8.6323187206e-08 -1.81954676e-08 
-1.4446895985e-07 -6.9895880676e-07 1.7983312681e-07 7.5799745201e-08 -1.2872087692e-07 5.199288708e-08 6.3317944771e-07 2.5268898261e-07 -1.2693384889e-07 
-8.9773112857e-08 -3.3379293489e-07 1.1225433054e-07 2.0120698134e-07 -5.3666641163e-07 -3.68182421e-07 3.6437613206e-07 -3.7357143367e-08 1.4415847326e-07 
-4.1825261427e-07 2.757810578e-07 8.2464215821e-08 2.4115213445e-08 8.761556666e-08 1.550428298e-07 1.2348801307e-07 -5.9062399425e-08 1.5368292563e-07 
-7.7780154205e-08 -1.7187859092e-08 1.4468948422e-07 5.9478148787e-08 -5.077875062e-08 1.8974066256e-07 1.8397460288e-07 -2.9534482869e-07 -3.4710979088e-07 
4.2069782467e-07 1.0544029154e-08 -1.2458664607e-07 -5.6073741417e-07 -1.0957942944e-07 -5.1729451257e-07 -2.1099764298e-07 -1.5527906308e-07 -2.456674947e-07 
6.6741733846e-08 -1.0085434491e-06 3.5590621178e-08 1.6009785016e-07 -1.2190817067e-07 -1.409779662e-07 -1.0285394643e-07 -5.5076081427e-07 -3.6249249359e-07 
-1.2669572275e-07 1.1429107756e-07 -7.1014171601e-08 -1.8455980608e-07 -4.1691425675e-08 3.3751276842e-07 -8.2720189631e-08 2.347253769e-07 2.1658433846e-08 
-3.5687577258e-07 3.5731244769e-07 -5.9622264108e-07 9.6620644258e-09 -1.4503498409e-08 1.4132738429e-08 9.1224736811e-08 1.1813820886e-07 1.6194443948e-07 
4.4951098623e-07 -1.1667529444e-07 -1.129394407e-07 -2.7360333513e-08 6.9339052129e-08 6.8880695081e-08 -3.554407602e-07 -1.9251633374e-07 -4.3154628812e-08 
6.6000785833e-08 9.0514602906e-08 1.2679548351e-07 -4.9886689236e-08 -1.1756683055e-08 5.0083415104e-08 2.2525424901e-08 9.6061488984e-08 3.6755329929e-08 
1.4108369401e-07 4.591539188e-08 -1.4951119636e-08 -1.6132266363e-07 -6.0324110819e-08 3.0476265003e-07 -2.667530553e-07 6.2878602267e-08 6.3269480071e-08 
-5.8876857957e-08 1.5604981817e-07 -1.3361735157e-07 -2.2790058668e-08 2.6704300622e-07 -1.783702502e-07 -1.7789409357e-07 1.4604463095e-07 -2.697980008e-07 
1.0293925284e-06 -8.2740444524e-07 1.3193715618e-06 5.0197978751e-08 -1.4109798335e-07 2.0628409102e-07 1.6387742439e-07 -1.2673102227e-07 4.1451478622e-08 
-7.2339255584e-08 2.2273926549e-08 4.7389044628e-08 -1.5246241792e-07 -5.8017830091e-08 -7.4267864864e-08 2.7679243866e-07 3.6046806749e-08 -6.4785356255e-08 
-9.5105602816e-08 1.4840898106e-07 -1.2608225013e-07 -1.2724422616e-07 -2.1534482509e-08 -4.960129833e-08 9.5682618286e-08 -1.9642222648e-07 -1.399284993e-07 
2.478286322e-08 2.5364059723e-07 -1.6763786567e-07 -2.0731495859e-07 6.4524961529e-09 5.4020606173e-08 -6.7409222632e-08 -5.0981107738e-08 2.0493496309e-08 
-1.7674166184e-09 -2.3129061932e-07 -8.5993463983e-11 3.3443146179e-08 -1.2191518449e-07 5.6331166354e-08 -3.5565678478e-07 1.8956490516e-07 -6.3017454617e-07 
-2.2574273275e-07 -9.2813061226e-08 1.3253025116e-07 
f 3 70 double
-0.00023125909848 0.00010203945523 4.68599513e-05 0.000363058733 0.00024827255989 0.0002818593159 8.6909396623e-05 -4.0201674409e-05 -0.00032795329614 
-0.00025820827138 8.2486753821e-06 -0.00021946385073 -0.00043731134209 -1.0171313266e-05 0.00010825325943 0.0001611619292 0.0001564778774 -7.2015726111e-05 
-0.0001374279615 3.8344791004e-05 0.00016289575045 8.5101297416e-05 -0.00019447989824 -0.00034338756997 -4.1446512314e-05 0.00036041086845 -0.00054911133622 
0.00072114128234 -2.1805275739e-05 0.00022191138942 1.0018587624e-05 0.00032103243657 -1.7845084895e-05 0.00013474574788 -0.00035267970079 0.00010677846135 
-3.5163981158e-05 0.00011573940941 -0.0001280656386 -0.00027353594609 0.00033398088832 -0.00028142278464 -0.00072604616177 3.0180683205e-05 4.5893188482e-05 
0.00018217631059 7.723267514e-05 -0.00014160681913 0.00037437524074 -0.00057029228214 0.00028039650926 -7.6496276432e-06 0.00033274922646 -3.8938969342e-05 
-7.4608680316e-05 -0.00048633924274 -0.00055432342879 -3.4938922995e-05 -0.00015430861637 -8.6704317386e-05 -0.00016794652297 -0.00026481202487 0.00025010399773 
6.5927936188e-06 0.00039318409243 -0.00028082442646 0.00015140786584 -0.00011558729249 -0.00021769001377 -0.00011473113568 1.360581049e-05 -0.00014685215398 
-6.94589315e-05 -0.0002190967651 8.7591601325e-06 -0.00010482392374 -0.00035049950162 0.00012689256859 3.7569004511e-05 -9.1421229584e-05 5.6292090247e-05 
-3.0485953238e-05 2.1993763303e-05 -6.4879112705e-05 -6.1314332211e-05 1.5128551065e-05 -8.1910713389e-05 4.0925390524e-05 -7.4656973951e-05 -2.8675296917e-05 
-0.00013911115689 -0.00011265601536 1.1554796998e-05 0.00013558418945 0.00011386457431 0.00017459451816 -3.7606673986e-05 7.3906861952e-05 4.8721922646e-05 
-0.00024268638864 3.6337376679e-05 7.2292551716e-05 -9.7813821074e-06 -1.4243214199e-05 4.2062940616e-05 6.6417409852e-05 3.1569893417e-05 -3.1835839676e-05 
-0.00030006775543 -3.7720911035e-05 -8.652834046e-06 0.00016054827318 0.00023029993629 0.00018878251776 -1.9419230315e-05 -4.0379969817e-06 -0.00012795598821 
-3.9259344914e-05 -0.00015032419118 4.8334298088e-05 4.2854274864e-05 -7.2828474568e-08 2.257679972e-05 0.00010938788606 -0.00016620892923 -3.6090693753e-05 
0.00011809299439 4.9322485301e-05 -4.7367284176e-05 -1.2811214552e-05 -1.7229951248e-05 -3.6970535972e-05 -7.4030801819e-05 5.3155616941e-06 -2.3164141576e-05 
-5.6604588505e-05 5.0101404123e-05 1.8330857068e-05 5.4540099134e-05 1.402058985e-05 -3.3907541983e-05 -2.5165200736e-06 -1.0867093687e-05 2.4095647199e-05 
4.1246336005e-05 -9.8269191153e-05 -9.7613298079e-05 4.7494046485e-05 -5.8374024067e-05 3.8849872316e-06 -1.3580084728e-05 5.7849150668e-05 -1.3697929131e-05 
4.7499517176e-06 -2.1242477282e-06 7.7055244584e-06 -9.6288768167e-05 3.9439118521e-05 -3.4771238381e-06 6.8160066049e-05 4.8781299235e-05 8.5199361994e-05 
-4.7067065171e-05 -1.4304178322e-05 0.00017487307492 2.5434829736e-05 1.5934211634e-05 9.8546130851e-05 8.7992205155e-06 2.6286441508e-05 -1.6082570825e-05 
7.3794841018e-06 1.3906496385e-05 4.3617563161e-06 -5.7264867314e-06 -2.5448809684e-05 -3.1855763321e-07 1.1151685183e-05 2.4061161781e-05 1.4887665385e-05 
-3.1321770637e-06 -2.0549937491e-05 5.2241969135e-05 -2.5485045937e-06 -5.4489834448e-05 -2.3866769574e-05 -3.5345927699e-05 -8.7600614906e-05 4.4450237538e-06 
-7.3657153814e-05 7.467972661e-05 3.4490510878e-05 -1.4847723639e-05 1.0727531545e-05 7.2590052554e-06 2.7548242514e-05 -2.3651874371e-05 3.1782173589e-05 
-1.8025320498e-05 -2.8767628444e-05 8.3592377128e-06 -6.5946580722e-05 -5.9786207609e-06 -7.603972665e-06 -8.5300470704e-05 -1.1611083911e-05 -2.0879251092e-05 
2.253763668e-05 -1.0423794498e-07 9.5242340364e-06 
radius 1 70 double
0.005 0.005 0.005 0.005 0.005 0.005 0.005 0.005 0.005 
0.005 0.005 0.005 0.005 0.005 0.005 0.005 0.005 0.005 
0.005 0.005 0.005 0.005 0.005 0.005 0.005 0.005 0.005 
0.005 0.005 0.005 0.005 0.005 0.005 0.005 0.005 0.005 
0.005 0.005 0.005 0.005 0.005 0.005 0.005 0.005 0.005 
0.005 0.005 0.005 0.005 0.005 0.005 0.005 0.005 0.005 
0.005 0.005 0.005 0.005 0.005 0.005 0.005 0.005 0.005 
0.005 0.005 0.005 0.005 0.005 0.005 0.005 
omega 3 70 double
0.00014237189566 -3.7845853055e-05 1.9892839015e-05 3.9764913087e-05 -3.1219998671e-07 5.0357454902e-05 9.1494759236e-05 -2.2562409999e-05 1.6841043523e-05 
-2.5236727018e-05 -0.00047309003636 -4.0971931269e-05 6.0401669877e-05 -0.00012657819422 0.0002038531047 -5.2314492346e-05 -4.0386389024e-08 8.1044899741e-05 
6.9840616388e-06 4.1897873743e-05 -3.2017149029e-05 2.3295935312e-05 6.8163626953e-05 -3.4804630332e-05 0.00036570738763 -3.9976903504e-05 3.8521799073e-05 
-0.00013094101818 0.00015050627594 4.8188878706e-05 6.7572202948e-05 2.9730117525e-05 -5.457374877e-08 0.00050547075905 7.9865714381e-05 -0.00039125642998 
-0.00028569427925 0.00025935965208 0.0002494383245 -0.00039951754215 0.00028708707781 0.0004289816378 -0.00013589438128 0.00031035616563 -0.00021358800741 
-8.5049233382e-06 -4.4921188193e-05 -0.00013421133907 5.0343133767e-05 -0.0010224679274 -0.00010594596195 -2.2149604942e-07 7.9728963279e-05 0.00057961225809 
-0.00032866024875 0.00034778857584 0.00013276057815 7.8861205844e-05 -0.00011586224286 -3.8710322664e-05 0.00022814595309 -0.00027374866663 0.00021568303751 
-0.00010399673857 -6.3609642992e-05 -0.00022980642052 1.3239816944e-05 7.3857707512e-05 -0.00010952483817 -8.8036693717e-05 -9.5093009481e-05 -8.0684287611e-05 
1.5448081992e-05 -2.5891161813e-05 7.2703444304e-05 8.3665577357e-05 3.6100856978e-06 -4.9929024271e-05 3.9331133495e-05 5.5985149743e-05 -4.9512354227e-05 
-2.8291697942e-05 2.4654679811e-05 -1.2158174683e-05 5.3392554775e-05 2.3593970752e-05 -1.4820009797e-05 8.244730466e-08 -7.1971850066e-07 -0.00013059429757 
3.5745802416e-05 -5.0257294407e-05 -1.1263258367e-05 -9.9542750311e-05 0.00037030322702 -0.00016760227767 0.00014778348954 -2.5230159026e-06 6.9729188064e-05 
-0.00037962896209 -0.00015299758301 0.0002795264931 -4.9964955103e-05 2.3884095711e-05 -6.9302078889e-06 -4.7448676658e-05 1.5214015352e-05 -3.4916075208e-06 
-1.6803755805e-05 -4.2412107963e-05 7.5433909674e-05 -6.1895326064e-06 2.5977556771e-05 2.7477932077e-05 5.4722871342e-06 1.8615214916e-05 -1.4696837818e-05 
1.88301808e-06 -0.00014820316479 9.8491290885e-05 3.7034521836e-05 3.0695410485e-05 8.7076247836e-06 -3.6789539895e-05 0.00016571621815 2.6009389047e-05 
-7.6297727978e-06 -3.920742122e-05 -7.5331258542e-07 1.4010595046e-06 -2.4746082844e-05 -5.8184815253e-07 -3.9949909611e-05 6.0954089831e-05 9.8213664443e-05 
7.075181873e-05 -9.8382833742e-06 4.2266140595e-05 -1.7876470226e-05 -4.4547864431e-05 -1.5670929149e-05 -8.4348739774e-07 -4.1649439666e-05 1.1574821009e-05 
-6.8678399375e-05 -6.7634159147e-05 -0.00011863035567 7.0366828981e-06 -2.9459661278e-05 -2.2671590288e-05 7.1657070707e-05 0.00012207942891 7.5906390128e-05 
5.6223707984e-05 -2.3355500353e-05 4.6898146989e-05 7.3878895578e-05 -5.452586657e-05 -3.4877762456e-05 -5.4335702303e-06 -2.8299035562e-05 3.5709170229e-06 
0.00013584456848 -3.3532739945e-05 1.3111197976e-05 -8.1409250836e-07 8.290366466e-05 9.4615738977e-07 3.5386891877e-05 1.5654578795e-05 -2.132329907e-05 
-1.2866324651e-05 -3.6437000726e-05 2.1052249682e-05 9.6191596267e-06 -3.0376906565e-05 -6.4357291001e-06 -3.4462986731e-05 -0.0001436059462 5.6859157309e-05 
3.6494708377e-05 1.999679031e-05 6.4750283463e-05 2.041376464e-06 6.5651427492e-05 -1.7742670152e-05 8.9464497693e-06 3.3672246547e-05 -2.4093430392e-05 
-0.00010939694982 -7.8652629088e-05 -6.2402819966e-05 2.1755162868e-05 9.6490522497e-05 4.3950612461e-05 4.1959102809e-05 6.8104286803e-06 -1.3155974125e-05 
-6.4648463786e-06 -1.40154482e-05 1.2093015765e-05 2.1518310483e-05 1.292580836e-05 -1.2776189304e-05 -6.6996067986e-05 6.6094139519e-05 -6.7955896479e-05 
1.2885187045e-05 3.0827427861e-05 -2.4205937331e-05 
