# vtk DataFile Version 4.2
Generated by LIGGGHTS
ASCII
DATASET POLYDATA
POINTS 70 float
0.0114581 -0.0368894 0.00699838 -0.0237986 -0.0238458 0.00699828 -0.00516478 -0.0202765 0.00953845 
0.0278628 -0.0211398 0.0135785 0.0230261 -0.0153722 0.00699752 -0.0253441 -0.00911908 0.0113724 
-0.0187622 -0.00161635 0.0107676 -0.00540934 -0.000824611 0.0069993 0.0045111 -0.00742059 0.00934088 
0.0159819 -0.000463851 0.0109253 0.0119743 0.00781084 0.0069976 0.0247776 0.00517861 0.00975104 
-0.0327818 0.0126216 0.00699878 -0.0248283 0.0178785 0.0100133 -0.000589488 0.0181855 0.0102347 
0.00562292 0.011265 0.0139045 -0.0125072 0.0218876 0.00749382 0.00288389 0.0293428 0.00699795 
0.0229398 0.0220761 0.0070533 -0.000836415 -0.0222524 0.0217332 0.0205449 -0.00875754 0.0144138 
-0.00820969 0.00387825 0.0164056 -0.0114136 0.0133337 0.0169576 0.0101142 0.0160929 0.0215669 
0.0225476 0.010684 0.0232497 0.0057422 0.0299437 0.0204631 -0.0141535 -0.0327213 0.0297117 
-0.000932095 -0.0397253 0.0283781 -0.00426073 -0.0305304 0.0304676 -0.0203286 -0.0203268 0.0274441 
-0.00721645 -0.018164 0.0282577 0.00504079 -0.0176016 0.0283518 0.019833 -0.0173874 0.0279802 
0.0294059 -0.0112395 0.0311967 -0.00674141 -0.00769605 0.0261014 0.0291985 -0.00143261 0.0292522 
-0.0127277 0.00477301 0.0347275 -0.00474817 0.00179301 0.0286245 0.0109787 0.0038892 0.0330456 
-0.012138 0.0145033 0.032501 0.0040476 0.0289293 0.0322747 0.0115002 0.0244725 0.0273158 
0.0295522 0.021592 0.0316808 0.00282281 -0.0325029 0.0374722 -0.0125618 -0.0252659 0.0410811 
0.0107596 -0.0251496 0.041906 -0.0216844 -0.0136966 0.0449292 0.00295226 -0.0199709 0.0378388 
0.0380504 -0.0114132 0.036744 -0.0161152 -0.00371844 0.0393055 -0.000240087 -0.00253142 0.0366106 
0.0163072 -0.00078957 0.0443757 0.0206867 -0.00931641 0.0414084 -0.0315248 0.00143338 0.0398353 
-0.0193531 0.0218709 0.0395089 -0.006833 0.0267618 0.0404402 0.0116872 0.0258019 0.0379173 
-0.0090512 -0.0234547 0.0502674 0.020305 -0.0299045 0.0510236 -0.033638 -0.0136575 0.0531292 
0.0289081 -0.0133596 0.0475458 -0.0282449 -0.001882 0.0510298 -0.00557575 -0.00708143 0.0460092 
-0.0208779 0.00686567 0.0466713 -0.0126155 0.00283972 0.0506102 -0.0020702 0.00309101 0.0460998 
0.00615957 0.000137387 0.051779 0.0273787 0.00968743 0.0508261 -0.00966207 0.0205185 0.0524101 
4.56628e-05 0.0204071 0.0471149 
VERTICES 70 140
1 0 
1 1 
1 2 
1 3 
1 4 
1 5 
1 6 
1 7 
1 8 
1 9 
1 10 
1 11 
1 12 
1 13 
1 14 
1 15 
1 16 
1 17 
1 18 
1 19 
1 20 
1 21 
1 22 
1 23 
1 24 
1 25 
1 26 
1 27 
1 28 
1 29 
1 30 
1 31 
1 32 
1 33 
1 34 
1 35 
1 36 
1 37 
1 38 
1 39 
1 40 
1 41 
1 42 
1 43 
1 44 
1 45 
1 46 
1 47 
1 48 
1 49 
1 50 
1 51 
1 52 
1 53 
1 54 
1 55 
1 56 
1 57 
1 58 
1 59 
1 60 
1 61 
1 62 
1 63 
1 64 
1 65 
1 66 
1 67 
1 68 
1 69 

POINT_DATA 70
FIELD FieldData 7
id 1 70 int
44 732 1464 837 912 1986 1606 936 895 
1371 663 720 467 208 1438 1782 385 1157 
595 2267 398 2166 1751 2117 2149 1929 2782 
2509 2454 2873 2996 2710 2790 3102 2640 2566 
3057 2252 3510 3206 3209 3228 3475 3932 4179 
4006 4181 3841 3364 4052 3265 4362 4280 3857 
3770 3909 3724 5377 4989 4708 4482 5353 5397 
4796 5509 5103 5420 5050 5402 4610 
type 1 70 int
2 2 2 2 2 2 2 2 2 
2 2 2 2 2 2 2 2 2 
2 2 2 2 2 2 2 2 2 
2 2 2 2 2 2 2 2 2 
2 2 2 2 2 2 2 2 2 
2 2 2 2 2 2 2 2 2 
2 2 2 2 2 2 2 2 2 
2 2 2 2 2 2 2 
i 3 70 int
0 0 0 0 0 0 0 0 0 
0 0 0 0 0 0 0 0 0 
0 0 0 0 0 0 0 0 0 
0 0 0 0 0 0 0 0 0 
0 0 0 0 0 0 0 0 0 
0 0 0 0 0 0 0 0 0 
0 0 0 0 0 0 0 0 0 
0 0 0 0 0 0 0 0 0 
0 0 0 0 0 0 0 0 0 
0 0 0 0 0 0 0 0 0 
0 0 0 0 0 0 0 0 0 
0 0 0 0 0 0 0 0 0 
0 0 0 0 0 0 0 0 0 
0 0 0 0 0 0 0 0 0 
0 0 0 0 0 0 0 0 0 
0 0 0 0 0 0 0 0 0 
0 0 0 0 0 0 0 0 0 
0 0 0 0 0 0 0 0 0 
0 0 0 0 0 0 0 0 0 
0 0 0 0 0 0 0 0 0 
0 0 0 0 0 0 0 0 0 
0 0 0 0 0 0 0 0 0 
0 0 0 0 0 0 0 0 0 
0 0 0 
v 3 70 double
-4.3190687368e-07 1.3817570075e-07 -1.5537369835e-07 1.3388725096e-07 -4.1576253096e-08 1.1012959663e-07 -2.6370038062e-07 -3.5030608268e-07 -1.335041031e-07 
-3.6531095278e-07 -1.9300225983e-07 -8.1206626517e-07 8.5849760094e-07 1.9151564884e-07 -1.2730223724e-07 -2.2178844574e-07 -1.0905435466e-07 1.3951138195e-07 
4.3445443347e-08 9.7755396548e-08 -6.8770953331e-08 8.3223886597e-08 -1.4246328008e-07 -7.5044832601e-07 -6.4997900887e-09 4.0311968733e-07 -1.1272139701e-06 
4.9570895141e-07 2.8860989731e-07 8.527849134e-10 1.0172096214e-07 1.7045193279e-07 4.5025324104e-07 2.3635970873e-07 -1.0935521908e-07 1.2825081044e-06 
-2.5044634058e-07 -9.6077936678e-07 1.5954872673e-06 -5.8705575424e-08 -1.2990269114e-07 -6.6627002056e-07 -7.395186232e-07 2.6772040295e-07 -4.2117315677e-08 
-1.6355906847e-08 3.8570830826e-08 -3.1626195383e-07 -1.2930374677e-06 1.2191960771e-07 2.3375799046e-06 -9.5349309816e-07 2.5107612736e-07 3.1456019513e-07 
4.303962253e-08 -3.8322627918e-08 5.6009104464e-07 -2.414743768e-07 -3.8464810343e-07 -1.0491200714e-07 -7.1771105512e-07 -8.1118090531e-07 2.114957859e-07 
3.8538661001e-07 -7.0981090478e-08 -5.2478706093e-07 3.2842266442e-07 1.9191201257e-07 -2.2146423692e-07 -3.6043717887e-09 -2.0956693528e-07 -6.6452164325e-09 
-6.0858693545e-08 -8.9317667514e-08 1.957614354e-07 4.4403326758e-07 3.461785156e-07 -3.084860038e-07 -2.241721418e-07 7.8878048915e-08 -8.1938849305e-08 
-1.2275903962e-07 4.2849158588e-09 -6.6280976174e-08 -1.8696890641e-07 -6.3632791766e-08 2.361980332e-07 -2.2478432892e-07 -1.889330188e-08 -4.297978925e-07 
-3.1899108275e-07 8.2400578715e-08 -2.1342950478e-08 1.2216784638e-06 -6.9589098267e-07 6.5304083697e-07 1.1858192788e-06 -2.9359135006e-07 -2.2727834519e-07 
-4.4952148332e-07 9.3114332993e-07 1.3234689743e-06 1.8806292219e-08 -1.1179445095e-07 -9.1140825638e-08 5.5641349814e-07 -3.9474724842e-07 3.8187060727e-09 
-2.6829765586e-08 1.1970308934e-07 -1.3969227641e-07 -8.0849314658e-08 2.392390992e-10 1.6850956048e-07 -2.8213928862e-08 -7.3317123994e-08 -1.6981964155e-07 
-7.3877460377e-07 -2.5666930688e-07 3.3084957009e-08 -1.6000599947e-07 1.870794945e-07 2.1686423918e-08 3.1356089345e-07 -3.9247140728e-07 -2.0564796977e-07 
-1.1386174348e-07 -7.9705887802e-08 3.2380503971e-07 -9.5723426389e-08 -2.1754108182e-07 1.7897249386e-07 1.496708573e-07 2.566376484e-07 -6.4802050298e-08 
-1.1311911483e-07 6.5274621001e-08 -3.304761405e-08 -1.665581894e-07 1.2569562315e-08 -8.9438904048e-08 -6.7725619312e-07 1.1481658463e-07 1.289761847e-07 
-1.7458152696e-07 -4.9353077118e-07 5.6478327291e-08 2.6220165218e-07 4.9697523419e-07 -2.9458736138e-07 -1.4522996773e-07 -1.8630821202e-07 -4.8941567721e-08 
2.6697679824e-08 -7.7143981919e-08 -1.7904700702e-07 3.1181604441e-09 -1.7438248727e-07 3.3209573286e-08 1.1528695022e-07 -2.8739456192e-08 -3.9848686448e-08 
7.5758276209e-07 -5.5003922874e-07 1.820409691e-06 2.6262611438e-07 -2.1657325596e-07 4.2596001811e-07 -2.0922919442e-07 1.077626831e-07 1.3375252376e-07 
2.0297655364e-07 3.0637174521e-07 -4.5133168054e-08 1.2676428268e-07 -8.1285121596e-08 -1.7991984227e-07 5.4649706236e-07 1.0834186198e-07 2.8384441053e-08 
2.2736070979e-07 5.8777677156e-08 2.2142034804e-07 -2.2367629143e-08 1.8351673384e-07 -1.2598988778e-07 -2.2845426116e-07 -1.0529554258e-07 1.7265975608e-07 
1.9430948849e-07 -3.4561904526e-07 3.9334452526e-08 -6.3318006819e-08 5.5511518422e-08 7.7790832428e-08 -4.0938540601e-08 2.6931336193e-07 -1.1046125196e-07 
-5.8959565291e-08 1.1895845953e-07 2.0527554285e-08 8.3095404186e-08 8.1299999731e-09 1.7213533412e-07 -5.7886589279e-07 2.186723368e-07 -7.5392923522e-07 
-1.972713819e-07 -4.6592027335e-08 -1.5199539876e-07 
f 3 70 double
-0.00010420470621 4.9607747975e-05 0.0001233937326 0.00034135680906 0.00024195899104 0.0002745218901 8.4773155345e-05 -5.9439888138e-05 -0.00032415336587 
-0.00010739304739 7.3895182693e-05 0.00028735473403 8.4463215561e-05 -1.3962588369e-05 0.00018414031797 0.0001413506578 0.000167752017 -6.361588186e-05 
-0.00015551655632 8.5418115346e-05 0.00017326888946 5.5579808273e-05 -0.00021330831481 -0.00037693211587 -9.9997838526e-05 0.00029428107996 -0.00063633846868 
0.00061449653079 5.0126504529e-05 0.00013318506725 2.9656818017e-05 0.00025598702351 -0.00014120674939 -4.3530503972e-06 -0.00026226682646 -0.00016606848051 
-8.1236100246e-05 6.5147277757e-05 -3.1914147876e-05 -0.00016414676659 0.00028000366618 -0.00031374969922 -0.00056302240799 0.00028324474538 0.00012693109442 
0.00021425795541 8.2149608209e-05 -0.00013500952522 0.00026164042035 -0.00062453668791 0.00046451538165 0.00035000570576 -2.7925777537e-06 1.7740802524e-05 
-0.00010963455598 -0.00036801898211 -0.00060679142163 -1.7556731246e-05 -0.0001402104076 -0.00011328244565 -0.00024541485966 -0.00048011913334 0.00016365537944 
-1.7939296662e-05 0.00037459769124 -0.00024471057785 0.00034165640271 -0.00044795813974 -0.00023954331071 -0.00021256359489 1.2656438337e-05 -5.8321887029e-05 
-8.2684888544e-06 -0.00021344348807 2.7460887542e-05 -8.2370465735e-05 -0.00019690481581 -4.263288683e-05 6.9297185867e-05 -8.400952491e-05 5.9438699715e-05 
-3.7940982713e-05 2.3324045986e-05 -0.00011377767651 -6.36002809e-05 1.8150458024e-05 -6.9601196076e-05 0.00011772954412 -9.6309852407e-05 4.1638579914e-05 
-0.00011849966666 -9.7477819977e-05 -5.0943386907e-07 3.0667415409e-05 0.00011861548149 5.5784441075e-05 -0.00014098753879 6.5576673206e-05 -4.5673054201e-05 
-0.00015580071851 8.0936134535e-05 -0.00013759570471 -3.4458187884e-05 -1.9974768368e-05 6.6966564169e-05 3.3869233274e-05 4.5646268975e-05 2.0645089302e-05 
-0.00029701037515 -5.6443137852e-05 -2.0016399856e-05 0.00016660060445 0.00021645083555 0.0001600819547 -1.2185444979e-05 -1.2593618554e-05 -0.00010348166568 
-2.9310328946e-05 -0.00013000248443 2.8366253073e-05 6.2015267117e-05 3.2688275099e-05 -8.6715133037e-06 0.00010004556395 3.0649080977e-05 -6.6367509462e-06 
0.00012939513812 1.5436399399e-05 -5.6290365364e-05 2.3136023638e-06 7.1330427517e-06 -3.1688115757e-05 -8.7754119196e-05 -3.2838336639e-05 -7.4420714086e-05 
-5.1291933171e-05 5.8602262383e-05 -4.4123061946e-05 6.2053927909e-05 2.2519658688e-05 -3.8586557806e-05 1.7499635727e-05 -3.2771389691e-06 2.5307619966e-05 
4.166994928e-06 -9.9010176401e-05 -6.4734814162e-05 0.00011237790065 -4.5041445344e-05 3.6046749947e-06 4.6028094352e-06 -5.7876383647e-05 3.7600233466e-06 
8.0611250134e-06 -6.9020199834e-06 7.607960057e-06 -9.0245321239e-05 4.7877123625e-05 6.2905991374e-05 8.2989372455e-05 4.0117484556e-05 9.3480279528e-05 
-5.9057903831e-05 1.0712574835e-05 0.00013685947544 3.8357321197e-06 -8.8494924454e-06 9.5146471794e-05 -5.6704087481e-05 4.0180514892e-05 -1.0841119125e-05 
1.8008781626e-05 1.6825966689e-06 4.4911232105e-06 -1.8223589588e-05 -3.4823254056e-05 -1.4914716733e-06 -0.00014929188379 5.6202190339e-06 -6.4301325175e-06 
-1.2834904379e-05 -2.956232157e-05 7.4381332267e-05 -2.9384557948e-06 -6.1339002424e-05 -2.2403683409e-05 -9.5566129657e-05 -0.00013738830773 6.8106456994e-05 
-5.9006222035e-05 6.9269023857e-05 3.2326658084e-05 -2.9035706656e-06 8.5607210565e-06 9.5297062585e-06 7.5345896296e-05 -1.2912105383e-06 -1.5234556151e-05 
-2.2021147142e-05 -2.7628951544e-05 5.8945489287e-06 -6.3880298781e-05 -7.2190062013e-06 -1.1517822608e-05 -7.6496730785e-05 -1.2452619491e-05 -1.181601442e-05 
3.3167766824e-05 4.6958232278e-06 -2.1619158461e-06 
radius 1 70 double
0.005 0.005 0.005 0.005 0.005 0.005 0.005 0.005 0.005 
0.005 0.005 0.005 0.005 0.005 0.005 0.005 0.005 0.005 
0.005 0.005 0.005 0.005 0.005 0.005 0.005 0.005 0.005 
0.005 0.005 0.005 0.005 0.005 0.005 0.005 0.005 0.005 
0.005 0.005 0.005 0.005 0.005 0.005 0.005 0.005 0.005 
0.005 0.005 0.005 0.005 0.005 0.005 0.005 0.005 0.005 
0.005 0.005 0.005 0.005 0.005 0.005 0.005 0.005 0.005 
0.005 0.005 0.005 0.005 0.005 0.005 0.005 
omega 3 70 double
-0.00029440473436 9.4967692864e-05 0.00024818545469 6.4542097207e-05 -2.9850159915e-05 -4.0364766164e-05 0.00011842171381 -6.1026988847e-05 1.4862743852e-05 
5.6437024641e-05 0.00013511141387 3.9784205755e-05 -7.0524899863e-05 0.00010718088123 -0.00026257496193 -2.853098468e-05 3.1177483726e-05 1.4951752645e-05 
-1.2857655122e-05 1.0840429518e-05 -4.1681303797e-05 0.00020289048147 -0.00043639918432 7.4520233753e-05 -3.0434666813e-05 0.00023257715368 0.00015658505277 
-1.0313056927e-05 5.6962636847e-05 0.00024829775177 9.2201766571e-05 3.8080110659e-05 1.2239099902e-05 -0.00071109616336 -0.00031704081321 0.00017680993225 
0.00032671012671 -0.00029628921233 -0.00027448217238 0.00052398986271 -0.0003071973137 -0.00043646561011 0.00012534957486 0.00038790675066 5.9815068026e-05 
-2.3424574902e-05 2.1375508882e-05 3.3973382539e-05 1.5415286269e-05 0.00089938792139 -5.22651168e-05 -1.1915304092e-05 -3.4379848013e-05 0.00083413185503 
-2.1539433257e-06 6.6589025478e-06 0.00022416048715 0.00021714341372 -0.0004497867062 6.8270787326e-05 -0.00020578923608 0.0002974366728 -0.00031946696728 
8.7709963814e-05 -3.6285766597e-06 9.2533787726e-05 -2.4546780476e-05 -8.2216824081e-05 -7.4540034279e-05 -1.2657491971e-05 -3.5723773474e-05 -9.4530625147e-06 
4.9725133499e-05 -5.8344701802e-05 -4.4326784769e-05 -7.3200637642e-05 -5.6207738506e-05 2.1357232734e-05 -1.8675794522e-05 -6.5041842233e-05 -1.0826889795e-05 
-4.4187855915e-05 4.6009009755e-05 2.0210143859e-05 -1.2039500686e-05 -9.2129551416e-10 -3.9056235184e-05 4.2526770678e-05 0.0003202039024 8.0930439251e-05 
3.744667008e-05 1.188454385e-05 3.5368494404e-05 0.00012048386556 -0.00038758100516 6.7037032102e-05 -0.00024696382814 1.7178287266e-05 -0.00046247663905 
0.00041517999592 0.00053170730054 -0.00027058686558 -8.7130686455e-06 -4.1875920367e-05 2.723222808e-05 0.00016121935406 0.00011045408501 -1.5001614272e-05 
-0.00012567790897 3.1493098718e-05 9.7503417138e-05 -4.8251574235e-05 -7.1463164391e-06 -8.1144802998e-05 1.0546965562e-05 2.5599264191e-05 -3.7652841269e-05 
0.00017009480213 0.0001182449469 5.4936711047e-05 9.2824257149e-05 -0.00012537354566 -6.2778030735e-05 -0.00019743850117 -0.00028438066619 -2.8139892587e-05 
1.4623847051e-05 -3.8460675775e-05 2.9473091894e-05 9.4030238008e-06 3.5080352152e-05 -2.7594093124e-05 -1.7405932316e-05 3.6615761023e-05 -3.6352937218e-05 
-4.5858354373e-05 1.4638378335e-05 -5.7955001914e-05 2.0844601865e-05 5.7448220439e-05 -4.3595760893e-05 -2.5463810528e-05 0.00022258758924 3.2140737595e-05 
-0.00015541154801 -4.386385533e-05 -1.9894833259e-05 5.4208745701e-05 0.00020904697954 0.00013159960822 1.4471692347e-05 -0.0001187740603 1.7492692007e-05 
2.4057695528e-05 -5.059381308e-05 -1.7993448963e-06 -1.4775177889e-05 7.773314684e-05 1.1589788139e-05 -4.3126247355e-05 1.153389109e-05 -1.4856060188e-05 
0.00013751870366 4.3374001415e-06 8.0479398519e-06 5.0726466629e-05 0.0001146516662 8.1617152189e-05 -4.7472499587e-05 7.2834135797e-06 4.6247968831e-05 
2.0734269954e-05 1.9401287146e-05 -4.0783699521e-05 -1.7763907683e-05 -2.6116748946e-05 -8.1290312767e-06 6.5093043818e-05 -0.00015223763113 0.00010400407036 
-3.0352016918e-05 -2.5358825238e-05 1.8774890128e-05 -6.384803214e-06 9.5562017459e-07 6.5211671297e-05 4.4856258165e-05 0.0002519954518 6.6829244189e-05 
-9.0829476612e-05 -0.0001229646255 -6.0565416121e-05 2.1069806604e-05 -1.262633754e-06 5.2069684e-06 4.2656926155e-05 -6.2229443425e-05 1.7542525237e-05 
6.0930731634e-05 -3.077866401e-05 -2.2149381063e-05 -8.2073491408e-06 -5.3303865137e-06 -2.2802533209e-05 1.1863365333e-05 2.0474525033e-05 -3.2045113224e-05 
8.9008086557e-06 -3.7759400607e-05 -1.1930540827e-05 
