# vtk DataFile Version 4.2
Generated by LIGGGHTS
ASCII
DATASET POLYDATA
POINTS 70 float
0.0114581 -0.0368894 0.00699838 -0.0237986 -0.0238458 0.00699828 -0.00516478 -0.0202765 0.00953845 
0.0278628 -0.0211398 0.0135785 0.0230261 -0.0153722 0.00699752 -0.0253441 -0.00911908 0.0113724 
-0.0187622 -0.00161635 0.0107676 -0.00540934 -0.00082461 0.0069993 0.0045111 -0.00742059 0.00934088 
0.0159819 -0.000463851 0.0109253 0.0119743 0.00781084 0.0069976 0.0247776 0.00517861 0.00975104 
-0.0327818 0.0126216 0.00699878 -0.0248283 0.0178785 0.0100133 -0.000589488 0.0181855 0.0102347 
0.00562292 0.011265 0.0139045 -0.0125072 0.0218876 0.00749382 0.00288389 0.0293428 0.00699795 
0.0229398 0.0220761 0.0070533 -0.000836414 -0.0222524 0.0217332 0.0205449 -0.00875754 0.0144138 
-0.00820969 0.00387825 0.0164056 -0.0114136 0.0133337 0.0169576 0.0101142 0.0160929 0.0215669 
0.0225476 0.010684 0.0232497 0.0057422 0.0299437 0.0204631 -0.0141535 -0.0327213 0.0297117 
-0.000932094 -0.0397253 0.0283781 -0.00426073 -0.0305304 0.0304676 -0.0203286 -0.0203268 0.0274441 
-0.00721645 -0.018164 0.0282577 0.00504079 -0.0176016 0.0283518 0.019833 -0.0173874 0.0279802 
0.0294059 -0.0112395 0.0311967 -0.00674141 -0.00769605 0.0261014 0.0291985 -0.00143261 0.0292522 
-0.0127277 0.00477301 0.0347275 -0.00474817 0.00179301 0.0286245 0.0109787 0.0038892 0.0330456 
-0.012138 0.0145033 0.032501 0.0040476 0.0289293 0.0322747 0.0115002 0.0244725 0.0273158 
0.0295522 0.021592 0.0316808 0.00282281 -0.0325029 0.0374722 -0.0125618 -0.0252659 0.0410811 
0.0107596 -0.0251496 0.041906 -0.0216844 -0.0136966 0.0449292 0.00295226 -0.0199709 0.0378388 
0.0380504 -0.0114132 0.036744 -0.0161152 -0.00371844 0.0393055 -0.000240087 -0.00253142 0.0366106 
0.0163072 -0.000789572 0.0443757 0.0206867 -0.00931641 0.0414084 -0.0315248 0.00143338 0.0398353 
-0.0193531 0.0218709 0.0395089 -0.006833 0.0267618 0.0404402 0.0116872 0.0258019 0.0379173 
-0.0090512 -0.0234547 0.0502674 0.020305 -0.0299045 0.0510236 -0.0336379 -0.0136575 0.0531292 
0.0289081 -0.0133596 0.0475458 -0.0282449 -0.001882 0.0510298 -0.00557575 -0.00708143 0.0460092 
-0.0208779 0.00686567 0.0466713 -0.0126155 0.00283972 0.0506102 -0.0020702 0.00309101 0.0460998 
0.00615957 0.000137386 0.051779 0.0273787 0.00968743 0.0508261 -0.00966207 0.0205185 0.0524101 
4.56629e-05 0.0204071 0.0471149 
VERTICES 70 140
1 0 
1 1 
1 2 
1 3 
1 4 
1 5 
1 6 
1 7 
1 8 
1 9 
1 10 
1 11 
1 12 
1 13 
1 14 
1 15 
1 16 
1 17 
1 18 
1 19 
1 20 
1 21 
1 22 
1 23 
1 24 
1 25 
1 26 
1 27 
1 28 
1 29 
1 30 
1 31 
1 32 
1 33 
1 34 
1 35 
1 36 
1 37 
1 38 
1 39 
1 40 
1 41 
1 42 
1 43 
1 44 
1 45 
1 46 
1 47 
1 48 
1 49 
1 50 
1 51 
1 52 
1 53 
1 54 
1 55 
1 56 
1 57 
1 58 
1 59 
1 60 
1 61 
1 62 
1 63 
1 64 
1 65 
1 66 
1 67 
1 68 
1 69 

POINT_DATA 70
FIELD FieldData 7
id 1 70 int
44 732 1464 837 912 1986 1606 936 895 
1371 663 720 467 208 1438 1782 385 1157 
595 2267 398 2166 1751 2117 2149 1929 2782 
2509 2454 2873 2996 2710 2790 3102 2640 2566 
3057 2252 3510 3206 3209 3228 3475 3932 4179 
4006 4181 3841 3364 4052 3265 4362 4280 3857 
3770 3909 3724 5377 4989 4708 4482 5353 5397 
4796 5509 5103 5420 5050 5402 4610 
type 1 70 int
2 2 2 2 2 2 2 2 2 
2 2 2 2 2 2 2 2 2 
2 2 2 2 2 2 2 2 2 
2 2 2 2 2 2 2 2 2 
2 2 2 2 2 2 2 2 2 
2 2 2 2 2 2 2 2 2 
2 2 2 2 2 2 2 2 2 
2 2 2 2 2 2 2 
i 3 70 int
0 0 0 0 0 0 0 0 0 
0 0 0 0 0 0 0 0 0 
0 0 0 0 0 0 0 0 0 
0 0 0 0 0 0 0 0 0 
0 0 0 0 0 0 0 0 0 
0 0 0 0 0 0 0 0 0 
0 0 0 0 0 0 0 0 0 
0 0 0 0 0 0 0 0 0 
0 0 0 0 0 0 0 0 0 
0 0 0 0 0 0 0 0 0 
0 0 0 0 0 0 0 0 0 
0 0 0 0 0 0 0 0 0 
0 0 0 0 0 0 0 0 0 
0 0 0 0 0 0 0 0 0 
0 0 0 0 0 0 0 0 0 
0 0 0 0 0 0 0 0 0 
0 0 0 0 0 0 0 0 0 
0 0 0 0 0 0 0 0 0 
0 0 0 0 0 0 0 0 0 
0 0 0 0 0 0 0 0 0 
0 0 0 0 0 0 0 0 0 
0 0 0 0 0 0 0 0 0 
0 0 0 0 0 0 0 0 0 
0 0 0 
v 3 70 double
-3.2517140015e-07 9.795722758e-08 -8.8048824262e-08 -3.513884085e-08 7.0463658077e-08 1.5662579157e-07 1.1307303136e-07 6.4145548239e-08 5.7915699249e-08 
-3.8506459376e-07 -2.8213215976e-09 -8.7279836654e-07 3.2618349767e-07 -3.2728093389e-07 4.9747057782e-08 -1.3359707422e-07 9.4374452109e-08 8.8882705045e-08 
1.0004918359e-07 -2.9829454468e-07 -1.4546332328e-07 1.5776375746e-07 -2.4771201337e-08 3.2394421565e-07 -1.708460963e-07 7.3703497329e-07 2.04172642e-07 
5.766902349e-07 5.0910561003e-07 -1.1608462241e-07 1.6695249406e-07 -8.0599726382e-09 2.2974933678e-07 -3.8511509292e-08 1.4534495231e-07 -7.1029545505e-07 
6.7512865035e-07 1.3031056517e-06 -7.3769581063e-07 -1.3700477079e-06 8.9122769704e-07 7.3576384223e-07 -1.11251875e-06 4.7986349183e-07 -1.463802703e-07 
2.7542265193e-07 1.4164214072e-07 -1.5590511924e-07 4.3932827826e-07 1.5254226159e-07 -1.6842042161e-06 8.147533084e-07 -7.3566577962e-08 2.5059004901e-07 
7.6574998528e-08 -4.2270399818e-07 1.7136041585e-07 -1.4047388833e-08 -7.3367051927e-08 -4.3000813113e-08 -8.9579292486e-07 -5.0552893551e-07 2.5345795139e-07 
3.3058298545e-07 9.3396378181e-09 -2.6884867043e-07 -5.4511013922e-07 1.7003287847e-07 -4.1686448153e-08 2.7222155148e-07 -2.0919480221e-07 9.9397063481e-09 
-1.4358398233e-07 1.0243631142e-07 -1.6221156805e-09 -1.0485986901e-07 -3.3489733127e-07 -1.004471234e-07 -3.7246547001e-08 -2.115156978e-07 -1.8831322211e-07 
8.4292405575e-08 4.9886359133e-08 6.6478188933e-08 -6.3400487979e-09 1.2238701652e-07 -1.1478018563e-08 -2.2739262418e-07 1.2895036054e-07 2.9309393725e-07 
1.7433748123e-08 1.7070398868e-07 -1.2945125507e-07 1.3119669578e-07 5.4054335611e-07 -9.4852221629e-08 2.2614349788e-07 -2.0790366515e-08 -8.8352723332e-07 
1.2616793607e-06 -1.4880206017e-07 8.2011420589e-07 -2.6413761026e-07 9.1831381953e-08 9.2908223949e-08 -1.8277466987e-08 -1.6589357994e-07 6.3694343324e-08 
-8.1851188519e-08 2.9421479877e-08 -1.1282652837e-07 -7.5559671073e-08 2.0958265327e-07 -3.7997469788e-09 -2.4481065731e-07 -2.5486718336e-08 -1.2889367639e-07 
-3.8427985282e-07 1.9212993495e-07 3.2663324158e-07 -2.3140324382e-07 1.845130713e-07 -2.5819963022e-07 5.8481203137e-08 -1.314870257e-07 -3.4176390936e-08 
1.0043328773e-08 -1.7360546155e-07 2.2817044716e-07 1.3357046757e-07 1.5407138166e-08 1.4792207946e-08 1.5180521362e-07 5.7600514272e-08 -2.0036458457e-08 
2.226831502e-07 2.4125267168e-08 -2.3497434934e-09 -1.0559752177e-07 -1.5874285423e-07 -7.3845794669e-08 2.6601053653e-09 6.3884353405e-08 -7.30110675e-08 
2.7974184954e-07 -1.9564576704e-07 6.0751711287e-07 1.5494684053e-07 2.1347310484e-07 -2.2309852732e-07 -2.6565581726e-07 -1.1640588909e-08 -8.9068952157e-08 
-8.5988159876e-08 -2.4302742863e-08 -1.7050095352e-07 -9.4851085378e-08 1.420998102e-07 -5.28158941e-08 1.2540567603e-07 -7.0382073211e-08 -1.0961240736e-07 
5.1597919934e-07 -4.1586027686e-07 1.6328165801e-06 3.7354605374e-07 -3.3732147799e-07 3.4305575884e-07 -1.7007568743e-07 -3.7342817497e-08 -1.251367119e-07 
2.4382544987e-08 -3.3935086997e-08 1.0616819756e-07 -5.6611848901e-08 -1.0216626939e-07 1.316274957e-07 -2.6945169114e-07 -1.0220544494e-07 -6.4389939314e-09 
2.9300133596e-08 5.4207250962e-08 1.8587468165e-07 7.9738123249e-09 -1.9430049272e-08 -8.4509251663e-08 -2.3473952528e-07 1.9578330608e-07 2.2449359905e-07 
1.4031187122e-07 -7.0985198054e-08 1.3516662132e-07 -1.6856000673e-07 1.6565563906e-07 1.6482556055e-07 1.2290752061e-07 1.8515027497e-07 -2.2037022158e-07 
-7.8537702338e-08 5.7871630447e-08 -2.7474679435e-08 2.1509026298e-07 -7.9130534471e-08 2.6153842661e-08 -4.5459625039e-07 1.8919561602e-07 -5.4395847469e-07 
8.5327589678e-09 5.3898937963e-08 -7.0267066414e-08 
f 3 70 double
-0.00016792074016 9.5618746837e-05 7.6731540511e-05 0.00032023422858 0.00024523480553 0.00028175354432 6.1815850792e-05 -6.4210367643e-05 -0.00037914346393 
-0.00025596520793 5.6962990711e-05 0.00032390925821 -0.00037865428752 -4.7684316443e-05 0.00031918762299 0.00011693213117 0.00016374386708 -7.5782593294e-05 
-0.00013992572404 5.823743203e-05 0.00016947048004 7.200617897e-05 -0.00017832603987 -0.00035900301034 0.00019303122916 0.00017990007295 -0.00067868182831 
0.00048185623586 -7.2535812435e-05 0.00010421371863 1.2476715509e-05 0.00028042220972 -3.9872278414e-05 -7.6218456631e-05 -0.00025459252355 -0.00050027847636 
-0.00011304330518 2.6072678967e-05 -4.6056518512e-05 -0.00025769128743 0.00023017203315 -0.00038848596287 -0.00063686518273 -0.00012152465788 7.3968637783e-06 
0.00021275323601 8.6296087877e-05 -8.8555881241e-05 0.0002833963659 -0.00060204727888 0.00041807996723 0.00042566400344 0.00020501803235 -2.2162032159e-05 
-5.7591861993e-05 -0.00051226182613 -0.00060952990741 -7.5450429588e-06 -0.00014809471257 -8.6902921331e-05 -0.00010678080487 -2.1753164432e-05 0.00030309455147 
1.0464606634e-05 0.00036154759913 -0.00026546605013 0.00015193756877 -2.2245280826e-05 -0.00018940223958 -8.3357130993e-05 9.1564966073e-06 -0.00012686578151 
-1.2316777211e-05 -0.00019827486255 1.5515053678e-05 -9.7093826511e-05 -0.00027997563492 0.00017594572106 6.2391125836e-05 -6.6048548289e-05 8.7036697285e-05 
-4.7426975462e-05 1.6095088824e-05 -0.00014419030145 -6.6876494324e-05 -2.0622039521e-05 -4.2176031617e-05 0.00028831252563 -0.00016216951566 -6.7662019903e-06 
-0.0001037502907 -0.00010736850864 -4.4137287435e-06 0.00015866225252 0.00013747686161 8.2087341992e-05 -3.5069346234e-05 -3.0090239969e-05 -2.8834091083e-05 
-0.00010784542518 7.3060322852e-06 -3.9654421805e-05 -2.8175116434e-05 5.2960036528e-06 5.9001852422e-05 1.2907914158e-05 4.9114688857e-05 1.8452312521e-05 
-0.00028586147629 -5.6339899767e-05 -7.4780555741e-06 0.00016159577148 0.00018140022432 0.0001583626033 -8.5186283505e-06 2.4472752174e-05 -8.8961426127e-05 
-3.2248677177e-05 -0.0001601836537 4.2406366121e-05 4.4560219362e-05 -1.390379316e-06 3.2655643449e-05 7.7295780843e-05 -0.00015946007 -6.7265095657e-05 
0.00013782008479 3.7984016469e-05 -5.8636596227e-05 6.0825882613e-06 2.1562312397e-05 -2.9263346508e-05 -8.5088556675e-05 3.4023710227e-06 -7.7409893036e-05 
-1.2727310983e-06 2.18755114e-05 9.8199816924e-06 6.3285483099e-05 2.993349059e-05 -4.949423489e-05 2.2063354841e-06 -1.4155241812e-05 2.2073848917e-05 
2.897275719e-05 -6.2201792386e-05 -8.4274342395e-05 0.00012107171137 -3.3691787184e-05 -1.1030077485e-05 -4.1206462456e-06 -7.0036149095e-05 -3.5787808751e-05 
5.4262546853e-06 -1.7232917421e-06 7.7810098813e-06 -9.3206730778e-05 1.1826244755e-05 1.3756881583e-05 4.8636121452e-05 4.1149972174e-05 6.7569717143e-05 
-2.8372002018e-05 3.3577619488e-05 0.00013119189577 -0.00018573810992 7.4106211632e-05 8.9879761823e-05 1.53008125e-06 2.3086514898e-05 -1.3802041441e-05 
2.1129505269e-05 -5.3360577339e-08 6.2736247051e-06 -5.2523977143e-06 -2.6169535703e-05 -6.6801926476e-06 -0.00017683761496 -1.0580605344e-05 5.0624137822e-06 
-9.7516333254e-06 -2.4884108727e-05 7.1728406388e-05 -1.9020096799e-05 -3.7155670125e-05 -1.0078164419e-05 -0.00010803291522 -0.00014619260985 6.8180617276e-05 
-4.9147351385e-05 3.3087179763e-05 3.3563044824e-05 -1.481418898e-06 5.9740267748e-06 8.0471669543e-06 4.9702733584e-05 3.2242927354e-06 -5.1114948831e-05 
-3.7441410571e-05 -5.2737135961e-05 -1.7276666334e-05 -6.9490466617e-05 2.9832369653e-06 -6.0636760674e-06 0.00011897839865 -1.6680979129e-05 8.304737435e-06 
4.2675514455e-05 -2.5294100741e-05 -9.3953799401e-06 
radius 1 70 double
0.005 0.005 0.005 0.005 0.005 0.005 0.005 0.005 0.005 
0.005 0.005 0.005 0.005 0.005 0.005 0.005 0.005 0.005 
0.005 0.005 0.005 0.005 0.005 0.005 0.005 0.005 0.005 
0.005 0.005 0.005 0.005 0.005 0.005 0.005 0.005 0.005 
0.005 0.005 0.005 0.005 0.005 0.005 0.005 0.005 0.005 
0.005 0.005 0.005 0.005 0.005 0.005 0.005 0.005 0.005 
0.005 0.005 0.005 0.005 0.005 0.005 0.005 0.005 0.005 
0.005 0.005 0.005 0.005 0.005 0.005 0.005 
omega 3 70 double
-2.5130974998e-06 1.1313353105e-05 6.9020549105e-05 -1.5272781782e-05 1.868991852e-05 6.1064038906e-05 -3.0088401082e-05 2.9180873427e-05 2.0193002007e-05 
4.3341940437e-05 0.00056374992623 -1.2682984509e-06 6.7533587131e-05 -0.00021100821601 -4.0098543559e-05 -5.4338100604e-05 1.0482433253e-05 7.2995013657e-05 
-2.5898119372e-05 4.2154910794e-06 4.9671397189e-06 3.2877907818e-05 4.3678047944e-05 -0.00013937718499 3.2784276228e-05 0.00015677498325 0.00016860527056 
0.00017982705391 0.00015625728835 0.00030269585064 4.2555609682e-05 2.6664203819e-05 2.3766811547e-05 0.00021664904075 4.7841979204e-05 -0.00019489419202 
-0.00040775951325 0.00037205445692 0.00016801927969 -0.000743370317 0.00031793121059 0.00010910380298 0.00019955588145 0.00039243087237 4.8038110711e-05 
-7.7844152574e-05 3.0444747691e-06 -0.00011434900616 0.00014158152909 -0.00024996295931 -0.00019706988903 8.8705804034e-06 8.2006482873e-05 -0.00082770391603 
-0.00043439951038 0.0004155136353 0.0001646180562 5.0043372169e-05 -0.000206971297 6.3153075432e-05 -0.00010653216694 -6.6495020209e-05 0.00010814513885 
-2.6575343652e-05 3.7924526121e-06 -0.00016323699596 0.00015519150813 1.7361970272e-05 8.5158083952e-06 -0.00010187866121 -6.1131835851e-05 -0.00010221360826 
3.6423782879e-05 2.9670206685e-06 -2.6606807066e-05 0.00011039514641 4.5050910937e-05 -5.3170037377e-05 -4.6845986559e-05 -7.0602451067e-05 0.0001112919404 
-5.5659062277e-06 -7.875421148e-06 -5.8854407409e-06 -3.9455332192e-05 -5.952225928e-05 -9.1013655309e-06 1.7209489039e-05 -0.00011225433227 5.7092690662e-05 
6.8562007949e-06 7.6112048886e-06 1.8890329486e-05 6.7496840883e-05 0.00021452725833 0.00019722357783 -0.00018138606481 0.00031991505297 -1.3880957263e-05 
1.3011187886e-05 -0.00034325679321 -1.8515305279e-05 4.6915698246e-05 -3.2708516548e-05 5.2997871368e-05 -9.2500730811e-05 -7.2169051746e-05 0.00017556041279 
-5.6169845523e-05 3.6456444575e-05 -5.1127971776e-06 -2.4284443565e-05 -5.0549477462e-05 -2.4388467327e-05 1.1266304961e-05 3.1765529639e-05 2.7773420955e-06 
3.7386875039e-05 -6.6541539521e-05 7.4232584837e-06 5.4592133021e-05 -2.913673218e-05 -3.9525407956e-05 -3.6218385532e-05 9.1686416375e-05 -3.715688234e-06 
-1.2532777265e-05 -4.1578020418e-05 4.8927465517e-05 2.7895537841e-05 1.2334369497e-05 -5.9282841313e-05 3.8553924607e-07 -8.5404752039e-05 -6.5181974296e-05 
-4.1386862311e-05 6.2787805771e-05 -1.4977537827e-05 4.2182001799e-05 5.016782651e-06 -2.7529106883e-05 0.00013794237228 7.6238113074e-05 4.306789083e-05 
6.768312222e-05 3.5430255005e-05 -8.4285991988e-05 7.8459281969e-05 0.00012238694623 0.00012482918652 5.2262647545e-05 -5.7260467044e-05 2.1423919816e-05 
2.1179525833e-05 -3.8730460021e-05 1.3722472682e-05 2.3568780249e-05 0.00011191155956 4.6895751209e-06 -0.00018363570295 -3.2782362784e-05 8.2799294955e-05 
0.00015696294023 -4.5390503479e-05 -2.8787637207e-05 2.3144694399e-05 0.000167192258 0.00015038095792 -5.1602079415e-05 3.4841961605e-05 2.0626356324e-05 
2.0150676663e-05 1.5956520036e-05 -4.9219845883e-05 3.8114617758e-06 -2.0072806322e-05 -1.1778605155e-05 -5.5710618264e-05 0.00020973279396 -3.9243555547e-05 
2.7014102814e-05 2.7874634947e-05 3.9126646109e-05 -4.5784496149e-05 4.7248960352e-06 -1.8170458272e-05 5.7252944319e-05 0.00014534722481 4.3230795638e-05 
-2.5050026962e-05 3.7170278323e-06 1.3395868259e-05 -3.3229213215e-05 -6.0898697446e-05 7.7106987011e-07 -8.4489490686e-06 -7.3061993737e-05 -3.1963208644e-06 
1.1583908333e-06 1.7929983115e-05 1.0671659518e-05 -2.2492834594e-05 3.6152283694e-05 1.8039897266e-05 2.4451530251e-05 2.0555218497e-05 -7.6137866704e-06 
5.3804480235e-06 -2.0967870501e-05 -1.3994447526e-05 
