# vtk DataFile Version 4.2
Generated by LIGGGHTS
ASCII
DATASET POLYDATA
POINTS 70 float
-0.0112371 -0.0178994 0.0142898 -0.00108629 -0.018145 0.00829792 0.010322 -0.0174432 0.00814495 
-0.0173799 -0.0128923 0.014439 -0.00568121 -0.0142389 0.00909565 0.00295235 -0.0132351 0.0136157 
0.0136297 -0.00966903 0.00969017 -0.0135676 -0.00700277 0.0115081 -0.00610996 -0.00786123 0.0135038 
-0.00152111 -0.00422976 0.0104877 0.00550969 -0.00729184 0.00847535 0.0167427 -0.0025732 0.0113395 
-0.0146657 0.00405825 0.0141996 -0.00225939 0.00698576 0.0138647 0.00968914 0.000830518 0.0108681 
-0.0139679 0.0137988 0.0103869 0.000104234 0.0137317 0.0111718 -0.00817298 0.0179306 0.0107595 
0.00639113 0.0181888 0.00953141 0.00182677 0.0217938 0.0142239 -0.00956573 -0.0163498 0.0220949 
-0.00194038 -0.0186809 0.0152171 -0.000978358 -0.0218307 0.0209098 0.0059562 -0.0190631 0.0166911 
0.0138349 -0.0168064 0.0175384 -0.0199936 -0.00844998 0.0204667 -0.00342371 -0.013831 0.0217543 
0.00817396 -0.00913753 0.0177071 0.0173661 -0.0120678 0.0147306 -0.00710052 -0.000504611 0.0174147 
-0.00314824 -0.00688177 0.0195563 0.0089396 -0.00319488 0.0173553 0.0154521 -0.0040359 0.0209716 
0.0218237 -0.00238192 0.0145886 0.0214147 -0.00457777 0.0223525 -0.0160911 0.000772254 0.0211383 
-0.00947072 0.0064045 0.0199488 -0.000530512 0.00633829 0.0219436 0.00741534 0.00295267 0.0172733 
0.0164423 0.00395351 0.019195 -0.0171098 0.0104774 0.0167889 -0.00857382 0.0123366 0.0197516 
0.00784279 0.0134563 0.0161662 0.00215965 0.0138269 0.0228626 -0.00346622 0.0179607 0.016858 
-0.00662387 0.0190033 0.022209 0.00579469 0.0193208 0.0210416 -0.00472855 -0.0210832 0.027588 
0.00198471 -0.0169962 0.0280949 0.0131585 -0.0173938 0.0278454 -0.0157344 -0.00821738 0.0251711 
-0.00927441 -0.0120211 0.0282532 -0.000485433 -0.0100138 0.0284179 0.00487031 -0.00993494 0.0256679 
0.0120913 -0.0125697 0.0239427 0.0190306 -0.0108774 0.0234146 0.0173123 -0.0094967 0.0300466 
-0.0201305 -0.00267594 0.0284094 -0.0107226 -0.00489325 0.0300072 -0.00182711 -0.00322661 0.0287094 
0.00377801 -0.000205072 0.0283214 0.0105948 -0.00709961 0.0300736 0.0102609 -0.000863303 0.0286813 
0.0182631 -0.00121023 0.0297646 -0.0180478 0.00676931 0.0263931 -0.0117946 0.00639889 0.0280237 
-0.0144197 0.0163869 0.0237733 0.00766513 0.0122672 0.0272018 0.0152161 0.0154007 0.0257747 
-0.0128869 -0.0171948 0.0315571 
VERTICES 70 140
1 0 
1 1 
1 2 
1 3 
1 4 
1 5 
1 6 
1 7 
1 8 
1 9 
1 10 
1 11 
1 12 
1 13 
1 14 
1 15 
1 16 
1 17 
1 18 
1 19 
1 20 
1 21 
1 22 
1 23 
1 24 
1 25 
1 26 
1 27 
1 28 
1 29 
1 30 
1 31 
1 32 
1 33 
1 34 
1 35 
1 36 
1 37 
1 38 
1 39 
1 40 
1 41 
1 42 
1 43 
1 44 
1 45 
1 46 
1 47 
1 48 
1 49 
1 50 
1 51 
1 52 
1 53 
1 54 
1 55 
1 56 
1 57 
1 58 
1 59 
1 60 
1 61 
1 62 
1 63 
1 64 
1 65 
1 66 
1 67 
1 68 
1 69 

POINT_DATA 70
FIELD FieldData 7
id 1 70 int
3867 1617 1999 5432 209 942 901 4210 1446 
3500 5417 3959 4735 5547 2526 665 3532 4635 
596 1796 5388 1762 1943 2813 914 4394 736 
3755 2654 3230 2469 2182 724 468 1477 3387 
3117 5438 2282 44 5024 2889 5141 398 5455 
3884 5080 3936 842 2726 3015 3793 2582 4035 
4085 2132 2268 3233 3076 3295 3250 1166 4213 
4507 385 2163 4832 1380 4318 2801 
type 1 70 int
2 2 2 2 2 2 2 2 2 
2 2 2 2 2 2 2 2 2 
2 2 2 2 2 2 2 2 2 
2 2 2 2 2 2 2 2 2 
2 2 2 2 2 2 2 2 2 
2 2 2 2 2 2 2 2 2 
2 2 2 2 2 2 2 2 2 
2 2 2 2 2 2 2 
i 3 70 int
0 0 0 0 0 0 0 0 0 
0 0 0 0 0 0 0 0 0 
0 0 0 0 0 0 0 0 0 
0 0 0 0 0 0 0 0 0 
0 0 0 0 0 0 0 0 0 
0 0 0 0 0 0 0 0 0 
0 0 0 0 0 0 0 0 0 
0 0 0 0 0 0 0 0 0 
0 0 0 0 0 0 0 0 0 
0 0 0 0 0 0 0 0 0 
0 0 0 0 0 0 0 0 0 
0 0 0 0 0 0 0 0 0 
0 0 0 0 0 0 0 0 0 
0 0 0 0 0 0 0 0 0 
0 0 0 0 0 0 0 0 0 
0 0 0 0 0 0 0 0 0 
0 0 0 0 0 0 0 0 0 
0 0 0 0 0 0 0 0 0 
0 0 0 0 0 0 0 0 0 
0 0 0 0 0 0 0 0 0 
0 0 0 0 0 0 0 0 0 
0 0 0 0 0 0 0 0 0 
0 0 0 0 0 0 0 0 0 
0 0 0 
v 3 70 double
-0.098595824895 0.093797325925 0.29073243152 -0.046503114332 0.068527652285 0.30957263222 0.050582824017 0.050838828945 0.28002917136 
-0.090640245217 0.15245568226 0.3502938079 -0.045459988303 0.085106769015 0.3218871228 -0.02738960645 0.095143168062 0.31816655518 
-0.015464245658 0.12929358281 0.30805780982 -0.069622375127 0.094806811538 0.35852399884 -0.033925367832 0.087585463817 0.32887972256 
-0.024683600176 0.10156895243 0.36157180482 -0.028224648349 0.11542371302 0.34227550865 -0.0090551497012 0.1344278328 0.36318135916 
0.0071450604367 0.10487856988 0.37791607909 -0.045028780765 0.065292125877 0.41519436884 -0.02585855173 0.12148839709 0.35867426959 
-0.010238943409 0.07370121006 0.39843290488 -0.048498864585 0.045286935156 0.39877351576 -0.028594922128 0.06054647478 0.42849305418 
-0.11059004573 0.043045638492 0.38995842311 -0.082794399805 0.020843439809 0.41816635059 -0.05830761548 0.11303194989 0.29086642985 
-0.050278753309 0.045985362804 0.27241294027 -0.13114200741 0.011623593768 0.23091181575 -0.036792719031 0.040493418247 0.23211651888 
0.028065598103 0.055204283355 0.14394656994 -0.074105922358 0.19573881449 0.32578076888 -0.11033613582 0.1031481524 0.20744813623 
-0.0137768045 0.13227100867 0.298882153 0.036948298529 0.14326233913 0.27317587985 -0.026381628051 0.12644622681 0.38381137638 
-0.036451231999 0.13052261454 0.30972440927 -0.030377790908 0.12327289029 0.3681397269 0.025328546916 0.15378269355 0.28971022741 
0.026068090567 0.19218983817 0.32610787546 0.026819237266 0.18225060568 0.25404482217 -0.033918698713 0.17110778953 0.35983054585 
0.0042283788598 0.084471257473 0.45361543192 -0.031904080591 0.081950846846 0.44154946166 -0.030970613839 0.12332405115 0.37129237073 
-0.052594545879 0.19807021242 0.37607297681 0.036884809929 0.083393549194 0.45351242221 -0.0043511861957 0.078472659343 0.47979733257 
-0.073029245383 0.076714424875 0.42820122459 -0.059421043317 0.036990280433 0.46817582538 -0.066310039658 0.030443369108 0.44548780131 
0.010261663647 0.06602020806 0.55818031586 -0.088241241069 0.037988007779 0.41128768273 -0.011033033379 0.014377327696 0.32803832407 
-0.058130988985 0.11365488608 0.17249720916 0.052585239649 0.037169771699 0.066986494824 -0.08627209618 0.17151704552 0.29784239814 
-0.040355987764 0.20720073306 0.25072061712 -0.063711857546 0.13704724649 0.17205045104 -0.030197488123 0.12121688656 0.23409122061 
0.012702577304 0.11377204826 0.10394454868 0.062741046914 0.10915109203 0.21712312053 -0.010731041737 0.051355201726 0.21988290152 
-0.034143132403 0.17866738861 0.46812769151 -0.21134350179 0.31420518309 0.41194286176 -0.044377936773 0.19120674922 0.34327400015 
-0.16619599554 0.18650263306 0.49008590377 -0.0086495041436 0.16881118095 0.22029462923 -0.035379171336 0.18055972946 0.38256793703 
0.011387578347 0.15667259288 0.18863818711 0.05307711571 0.09922203038 0.54062576014 0.0015696965086 0.12599665868 0.55880060379 
0.038183877351 0.035931695934 0.60972382473 -0.1173773276 0.062329569967 0.54534743794 -0.13920483601 0.12766637642 0.5107557721 
-0.02689696082 0.026410737132 0.048585601939 
f 3 70 double
0 0 -0.0098744152677 0.00027542575855 0.00083469919839 -0.013882491705 0.00094655165596 0.010961704097 -0.0041455454249 
-0.011707519529 -0.021090171406 0.0023923313868 -0.0034958441166 -0.0013674909899 -0.0050475381986 0 0 -0.0098744152677 
-0.0073967421314 0.0050497311612 0.0091932113665 0.022383808535 -0.024302012365 0.0057181400207 0.0076380740209 -0.012763511863 -0.0025073467783 
-0.014557115875 0.0018623685175 0.012494824747 0.013631547801 -1.8437873164e-05 0.014764918033 0.0020370497482 0.0047923286793 -0.0079536224411 
0.011615559524 -0.032994275746 0.0043234410365 -0.022662107775 -0.067685416142 0.025367794109 0.00058464951937 -0.0046934180344 -0.0022334436827 
0.00072985843232 -0.011208904701 -0.018574545526 0.021879732293 0.046131011519 -0.0075091962422 0.028272811043 0.0083413564062 0.016849561364 
0.049508712316 -0.02320928242 0.017510373235 0.0081340578874 -0.0045606431864 -0.0042116492942 0 0 -0.0098744152677 
0 0 -0.0098744152677 0 0 -0.0098744152677 0 0 -0.0098744152677 
0.013790920139 -0.0015611135843 -0.060469330198 0.002116077806 -0.0018335597065 -0.0073871467927 -0.0040661908311 -0.0005962007216 0.0088506386711 
0.0078013982471 -0.0042997277868 -0.016871775416 5.7011933469e-05 -0.00046680255301 -0.010191709122 0.023712067608 -0.021747244279 0.016897931117 
-0.001643446456 -0.0036657676397 -0.0086595455812 -0.00066410044402 0.0013318775277 -0.031492196344 0.028305805313 -0.002647129969 0.011116572864 
-0.0006160137744 0.00047026910254 -0.0076407741525 0.00092056640986 -0.00025240997017 -0.01109804794 0.0078549679326 -0.051137194801 0.068681468241 
0.02038296785 -0.019638659553 -0.0081462908859 0.024062972968 -0.01479725774 -0.003943837337 0.022323415519 -0.01980662802 0.014886905507 
-0.0061733436688 -0.011258113399 -0.018884256627 -0.022732179145 0.0014273580323 -0.018697632334 0.024809987709 -0.021615710134 -0.015557995963 
0.011555924146 -0.020823796198 -0.0013259355594 0.014731264216 -0.019302281723 0.0083890590493 0.0019094695552 -0.022985428141 -0.016320173222 
0.018658286401 -0.10830225308 0.010380241201 0.011028369307 -0.064307419011 -0.010156897255 0.010834327251 -0.0016035263234 -0.011247631774 
-0.0038830944689 -0.0080646537489 -0.028495718714 0.012703013801 0.012174645199 0.011951765787 0 0 -0.0098744152677 
1.9270840953e-05 2.8748448047e-05 -0.009891830818 0 0 -0.0098744152677 0.00050572822091 0.0012149622543 -0.0098508914636 
0 0 -0.0098744152677 0 0 -0.0098744152677 0 0 -0.0098744152677 
0 0 -0.0098744152677 0 0 -0.0098744152677 0 0 -0.0098744152677 
0.048634035299 -0.076691615228 -0.0084426490031 0 0 -0.0098744152677 0 0 -0.0098744152677 
0.036990389297 0.0097676255711 -0.042640214052 0 0 -0.0098744152677 -0.00022206269486 -0.031426414146 0.014388986506 
0.012451502026 0.032978247414 -0.014850326533 0.0043427316099 -0.013887828848 0.0013493713627 0 0 -0.0098744152677 
0 0 -0.0098744152677 
radius 1 70 double
0.003 0.003 0.003 0.003 0.003 0.003 0.003 0.003 0.003 
0.003 0.003 0.003 0.003 0.003 0.003 0.003 0.003 0.003 
0.003 0.003 0.003 0.003 0.003 0.003 0.003 0.003 0.003 
0.003 0.003 0.003 0.003 0.003 0.003 0.003 0.003 0.003 
0.003 0.003 0.003 0.003 0.003 0.003 0.003 0.003 0.003 
0.003 0.003 0.003 0.003 0.003 0.003 0.003 0.003 0.003 
0.003 0.003 0.003 0.003 0.003 0.003 0.003 0.003 0.003 
0.003 0.003 0.003 0.003 0.003 0.003 0.003 
omega 3 70 double
-1.4737500075 -0.50763414534 -11.420654941 -5.0456724245 7.2491528688 0.26063040984 2.9215959441 10.340139875 -0.30758073045 
-0.22983819596 -2.9737665571 1.7279948368 2.6386228088 -11.536491155 -5.7089763203 -6.4032435561 -3.7049622689 -9.580004823 
17.201546194 1.6555353384 16.697235073 0.43354575405 3.8992094401 -14.282466348 9.6665770322 6.0247023608 -5.7830156365 
-6.7257930917 0.26244338007 -2.9635936737 7.9879000362 -1.4591607966 -14.728259835 7.7337376949 2.370952933 6.498665225 
10.313605244 -1.3449918331 -0.49623174534 4.8505893434 -5.1387179238 0.19167600096 1.5034643076 -5.3601954213 -1.3569172843 
7.7793653581 0.84031751619 3.8252521537 -8.1218257273 -5.6692732494 3.6809299437 -5.6082870248 -1.5176334795 -4.6727107006 
2.3368782654 7.4034251054 12.756556482 -15.996217781 6.1765649292 3.8294481342 19.918313071 5.0662391574 -4.046195917 
6.2574926976 -2.5116723249 -3.9616565845 -21.792680529 13.465130327 -17.267078266 5.8712717631 9.5749981948 3.0353113613 
-15.199994453 -4.9496945281 12.127787409 -10.346868154 0.49629278834 -3.2823767885 21.21379527 21.965324879 16.926751387 
7.0476959467 7.2665170257 3.1579965142 13.946647525 -2.2510573431 17.871729272 -9.95570722 -8.7502099442 6.9889817038 
29.611397402 4.63368505 0.34513671954 -6.5473775546 1.4007314334 1.7968192732 9.8752207639 -0.067964411592 13.529229853 
3.0050872391 3.2745876547 7.8194793946 -3.6341731491 -1.9658917278 -10.590578861 18.039586712 0.016755057974 -11.637331129 
7.8282056879 1.6985982427 -10.840477079 7.0533992978 -3.2724609793 8.4207892161 3.8206986506 -0.36388693439 6.0277640751 
10.700484736 7.4397020474 10.606467587 12.272963399 7.4960905965 0.18504152047 5.4657337841 -6.2104283114 -0.018252730123 
-0.74995375719 -11.17731865 2.4257257929 -8.911106301 -3.7091212953 -4.1448219187 -1.5105258946 -0.78308926649 7.238730874 
-2.2365926448 20.663988713 2.8346092924 -1.7759363374 -0.66776141037 11.091985263 -0.15261804685 15.711381861 4.3400193621 
-20.512748264 23.407688672 17.937148089 -7.6779278037 7.2261950308 17.705050643 20.633153872 -23.716803802 -2.6583342076 
-59.212588892 -22.368353458 9.8582208192 12.302169479 -26.869703151 15.327017201 18.804552931 12.010232043 -28.093977398 
35.60711386 10.933584444 -18.036265508 33.621588069 9.8897865545 38.237734997 -13.469256462 17.743179849 -22.817406315 
38.446433422 11.693678408 -11.392638532 74.962273556 -10.057926512 43.164147572 15.594749184 56.055105734 -44.339551669 
24.39143056 2.4315756766 -0.80020718272 -12.76727046 -25.246907844 19.601657237 -2.4242520413 17.161422466 -16.137204052 
14.998920766 1.7859167278 17.653608835 17.486507867 5.0127840155 -15.747522304 -60.045377614 -84.423454975 -4.8994789683 
15.10163129 28.040343416 2.8000579309 -11.910853203 -42.698522245 0.87742847982 9.3301879809 6.3431965523 7.4449219874 
-1.1660629661 -18.890733273 3.6006287444 
