# vtk DataFile Version 4.2
Generated by LIGGGHTS
ASCII
DATASET POLYDATA
POINTS 70 float
0.0073908 -0.01744 0.0107626 0.00129447 -0.0187452 0.0144344 -0.0178715 -0.0126879 0.00968062 
-0.0120318 -0.00962416 0.00881645 -0.00872917 -0.0158908 0.00940311 -0.00666362 -0.0104449 0.0141551 
5.8816e-05 -0.013435 0.0114182 0.0115058 -0.00893706 0.00799931 0.0124269 -0.0157476 0.0135549 
-0.0145386 -0.00211573 0.00799947 -0.0154605 -0.00738406 0.0143839 -0.00701142 -0.00372766 0.00946115 
-0.00103505 -0.00611839 0.0132578 0.00154995 -0.000698217 0.0118998 0.00816744 -0.00782825 0.0145222 
0.00937642 -0.000674516 0.0121516 -0.0216181 0.00345172 0.00928016 -0.0173654 0.000148278 0.0149978 
-0.0163014 0.00612922 0.00853411 -0.0103031 0.0049618 0.00916283 -0.000240966 0.00562479 0.00799895 
-0.00501863 0.00657414 0.0115005 0.00713063 0.00676873 0.00940106 -0.0169496 0.0138174 0.0120483 
-0.00828986 0.0139257 0.00986368 -0.00505417 0.014519 0.0148799 0.00593827 0.0147865 0.0103357 
0.00144931 0.0114037 0.0124321 0.0139714 0.0113905 0.0129911 -0.00240407 0.0217175 0.00940815 
0.0042887 0.0207362 0.0093467 -0.010762 -0.01688 0.0164627 -0.0124878 -0.0177235 0.0233616 
0.00105738 -0.0199245 0.0214316 0.0107208 -0.019054 0.0216468 0.00233844 -0.011157 0.0186635 
0.0151856 -0.00988755 0.01666 0.0100634 -0.0136455 0.0191352 -0.0138888 -0.00710889 0.0228459 
-0.00698955 -0.00516639 0.0196684 -0.0010765 -0.00435195 0.0210894 0.00637191 -0.0021258 0.0189668 
0.0101529 -0.00662668 0.0217015 0.0168846 -0.00130356 0.0174664 -0.0104331 0.00425653 0.018726 
-0.00241462 0.00011457 0.0163318 -2.49191e-05 0.00604371 0.016889 0.0110764 0.00507333 0.0203427 
-0.0144035 0.0119621 0.0193969 0.00955417 0.0162626 0.0202372 -0.00958488 0.018209 0.0198162 
-0.00029632 0.0209962 0.0166948 0.00476786 -0.0192881 0.0261028 -0.00216749 -0.0137205 0.02592 
0.00905241 -0.0112179 0.0311218 0.00203691 -0.00109665 0.0275438 0.0149256 -0.00146241 0.0257754 
0.0184564 -0.000818882 0.0305833 -0.0127813 0.00102013 0.0259359 -0.00893043 0.00363096 0.0301914 
-0.00126169 0.00505118 0.0241651 0.00855637 0.0039864 0.0294825 0.0218428 0.00161292 0.0262686 
-0.0112416 0.0100385 0.0260021 -0.00378396 0.011288 0.0290196 0.00171816 0.0147431 0.0252213 
0.00480558 0.00850102 0.0263641 0.0102965 0.0165694 0.0265056 0.0172506 0.0103527 0.0248991 
-0.008833 0.0186386 0.028137 
VERTICES 70 140
1 0 
1 1 
1 2 
1 3 
1 4 
1 5 
1 6 
1 7 
1 8 
1 9 
1 10 
1 11 
1 12 
1 13 
1 14 
1 15 
1 16 
1 17 
1 18 
1 19 
1 20 
1 21 
1 22 
1 23 
1 24 
1 25 
1 26 
1 27 
1 28 
1 29 
1 30 
1 31 
1 32 
1 33 
1 34 
1 35 
1 36 
1 37 
1 38 
1 39 
1 40 
1 41 
1 42 
1 43 
1 44 
1 45 
1 46 
1 47 
1 48 
1 49 
1 50 
1 51 
1 52 
1 53 
1 54 
1 55 
1 56 
1 57 
1 58 
1 59 
1 60 
1 61 
1 62 
1 63 
1 64 
1 65 
1 66 
1 67 
1 68 
1 69 

POINT_DATA 70
FIELD FieldData 7
id 1 70 int
2132 2726 1617 942 1943 2582 901 44 2526 
209 1446 1166 724 1999 2654 596 1762 2163 
665 736 914 2813 1796 385 842 3233 2268 
2889 398 1380 1477 2469 3936 3793 3015 3959 
2282 3230 5024 3500 3755 3387 4085 468 3532 
2182 3117 3884 3295 3250 2801 3076 3867 4035 
5438 5417 4507 5547 4832 5432 4735 5455 5080 
4394 5388 4318 4210 4213 4635 5141 
type 1 70 int
2 2 2 2 2 2 2 2 2 
2 2 2 2 2 2 2 2 2 
2 2 2 2 2 2 2 2 2 
2 2 2 2 2 2 2 2 2 
2 2 2 2 2 2 2 2 2 
2 2 2 2 2 2 2 2 2 
2 2 2 2 2 2 2 2 2 
2 2 2 2 2 2 2 
i 3 70 int
0 0 0 0 0 0 0 0 0 
0 0 0 0 0 0 0 0 0 
0 0 0 0 0 0 0 0 0 
0 0 0 0 0 0 0 0 0 
0 0 0 0 0 0 0 0 0 
0 0 0 0 0 0 0 0 0 
0 0 0 0 0 0 0 0 0 
0 0 0 0 0 0 0 0 0 
0 0 0 0 0 0 0 0 0 
0 0 0 0 0 0 0 0 0 
0 0 0 0 0 0 0 0 0 
0 0 0 0 0 0 0 0 0 
0 0 0 0 0 0 0 0 0 
0 0 0 0 0 0 0 0 0 
0 0 0 0 0 0 0 0 0 
0 0 0 0 0 0 0 0 0 
0 0 0 0 0 0 0 0 0 
0 0 0 0 0 0 0 0 0 
0 0 0 0 0 0 0 0 0 
0 0 0 0 0 0 0 0 0 
0 0 0 0 0 0 0 0 0 
0 0 0 0 0 0 0 0 0 
0 0 0 0 0 0 0 0 0 
0 0 0 
v 3 70 double
-0.0010331309352 -0.00053226732169 0.39131201145 -0.00072155182413 0.00028443767864 0.39201112708 -0.00021567870833 0.0006019841537 0.39056337975 
0.00049145404316 0.00051436285178 0.39089722122 0.00019940998316 0.00067654308528 0.39090862434 -0.00019427721735 0.00041246100446 0.39171634204 
-0.00010075557171 -0.00052331349128 0.39154643594 -0.00050831568006 -0.00055387000568 0.39042246487 -0.00100912791 -0.00021478092433 0.39195875334 
0.00074708479707 0.0013134280046 0.39030742253 8.8302939785e-05 0.00056420071318 0.39102872914 0.00014670628406 0.00075258937962 0.39107380915 
-0.00025123366068 0.00023777402044 0.39180958257 -0.00034554562151 0.00035153840661 0.39202297325 0.00062300927772 -0.00040769109434 0.39196485145 
-6.6250983405e-05 -0.0001560079573 0.39221888673 0.00041949838414 0.0020736549462 0.39071669034 0.00062706639491 0.0005047129261 0.39101832248 
0.00073085491664 0.0017254045096 0.39105358686 0.00050209931367 0.00098460636989 0.39130742764 -0.00010319222402 0.0003582932562 0.39030959937 
0.00059231795009 5.9248633906e-05 0.39155739477 -8.2092452283e-05 -6.263544708e-05 0.39111914261 0.0017927477022 0.0022465100596 0.3929832374 
0.0013643158848 0.00091358582748 0.3915554152 -0.00032566677718 0.00031089762325 0.39285561005 -0.0001923516667 -0.00050155492704 0.39185529504 
-0.00023713473738 -0.00050554762257 0.39206691735 8.2841393868e-05 -0.00042351568984 0.39267476739 0.0010625212617 0.00017832694961 0.39134709258 
0.0010895094182 -0.00045005174208 0.39140438183 -0.00058472575311 0.00043402275187 0.39105847405 -0.0012475335015 0.0005560993571 0.39151425452 
-0.00032330492218 0.00019834454782 0.39275632506 -0.00049791439533 -0.00033778981676 0.3924466767 -0.00059827014665 -1.4315378421e-05 0.3925801403 
-9.733027764e-05 -0.00026590118485 0.39256514784 6.4146466067e-05 -0.00037674606047 0.39260997183 -7.2401172425e-06 0.0002502647489 0.39166260882 
0.00024637147295 -0.0001122961119 0.39205761264 -5.0102150268e-05 -0.00024863409187 0.39318694274 -0.00014860121907 -0.00050324094072 0.39221257276 
-1.1773727077e-05 -0.00053571801183 0.39313745074 0.00013214877558 -0.00018956554217 0.392927678 -0.00055370772921 0.000508908419 0.39356724133 
-5.3751187124e-05 0.00043537609704 0.39294008399 0.00053993286629 -0.00032221268503 0.39268798227 0.00013033309622 -0.00043597982617 0.39345724564 
0.0010006730331 0.0011322241224 0.39264655583 0.00038845150122 0.00024317580466 0.39404741822 0.001497427714 0.001335876919 0.3940940576 
0.00032673391134 -4.8785150156e-05 0.39247794497 -0.0011744959506 -0.00046436561355 0.39265909828 -0.00028125059967 -0.00070596225615 0.39368769532 
-7.420580005e-05 0.0012131816642 0.39390496537 0.00023337937442 -0.001474082606 0.39396850539 0.00024093770191 -0.0010620984388 0.39334496306 
-0.00019823301016 -0.00071594934959 0.39386979138 0.00011251058031 -0.000264630807 0.39425469396 6.2026380858e-05 0.00076922973359 0.39450126837 
0.0005368423362 2.8864993525e-05 0.39333929967 0.0010025421318 -0.000453883961 0.39347274531 0.00042354321668 -0.00031290924636 0.39401128809 
8.0303635144e-05 -0.00015165188937 0.3956033038 -0.0007259977901 -0.0006066502433 0.39341341236 0.00060698449212 0.00020520396319 0.3931400716 
0.00038038684615 -0.00018272825211 0.39414884408 0.0012570239777 0.00046309013896 0.39366668127 0.00042168110696 -0.00022156958647 0.39398637586 
0.0034371925925 -0.0008862278111 0.39436017583 
f 3 70 double
0.00043526103888 0.00046109305546 -0.00063043510121 -0.0004548837044 -7.1337179694e-05 0.00051128775765 0.00026217214405 0.0010687656198 -0.00070482206273 
2.1687459013e-05 2.7159702145e-05 -0.0001160533923 0.00071904057876 0.0009244813041 -0.00081080929064 -0.00029875168791 -0.00069966241485 -0.00086026031245 
0.00015643015364 0.00066152042577 -2.799338057e-05 -0.00028977355374 2.29787271e-05 -0.00027613087675 0.0001258927803 -0.00041436220778 -0.00023449648798 
0.00044374560946 -0.00014282665572 -0.00028468189788 0.00031114766538 -1.6541977599e-05 -0.0014666266918 0.00020756845215 -3.1882895238e-05 -2.9677281622e-05 
0.0003360969664 0.00080945885083 5.4153181598e-05 0.00014232631021 0.00087253879318 -0.00010038482473 -0.00039928535964 -0.00048317411288 -0.00038350662435 
0.00024417733576 0.0011947237065 -4.4843388387e-05 -4.8491935061e-05 0.00019065185633 -0.00042677138843 0.00038997163327 -4.1808917064e-05 0.00046043428405 
5.4903775698e-05 0.00092626336514 -0.00034081299265 0.00041734110628 -0.00011028535875 -0.00010830518542 3.0046424656e-05 -0.00028539019215 0.00063081650273 
-0.00084131991002 0.00082963126273 1.1264575285e-05 -0.00010114860217 0.00016442813556 -0.00056178446875 0.00034738376104 0.00036273592494 -0.0018573377766 
0.00088364053619 -0.00058869817761 -0.00070697351077 0.00048022743297 -0.00061353541086 -0.00011893016294 0.00024528029892 0.0005244008916 0.00028740326933 
-0.00074486470425 0.00040559970637 -0.0001201570665 -0.00029888986266 0.00015163214176 0.00076066784052 0.0012784795504 0.00010525228427 -0.00024545109623 
0.00026233795388 -0.00065639627625 -0.00082317763803 -0.00091591338734 -0.0020550697224 0.00069779071508 -0.00047382323797 -0.0013563087734 0.0059882858224 
0.001003761593 -0.0026750054889 -0.0016495016999 -0.00097848370815 -0.0034793910596 8.4192793361e-05 -0.00045143326626 -3.5072141828e-05 -0.0010419718336 
0.00036167914883 7.6229284319e-05 -0.00018462515542 -0.0022149581621 0.0012401169606 -0.00034498986658 -0.0003690425739 -0.0010179863868 0.0021169907348 
0.001705125609 0.0010458598238 0.00014347068658 -0.0018069781316 -0.00098673934496 6.3361417816e-05 -0.00095334167611 -0.0005720409441 -0.0020618190455 
0.0012510227243 0.0027772347851 0.003563376406 -9.2143302557e-05 0.0007969657348 -0.0017370863297 -0.00071025491827 1.0504621929e-05 0.0010921975006 
0.00065334213005 -4.857524611e-05 -0.0003046605545 -0.00073271839736 -0.00049073103512 0.0011238614736 -1.2903320814e-06 -0.00023897616382 -9.4895759662e-05 
0.00079290051493 -0.00042936573592 0.0024234986007 0.00057420765308 0.00020647439431 0.00028407614445 -0.00064571331233 -0.00011587316102 0.00098803519714 
0.00043936745575 -0.00090536655534 -0.00073478855172 -0.0011717699174 0.0033112039112 -0.00092670757522 0.0019037895429 -0.00085228357246 0.0014524026379 
0.00010349040271 -0.0007096347651 0.0013328918126 -0.00041592356118 -0.0010104193024 0.0028766997428 -0.001372898309 -0.0066662717696 -0.0073529473568 
0.0025623314721 0.00025029190903 -0.0014062614509 -0.00020610830312 -0.00019800475394 0.0033298824729 -0.00046778219672 0.00032990889789 -0.0018624507751 
0.0005594589429 -0.0019532765177 -0.0018135781246 0.0022486978767 0.0017091804241 -0.00098774050309 -0.0023479383769 -0.0020894355568 -0.00057061502703 
0.0013251948903 -0.00480210105 0.0025299438582 0.0018064415122 -0.00082155796088 0.0040528376608 0.00041766931533 -0.0036239174549 0.0011780856107 
-0.00011115160406 0.00051009626851 0.0048901508092 0.00048526260549 0.0025282724631 -0.0023484991664 -0.004066319329 0.003428808369 -0.0098115804019 
0.00040733098433 0.0022939118315 -0.00083356495665 
radius 1 70 double
0.003 0.003 0.003 0.003 0.003 0.003 0.003 0.003 0.003 
0.003 0.003 0.003 0.003 0.003 0.003 0.003 0.003 0.003 
0.003 0.003 0.003 0.003 0.003 0.003 0.003 0.003 0.003 
0.003 0.003 0.003 0.003 0.003 0.003 0.003 0.003 0.003 
0.003 0.003 0.003 0.003 0.003 0.003 0.003 0.003 0.003 
0.003 0.003 0.003 0.003 0.003 0.003 0.003 0.003 0.003 
0.003 0.003 0.003 0.003 0.003 0.003 0.003 0.003 0.003 
0.003 0.003 0.003 0.003 0.003 0.003 0.003 
omega 3 70 double
-0.1749481839 0.1982895273 -0.13946584449 0.030591327504 -0.022662494778 0.020737694348 -0.019217736869 -0.047781109974 -0.01797705752 
-0.20501298654 -0.14859569537 0.19126235161 0.12175891933 0.089437190647 -0.14990924347 0.082557798259 0.006031373848 -0.068321102616 
0.26012807296 -0.09185738685 0.20192949266 -0.11536143119 0.15353377888 -0.072932669326 -0.029781689529 0.17523989632 -0.10787829298 
0.11493273685 0.050379849098 0.081921736974 0.014326559317 -0.018268323255 -0.020858316125 -0.12789771076 0.14045518106 -0.074732045858 
0.17657340012 -0.13414257104 -0.1582830421 -0.032879582839 0.16081055564 0.045320868586 -0.2057785568 -0.17426723935 0.083955631083 
-0.041873504377 -0.040380858165 0.052580201357 0.076154552894 0.0061280465697 -0.053689137013 -0.17672410077 -0.0014244479986 -0.14778128848 
0.1065611118 0.013168750056 -0.089306031504 0.22261809396 -0.017977756051 0.21389804842 0.073773749543 0.23137022069 -0.0061860770149 
0.50260656681 0.10874668306 -0.28135599415 0.10467919562 0.022469981261 0.067565594035 0.18593991799 -0.1915513754 0.004178132438 
0.1756660085 -0.70198203255 -0.018683986354 -0.053216325503 -0.047907547517 -0.086503844328 0.0033671398789 0.033017434673 -0.029572329417 
-0.0045972479714 0.026594585163 -0.025492669147 0.039075611043 0.10199524062 0.1784037387 0.057252685097 -0.01354825462 0.082533653784 
-0.095142792906 -0.34935360852 0.033199052153 0.25091626252 -0.13015246228 -0.0092022462722 0.10293285641 0.0078326692444 0.35380718858 
0.1514526721 -0.12028183315 0.099989757823 0.058685839897 -0.14708529335 0.0017869600765 0.02642284978 0.034453522116 0.15657320882 
0.23397100605 0.26192680454 -0.090477430056 0.038674841212 -0.095741546201 -0.071280967738 -0.19810426392 -0.12815688293 0.10601193514 
0.33021766658 -0.14039544787 -0.21282747869 0.051307954061 0.080654411094 0.03209100669 0.017506641293 -0.031211793558 -0.17739647346 
-0.1075973203 0.13004968089 0.042900811328 0.071649879058 -0.058796191298 0.076773649594 0.066208688318 -0.25476395996 -0.016510963552 
0.3288179469 -0.097937601385 -0.15513323859 -0.32251580371 0.12714575272 0.040415604566 0.21894615727 -0.00062103217292 -0.18673598039 
0.24973011498 -0.31613774607 -0.034675202531 -0.0032197002007 -0.079575350946 0.052743863828 -0.042237811538 -0.0018846441039 -0.16653006859 
-0.14291267216 0.095060133949 -0.057736669993 0.12806891521 -0.17721374927 0.15941116106 0.03006506738 0.0060028250915 0.017173089377 
0.074025598539 -0.10936146678 -0.43174383262 0.5189710842 0.18200235229 0.41342348743 -0.05721912568 0.13470679875 0.12507262601 
0.084592473499 0.045188524499 0.16395166873 0.24165760242 0.18804541335 0.29284566576 -0.77777774337 0.60741049176 -0.20663645654 
-0.31529219198 0.18827222913 -0.025707318536 0.20973131019 0.27676821254 0.16099727159 0.13461629658 -0.052386803513 -0.093663468166 
-0.46289670263 -0.20223375022 -0.086103191784 0.21984444525 0.19659660906 -0.5222207997 -0.036447003196 0.081389282056 -0.17807045656 
0.061568971713 0.084647497588 0.13347160131 0.014146816144 0.14582160702 0.079546163305 0.10905639207 0.19799202167 0.020710989985 
0.1461474119 0.40417248037 0.2214428872 
