# vtk DataFile Version 4.2
Generated by LIGGGHTS
ASCII
DATASET POLYDATA
POINTS 70 float
0.0114581 -0.0368894 0.00699838 -0.0237986 -0.0238458 0.00699827 -0.00516478 -0.0202765 0.00953845 
0.0278628 -0.0211398 0.0135785 0.0230261 -0.0153722 0.00699752 -0.0253441 -0.00911908 0.0113724 
-0.0187622 -0.00161635 0.0107676 -0.00540934 -0.000824611 0.0069993 0.0045111 -0.00742059 0.00934088 
0.0159819 -0.000463851 0.0109253 0.0119743 0.00781084 0.0069976 0.0247776 0.00517861 0.00975104 
-0.0327818 0.0126216 0.00699878 -0.0248283 0.0178785 0.0100133 -0.000589488 0.0181855 0.0102347 
0.00562292 0.011265 0.0139045 -0.0125072 0.0218876 0.00749382 0.00288389 0.0293428 0.00699795 
0.0229398 0.0220761 0.0070533 -0.000836414 -0.0222524 0.0217332 0.0205449 -0.00875754 0.0144138 
-0.00820969 0.00387825 0.0164056 -0.0114136 0.0133337 0.0169576 0.0101142 0.0160929 0.0215669 
0.0225476 0.010684 0.0232497 0.0057422 0.0299437 0.0204631 -0.0141535 -0.0327213 0.0297117 
-0.000932094 -0.0397253 0.0283781 -0.00426073 -0.0305304 0.0304676 -0.0203286 -0.0203268 0.0274441 
-0.00721645 -0.018164 0.0282577 0.00504079 -0.0176016 0.0283518 0.019833 -0.0173874 0.0279802 
0.0294059 -0.0112395 0.0311967 -0.00674141 -0.00769605 0.0261014 0.0291985 -0.00143261 0.0292522 
-0.0127277 0.00477301 0.0347275 -0.00474817 0.00179301 0.0286245 0.0109787 0.0038892 0.0330456 
-0.012138 0.0145033 0.032501 0.0040476 0.0289293 0.0322747 0.0115002 0.0244725 0.0273158 
0.0295522 0.021592 0.0316808 0.00282281 -0.0325029 0.0374722 -0.0125618 -0.0252659 0.0410811 
0.0107596 -0.0251496 0.041906 -0.0216844 -0.0136966 0.0449292 0.00295226 -0.0199709 0.0378388 
0.0380504 -0.0114132 0.036744 -0.0161152 -0.00371844 0.0393055 -0.000240087 -0.00253142 0.0366106 
0.0163072 -0.000789572 0.0443757 0.0206867 -0.00931641 0.0414084 -0.0315248 0.00143338 0.0398353 
-0.0193531 0.0218709 0.0395089 -0.006833 0.0267618 0.0404402 0.0116872 0.0258019 0.0379173 
-0.0090512 -0.0234547 0.0502674 0.020305 -0.0299045 0.0510236 -0.0336379 -0.0136575 0.0531292 
0.0289081 -0.0133596 0.0475458 -0.0282449 -0.001882 0.0510298 -0.00557575 -0.00708143 0.0460092 
-0.0208779 0.00686567 0.0466713 -0.0126155 0.00283972 0.0506102 -0.0020702 0.00309101 0.0460998 
0.00615957 0.000137386 0.051779 0.0273787 0.00968743 0.0508261 -0.00966207 0.0205185 0.0524101 
4.5663e-05 0.0204071 0.0471149 
VERTICES 70 140
1 0 
1 1 
1 2 
1 3 
1 4 
1 5 
1 6 
1 7 
1 8 
1 9 
1 10 
1 11 
1 12 
1 13 
1 14 
1 15 
1 16 
1 17 
1 18 
1 19 
1 20 
1 21 
1 22 
1 23 
1 24 
1 25 
1 26 
1 27 
1 28 
1 29 
1 30 
1 31 
1 32 
1 33 
1 34 
1 35 
1 36 
1 37 
1 38 
1 39 
1 40 
1 41 
1 42 
1 43 
1 44 
1 45 
1 46 
1 47 
1 48 
1 49 
1 50 
1 51 
1 52 
1 53 
1 54 
1 55 
1 56 
1 57 
1 58 
1 59 
1 60 
1 61 
1 62 
1 63 
1 64 
1 65 
1 66 
1 67 
1 68 
1 69 

POINT_DATA 70
FIELD FieldData 7
id 1 70 int
44 732 1464 837 912 1986 1606 936 895 
1371 663 720 467 208 1438 1782 385 1157 
595 2267 398 2166 1751 2117 2149 1929 2782 
2509 2454 2873 2996 2710 2790 3102 2640 2566 
3057 2252 3510 3206 3209 3228 3475 3932 4179 
4006 4181 3841 3364 4052 3265 4362 4280 3857 
3770 3909 3724 5377 4989 4708 4482 5353 5397 
4796 5509 5103 5420 5050 5402 4610 
type 1 70 int
2 2 2 2 2 2 2 2 2 
2 2 2 2 2 2 2 2 2 
2 2 2 2 2 2 2 2 2 
2 2 2 2 2 2 2 2 2 
2 2 2 2 2 2 2 2 2 
2 2 2 2 2 2 2 2 2 
2 2 2 2 2 2 2 2 2 
2 2 2 2 2 2 2 
i 3 70 int
0 0 0 0 0 0 0 0 0 
0 0 0 0 0 0 0 0 0 
0 0 0 0 0 0 0 0 0 
0 0 0 0 0 0 0 0 0 
0 0 0 0 0 0 0 0 0 
0 0 0 0 0 0 0 0 0 
0 0 0 0 0 0 0 0 0 
0 0 0 0 0 0 0 0 0 
0 0 0 0 0 0 0 0 0 
0 0 0 0 0 0 0 0 0 
0 0 0 0 0 0 0 0 0 
0 0 0 0 0 0 0 0 0 
0 0 0 0 0 0 0 0 0 
0 0 0 0 0 0 0 0 0 
0 0 0 0 0 0 0 0 0 
0 0 0 0 0 0 0 0 0 
0 0 0 0 0 0 0 0 0 
0 0 0 0 0 0 0 0 0 
0 0 0 0 0 0 0 0 0 
0 0 0 0 0 0 0 0 0 
0 0 0 0 0 0 0 0 0 
0 0 0 0 0 0 0 0 0 
0 0 0 0 0 0 0 0 0 
0 0 0 
v 3 70 double
3.527860322e-07 4.1126126636e-08 6.9909790575e-08 7.447433723e-08 -1.1865764798e-07 9.5862793512e-08 -4.393073171e-08 -1.8047297853e-07 -7.7328601737e-08 
9.0612754929e-08 5.5397208612e-08 3.0052226384e-07 -3.0091647588e-07 3.3125709339e-07 -1.5135311338e-07 1.1737545015e-07 1.2454118838e-08 6.1578879452e-08 
-7.8172079552e-08 2.6011874318e-07 9.6705743436e-08 -3.402454468e-07 -3.6822521339e-08 -4.2679957061e-08 -5.5462471473e-07 -1.5127339625e-06 8.9469266919e-07 
-7.058950867e-07 1.1387987794e-07 -1.4774013059e-07 -6.8089786467e-08 -1.3930660982e-09 2.3871181016e-07 3.8814807099e-07 -1.5478715081e-07 1.1221016357e-06 
-3.7761108225e-07 -1.3830072681e-06 1.6070764392e-06 2.7382906877e-07 -6.9780789191e-07 -7.8098223201e-07 2.5851378775e-07 1.7770113655e-07 -6.3136901596e-08 
-1.0042254683e-07 -1.0457928877e-07 -3.4882658677e-07 -1.282067426e-06 5.0670483551e-07 1.85943755e-06 1.0784569462e-06 -4.2264656863e-07 -3.7048017602e-07 
-7.5370592741e-07 -1.064742292e-06 5.7863156953e-08 1.0264604382e-07 4.2913582673e-07 6.5393664234e-08 1.0363360661e-07 7.8928440951e-07 -1.874412724e-07 
-1.5931173423e-07 -2.3182180287e-08 -1.3361500069e-07 4.8749232549e-07 -1.875876176e-07 -1.0480119851e-07 2.2212872447e-07 1.2977557102e-07 1.2418822655e-07 
-1.312446407e-07 -8.4370077605e-08 1.2006162501e-08 1.5192744538e-07 1.0100975062e-07 -3.925629315e-09 -3.2367086426e-07 -8.2213213348e-08 -9.1690352724e-08 
4.6693666543e-08 3.5864719272e-08 -1.2586276474e-07 -1.0473307953e-07 4.3597750733e-08 -7.2228142356e-08 -3.2288746487e-07 2.0730477886e-07 8.2673029495e-08 
-1.6986698038e-07 7.520674298e-09 -9.6545081308e-08 1.3940203455e-07 3.3518341771e-07 1.2102145455e-07 -7.8395287243e-08 -6.4388915284e-07 3.0861772377e-07 
2.6303356063e-07 1.4722334346e-07 -5.5586463238e-07 -2.0669890613e-07 -9.6800102004e-08 -7.3228406337e-08 -5.7141099263e-07 -7.4531975657e-08 -6.897947009e-08 
1.7709630886e-07 2.3460862599e-07 6.7467888201e-08 -5.2780342008e-08 -1.5702018557e-07 1.3963164755e-07 7.2220514034e-08 2.1818993284e-08 1.5330854838e-07 
-9.6642086946e-08 3.6109823755e-09 -3.2834909361e-07 8.0421671115e-08 -5.6035637152e-08 5.2364531449e-08 -6.5561210305e-08 5.0132807805e-07 1.6029269215e-07 
2.828297293e-07 1.5489630677e-07 -4.4459791746e-07 -1.7967488811e-09 1.3067973877e-07 -4.2761581394e-08 1.5344240337e-07 1.2938210348e-07 2.6480417513e-07 
2.2573324124e-07 3.2188690525e-08 7.4244021806e-08 -6.7014569803e-08 1.3475729708e-07 -7.918570023e-08 3.8707390125e-07 2.2296373569e-07 -1.8573901902e-07 
-5.6077475127e-07 9.4010669303e-08 -3.9764604241e-07 -6.5853695197e-08 3.263099334e-07 -1.9460118008e-07 2.3849468508e-08 9.1237105762e-08 -2.3117715568e-07 
4.135003861e-08 2.1668906385e-07 2.6515772689e-07 1.8319977353e-07 1.1098836213e-07 1.5948342607e-07 -4.922922603e-08 4.7524536712e-08 -3.4579810249e-08 
-3.6083435328e-08 2.0553583969e-07 -6.9985835761e-08 1.3701434457e-07 1.6269288757e-07 1.1731299969e-08 4.0740553145e-08 -2.4267136438e-07 1.2059342928e-07 
5.1602298757e-08 -7.029676963e-08 1.5961856487e-07 2.6143516482e-08 8.0824941936e-08 -1.0895006949e-07 -4.0880902465e-07 -9.1103974987e-08 3.6800835448e-08 
7.7507525989e-08 7.5108142344e-08 1.6383964141e-07 3.9999109889e-08 -1.0304292057e-08 5.0129019704e-08 -1.137957445e-07 -3.6307786137e-07 1.9461759968e-07 
-5.0202463773e-08 3.1223757836e-07 -2.5074640503e-08 -2.2850619716e-08 -1.2359759147e-08 8.0826719424e-08 1.4247262939e-07 6.2281094022e-08 -9.495450681e-08 
2.6792561954e-07 1.0962316686e-07 -1.1991957268e-07 1.434149854e-08 8.1578320221e-09 -1.7308889886e-07 -4.8172387619e-07 -2.0488538415e-08 -1.5318569478e-08 
-2.9226535832e-07 4.5928093389e-10 1.9081829861e-07 
f 3 70 double
-0.0001504383059 8.6981491468e-05 0.00010651761891 0.00029585390465 0.00029301684028 0.00025521350638 6.7136473767e-05 -0.00012774555281 -0.00032487668051 
-6.0221023271e-05 1.0274413418e-05 0.00024247442202 6.2195562744e-05 4.5338544484e-05 -7.625443666e-05 0.00013066692497 0.00010045084407 -6.1779566195e-05 
-0.00015576227925 4.6888363397e-05 0.00019068028705 8.5690501401e-05 -0.00020348685245 -0.00044687308032 -0.00041213720198 -0.00033279977068 -0.00048517141322 
0.00034022564636 8.0318829093e-05 8.9792188405e-05 2.9894553728e-05 0.00024918251494 -3.6698878736e-05 0.00010955558082 -0.00026323539326 0.00029555772408 
-2.181959775e-05 8.5225197758e-05 -4.8682046627e-05 -0.00016171013358 0.00031982595241 -0.00026641052621 -0.00087804404045 0.00035213245219 -7.8020399472e-06 
0.00016384624284 5.71879338e-05 -0.00015858977859 0.00029993048113 -0.00064284562926 0.00043991607476 3.1956196678e-05 0.00011684048816 -7.0419391693e-05 
7.9707332928e-06 -0.00011698955021 -0.00041784537697 3.0701436543e-05 -7.5099098699e-05 -6.233838111e-05 -0.00011958371051 -0.00038191937037 -5.1042402139e-05 
-1.1813986138e-05 0.00035504804822 -0.00027607284274 0.00031594006462 -0.00041992648087 -0.00023643462756 1.0071753196e-05 -6.5095780821e-06 -0.00021244453911 
-8.7481541814e-05 -0.00020996255698 1.3779281868e-05 -8.2560394585e-05 -0.00017246725552 0.00012019148454 4.2351146197e-05 -0.00010253989507 6.4480550914e-05 
-4.1003758654e-05 2.1938385819e-05 -0.00012180443891 -7.4258815772e-05 -7.3998581658e-06 -4.9143006497e-05 -3.5603920782e-05 -8.5458606758e-05 -1.1978784685e-05 
-9.6609422305e-05 -0.00010738781776 -2.938749648e-05 -0.0002934059436 -0.00016268182833 -0.00057212443842 -9.7723016936e-05 0.00015976672382 0.0001588359194 
-0.00023592439772 0.00015595357752 0.00014988214182 -1.4882572451e-05 -2.0853028138e-07 6.4240069455e-05 6.5061230524e-05 5.3316684894e-05 -1.6228566656e-05 
-0.00028672383145 -6.7774916354e-05 -3.3775211582e-05 0.00013869628885 0.00019132826907 0.00019543954449 -3.9620307223e-05 1.4040077193e-05 -0.00014349710576 
-6.0782714952e-05 -8.1841470108e-05 0.00013498740033 6.1385520063e-05 1.5823506131e-05 -2.5439808856e-05 5.1117474317e-05 -0.00010756750034 -1.5798007115e-06 
6.5246314503e-05 5.7218514631e-05 1.4105454841e-05 4.9775024344e-07 1.3113160623e-05 -2.88188877e-05 -3.8503790388e-05 4.7853050541e-05 -4.0492859201e-05 
-1.8357696775e-05 4.0916916508e-05 -1.0055922873e-05 2.6437335616e-05 3.3197653658e-05 -5.509450333e-05 -3.463937918e-06 3.595890271e-06 1.9224386552e-05 
3.3300842605e-05 -0.00010443238456 -7.4204280069e-05 6.2110429694e-05 -0.00010487493419 2.3490937683e-05 1.419354605e-05 3.9335099582e-05 -1.3109110146e-05 
5.1804254712e-06 2.4614639781e-05 1.5711942535e-05 -7.9101617424e-05 2.5225936864e-06 -2.465370843e-05 7.1073388045e-05 3.3478910767e-05 8.7401827791e-05 
3.5407159746e-06 -1.5839813167e-05 0.00018459252449 -0.0001730099604 5.1146193817e-05 9.3774407848e-05 3.8335782149e-06 2.9941220081e-05 -2.0595383474e-05 
3.7415064437e-05 4.1905184873e-06 2.3192358684e-05 -2.2254927752e-06 -2.4515068729e-05 -1.3003526826e-05 -0.00012014937016 -2.6320801122e-07 9.4864628606e-06 
-1.1839193585e-07 -1.1338384872e-05 6.2090801241e-05 -1.8073347223e-05 -3.3585704831e-05 -4.491741631e-06 -3.2691906698e-05 -4.6134537096e-05 -2.982673475e-05 
-5.4983288929e-05 1.4337377752e-05 3.6929425279e-05 -6.405006801e-06 6.9303737765e-06 1.3822159912e-05 1.864121072e-05 -1.1134766364e-05 3.1964590861e-05 
-2.8343458448e-05 -3.1597683061e-05 -1.1472536327e-05 -6.1936824706e-05 -4.1165350824e-06 -1.9297493678e-05 6.7461254209e-05 -6.4919802959e-06 -2.0407601386e-05 
3.4928286753e-05 -3.3377517921e-05 1.0234675028e-05 
radius 1 70 double
0.005 0.005 0.005 0.005 0.005 0.005 0.005 0.005 0.005 
0.005 0.005 0.005 0.005 0.005 0.005 0.005 0.005 0.005 
0.005 0.005 0.005 0.005 0.005 0.005 0.005 0.005 0.005 
0.005 0.005 0.005 0.005 0.005 0.005 0.005 0.005 0.005 
0.005 0.005 0.005 0.005 0.005 0.005 0.005 0.005 0.005 
0.005 0.005 0.005 0.005 0.005 0.005 0.005 0.005 0.005 
0.005 0.005 0.005 0.005 0.005 0.005 0.005 0.005 0.005 
0.005 0.005 0.005 0.005 0.005 0.005 0.005 
omega 3 70 double
2.2617455292e-05 -7.0404912892e-06 -5.3671226452e-05 -1.115931353e-05 -3.5471291929e-06 -4.669450617e-05 6.3282143235e-06 -4.1653187353e-05 2.1511959701e-06 
-9.0575478603e-05 3.724576215e-05 -5.1157593777e-06 -6.6690854763e-05 0.00041580849831 -2.5326816382e-05 2.8399587805e-05 2.9234854811e-05 4.5383179201e-05 
-1.0429398343e-06 -8.989544221e-06 -3.4438993873e-05 0.00019832330409 -0.00031090257693 9.7560976089e-05 -6.507917508e-05 -0.00038403853477 -0.00081676337678 
-0.00016081373784 -0.00012683527991 -0.00029566769626 0.00016418850677 1.1268065147e-05 -6.4831613019e-05 -0.00028474072214 -8.6286453622e-05 0.00027846960397 
0.00048593280226 -0.00042784794092 -0.00035850326574 0.00068499112581 -0.00029855448488 -0.0004269561428 -0.0001770926946 0.00013905698434 -0.00026618327641 
1.052380088e-05 4.7598933246e-05 -2.0319181707e-05 -8.6850725761e-05 0.00093735134959 0.00023998843868 0.00015326907048 0.00020173846098 -0.00076402360205 
-0.00037351040879 0.00051743619894 -0.00019332671705 -1.631120934e-05 9.9341228916e-05 1.3583061462e-05 -0.00014141659324 -2.6991024168e-05 -0.00040011990543 
0.00012642112085 1.9236499532e-05 -1.2553163965e-05 -0.00026294456537 -0.0001349258596 -0.0002579042078 -1.9558877299e-05 1.671745082e-05 3.3028724624e-05 
8.8562176407e-06 1.3722362826e-05 7.7217452052e-05 0.00010824739307 6.9891056987e-05 -0.00014011628619 -5.9121849494e-05 -5.2661644793e-05 6.7776118783e-05 
1.2383367644e-05 1.7668563839e-05 -6.51093919e-06 -1.8259179786e-05 -1.5925916442e-05 -3.480191802e-06 -8.1974015115e-05 -4.9629548071e-05 0.00012124406347 
-5.5974702835e-05 2.7154776712e-05 5.6989180114e-05 0.00010142541107 6.7412394167e-05 8.0400877437e-05 -0.00010141460423 -0.00028211521696 0.00017640203106 
0.00016537405378 -0.0004233827215 2.4370308279e-05 -2.195071296e-05 -2.2283259515e-05 1.3710937229e-05 -3.6187876135e-05 -7.7429263698e-05 -0.00014414221185 
6.8603082183e-06 -1.6570856414e-05 3.3768606419e-05 6.7521309779e-06 1.0424276378e-05 -2.7175881473e-05 3.4622043472e-05 1.3492121384e-05 2.417636825e-05 
-3.7254560083e-05 -1.0183378476e-05 2.8854159676e-05 2.0459418728e-05 2.4673872903e-05 8.100391009e-05 0.00021958798868 0.00017733633478 8.6255352494e-06 
-7.3727218617e-06 1.2285315151e-05 -4.7708665596e-05 -5.6112574282e-06 -2.407006252e-05 3.1830573079e-05 1.5109622281e-05 -0.00014507026612 -0.00014638493385 
5.0024427126e-05 -0.00012273521137 -2.2684226799e-05 8.1885774831e-06 4.5390796964e-05 -1.1126462762e-05 0.00011191035328 4.622803601e-06 5.1332333758e-05 
-4.0572398117e-05 3.3785785861e-05 -6.2437842789e-05 1.1157834637e-06 5.2497714759e-05 0.00011494797595 0.00019052112224 -3.7732842473e-05 0.00012601005023 
5.6829754317e-05 -3.2937448305e-05 3.1612279836e-05 1.0153113607e-05 1.1992836703e-05 -1.725022079e-05 -3.6243633974e-05 -1.3220079199e-05 5.8526281742e-05 
-2.4189336984e-05 1.4850713168e-05 9.650487012e-05 9.0046306148e-05 0.00015352394396 0.00011858183382 7.0756825416e-05 -3.3044225737e-05 1.33005934e-05 
2.5198610726e-05 3.7690124611e-05 -1.1562293292e-05 -2.3937019309e-05 -2.3672322959e-05 -5.2166817632e-06 -3.8277577294e-05 0.0001175016864 -0.00012399962619 
6.8346438787e-06 1.2012625035e-05 1.0559781235e-05 5.6406004133e-05 1.1531364463e-05 1.8474944351e-06 -0.00016557562267 0.00019778224017 0.00012621340015 
-1.5102051286e-05 -1.3611671e-05 -2.2775202336e-05 -2.2136439516e-06 1.7306190996e-05 -9.2885728846e-06 7.008875486e-05 -7.3599257783e-05 6.3778490669e-05 
7.4881465404e-06 -8.4120812701e-06 -4.0549828121e-05 -1.0180836934e-06 -1.1411101952e-05 -3.152741265e-05 8.1179609767e-05 0.00022256777647 1.6795761818e-05 
3.1052336712e-05 6.6502419959e-05 -9.7008362749e-06 
