# vtk DataFile Version 4.2
Generated by LIGGGHTS
ASCII
DATASET POLYDATA
POINTS 70 float
0.0114581 -0.0368894 0.00699838 -0.0237986 -0.0238458 0.00699828 -0.00516478 -0.0202765 0.00953845 
0.0278628 -0.0211398 0.0135785 0.0230261 -0.0153722 0.00699752 -0.0253441 -0.00911908 0.0113724 
-0.0187622 -0.00161635 0.0107676 -0.00540934 -0.00082461 0.0069993 0.0045111 -0.00742059 0.00934088 
0.0159819 -0.000463851 0.0109253 0.0119743 0.00781084 0.0069976 0.0247776 0.00517861 0.00975104 
-0.0327818 0.0126216 0.00699878 -0.0248283 0.0178785 0.0100133 -0.000589488 0.0181855 0.0102347 
0.00562292 0.011265 0.0139045 -0.0125072 0.0218876 0.00749382 0.00288389 0.0293428 0.00699795 
0.0229398 0.0220761 0.0070533 -0.000836414 -0.0222524 0.0217332 0.0205449 -0.00875754 0.0144138 
-0.00820969 0.00387825 0.0164056 -0.0114136 0.0133337 0.0169576 0.0101142 0.0160929 0.0215669 
0.0225476 0.010684 0.0232497 0.0057422 0.0299437 0.0204631 -0.0141535 -0.0327213 0.0297117 
-0.000932094 -0.0397253 0.0283781 -0.00426073 -0.0305304 0.0304676 -0.0203286 -0.0203268 0.0274441 
-0.00721645 -0.018164 0.0282577 0.00504079 -0.0176016 0.0283518 0.019833 -0.0173874 0.0279802 
0.0294059 -0.0112395 0.0311967 -0.00674141 -0.00769605 0.0261014 0.0291985 -0.00143261 0.0292522 
-0.0127277 0.00477301 0.0347275 -0.00474817 0.00179301 0.0286245 0.0109787 0.0038892 0.0330456 
-0.012138 0.0145033 0.032501 0.0040476 0.0289293 0.0322747 0.0115002 0.0244725 0.0273158 
0.0295522 0.021592 0.0316808 0.00282281 -0.0325029 0.0374722 -0.0125618 -0.0252659 0.0410811 
0.0107596 -0.0251496 0.041906 -0.0216844 -0.0136966 0.0449292 0.00295226 -0.0199709 0.0378388 
0.0380504 -0.0114132 0.036744 -0.0161152 -0.00371844 0.0393055 -0.000240087 -0.00253142 0.0366106 
0.0163072 -0.000789572 0.0443757 0.0206867 -0.00931641 0.0414084 -0.0315248 0.00143338 0.0398353 
-0.0193531 0.0218709 0.0395089 -0.006833 0.0267618 0.0404402 0.0116872 0.0258019 0.0379173 
-0.0090512 -0.0234547 0.0502674 0.020305 -0.0299045 0.0510236 -0.0336379 -0.0136575 0.0531292 
0.0289081 -0.0133596 0.0475458 -0.0282449 -0.001882 0.0510298 -0.00557575 -0.00708143 0.0460092 
-0.0208779 0.00686567 0.0466713 -0.0126155 0.00283972 0.0506102 -0.0020702 0.00309101 0.0460998 
0.00615957 0.000137386 0.051779 0.0273787 0.00968743 0.0508261 -0.00966207 0.0205185 0.0524101 
4.56629e-05 0.0204071 0.0471149 
VERTICES 70 140
1 0 
1 1 
1 2 
1 3 
1 4 
1 5 
1 6 
1 7 
1 8 
1 9 
1 10 
1 11 
1 12 
1 13 
1 14 
1 15 
1 16 
1 17 
1 18 
1 19 
1 20 
1 21 
1 22 
1 23 
1 24 
1 25 
1 26 
1 27 
1 28 
1 29 
1 30 
1 31 
1 32 
1 33 
1 34 
1 35 
1 36 
1 37 
1 38 
1 39 
1 40 
1 41 
1 42 
1 43 
1 44 
1 45 
1 46 
1 47 
1 48 
1 49 
1 50 
1 51 
1 52 
1 53 
1 54 
1 55 
1 56 
1 57 
1 58 
1 59 
1 60 
1 61 
1 62 
1 63 
1 64 
1 65 
1 66 
1 67 
1 68 
1 69 

POINT_DATA 70
FIELD FieldData 7
id 1 70 int
44 732 1464 837 912 1986 1606 936 895 
1371 663 720 467 208 1438 1782 385 1157 
595 2267 398 2166 1751 2117 2149 1929 2782 
2509 2454 2873 2996 2710 2790 3102 2640 2566 
3057 2252 3510 3206 3209 3228 3475 3932 4179 
4006 4181 3841 3364 4052 3265 4362 4280 3857 
3770 3909 3724 5377 4989 4708 4482 5353 5397 
4796 5509 5103 5420 5050 5402 4610 
type 1 70 int
2 2 2 2 2 2 2 2 2 
2 2 2 2 2 2 2 2 2 
2 2 2 2 2 2 2 2 2 
2 2 2 2 2 2 2 2 2 
2 2 2 2 2 2 2 2 2 
2 2 2 2 2 2 2 2 2 
2 2 2 2 2 2 2 2 2 
2 2 2 2 2 2 2 
i 3 70 int
0 0 0 0 0 0 0 0 0 
0 0 0 0 0 0 0 0 0 
0 0 0 0 0 0 0 0 0 
0 0 0 0 0 0 0 0 0 
0 0 0 0 0 0 0 0 0 
0 0 0 0 0 0 0 0 0 
0 0 0 0 0 0 0 0 0 
0 0 0 0 0 0 0 0 0 
0 0 0 0 0 0 0 0 0 
0 0 0 0 0 0 0 0 0 
0 0 0 0 0 0 0 0 0 
0 0 0 0 0 0 0 0 0 
0 0 0 0 0 0 0 0 0 
0 0 0 0 0 0 0 0 0 
0 0 0 0 0 0 0 0 0 
0 0 0 0 0 0 0 0 0 
0 0 0 0 0 0 0 0 0 
0 0 0 0 0 0 0 0 0 
0 0 0 0 0 0 0 0 0 
0 0 0 0 0 0 0 0 0 
0 0 0 0 0 0 0 0 0 
0 0 0 0 0 0 0 0 0 
0 0 0 0 0 0 0 0 0 
0 0 0 
v 3 70 double
-4.7141019546e-07 -9.5949013176e-08 -2.9582835468e-08 1.3855745532e-07 4.7448156284e-08 2.2145028821e-08 2.4224221278e-07 2.2518566271e-08 6.0864697429e-08 
1.6667643986e-07 -2.2342966054e-07 -9.2406883206e-07 2.8881505767e-07 -3.2474084696e-07 7.693223681e-07 -2.2655100351e-07 -3.1722211826e-07 1.3738895521e-07 
-9.7579795079e-08 3.6485193103e-08 3.9464074042e-08 1.9597229183e-07 -1.5662685799e-07 -7.8924565581e-07 7.6658610592e-07 6.3685420214e-07 -1.5172007544e-06 
-6.9460515248e-08 -4.4106125044e-07 5.8367682253e-08 -9.673525792e-08 3.9289891287e-08 5.9105415331e-08 -8.7077545296e-07 5.5406857874e-07 -1.5604275082e-06 
-1.2266000712e-07 -1.1106158601e-06 1.7569421516e-06 3.0367994542e-07 -2.2640911413e-07 -4.063549168e-07 -9.897614869e-07 9.2607654417e-07 -1.9489435515e-07 
3.753162585e-08 -4.0853741711e-07 -1.8806626496e-07 -1.5730217861e-06 -2.682699127e-08 2.4337161376e-06 -4.8147738764e-07 7.4593428897e-07 1.8412911488e-07 
2.4164488439e-07 6.0820134907e-07 5.5085016676e-07 3.4163046663e-07 -3.3278473213e-07 -2.8722843343e-07 -1.7677102939e-07 -1.1935101023e-07 2.8006708973e-07 
1.0406826588e-07 -2.3847595918e-07 -1.4955081486e-07 6.6282837847e-07 -3.7009348322e-07 -1.723699455e-07 -1.1134422031e-07 -1.5645301496e-07 -4.2899290682e-09 
6.3622743138e-08 2.2396073586e-07 -9.8911182202e-08 2.3637640098e-07 -8.6288874481e-08 -6.1115901856e-09 9.678083323e-08 9.3655508507e-08 7.8896147787e-08 
-3.7364888203e-08 -5.1865524051e-08 -1.3392493023e-07 1.1786153591e-07 1.23293864e-08 3.9062509648e-08 -2.7495945988e-07 -2.0517437822e-07 -3.5610623223e-07 
4.4132628776e-07 -1.0396408086e-08 -5.0340512768e-08 -2.9700942299e-07 2.890150926e-07 -6.3280336695e-07 -9.1061137426e-07 2.4704969502e-07 -5.4195838229e-07 
5.1697661466e-07 -9.1002488255e-07 7.3380969515e-08 -8.1123293954e-08 -2.0731244977e-07 -2.0282461328e-07 -3.9617145104e-07 -3.0134343659e-07 -1.2739619669e-07 
1.3065598434e-09 1.9511673661e-07 -1.4257696974e-07 5.6952252046e-08 -1.3410153055e-07 2.226245895e-07 7.6805853385e-08 1.6082149851e-07 1.1981178024e-07 
-5.6370818563e-07 1.9536656139e-08 2.3808117923e-08 5.1724125276e-08 -6.3551600206e-08 1.2642689339e-07 6.1018696235e-07 -1.5624366561e-07 9.4313952802e-08 
1.6878492645e-07 1.0901196441e-07 -3.176523905e-07 8.6517772089e-08 -6.965632439e-09 -7.3026687504e-08 -8.2279756304e-08 -5.8212621492e-08 -2.3877421645e-07 
1.3319125497e-07 1.460073551e-08 1.8273867506e-07 -1.2592927886e-07 3.5144338189e-08 -3.6516407158e-08 3.355153985e-07 2.0443286576e-08 -1.4701024173e-07 
8.0162313703e-08 2.1811863834e-07 6.1702461796e-08 -4.3506555202e-07 -1.5096701293e-07 1.8984825838e-07 8.7046480339e-08 -1.3238109867e-07 2.4355577904e-07 
-1.5568724197e-08 3.6003805791e-07 1.6617217953e-07 3.9844231233e-08 1.277464252e-07 -9.5966060852e-09 -2.5903023876e-07 2.0607489436e-07 -2.3282821576e-07 
1.1464941421e-06 -6.2833559075e-07 1.8702070827e-06 1.2095762839e-07 -4.44007307e-08 2.5393303717e-07 1.1314907162e-07 6.7770897388e-08 1.1526850009e-07 
-4.6235115834e-08 1.1312311409e-07 -4.9914603751e-08 -6.6536009882e-08 6.2579253072e-08 2.9925796033e-08 4.6306624321e-07 3.3894544791e-08 4.6553433733e-08 
-9.5206120848e-08 1.489625494e-07 -7.2008532975e-08 -2.0235535405e-07 1.6167197084e-07 3.5697414311e-08 1.3319046828e-07 1.2784580083e-07 -3.9778170043e-07 
4.2886542996e-08 -2.1338380597e-08 -1.2553375648e-07 -1.9144771846e-07 1.2851331934e-07 1.2890081067e-07 -3.2584070296e-07 -8.2855960613e-08 -1.8738759394e-08 
-1.9292753479e-07 -1.5330342807e-07 -2.0156686909e-09 1.3752566817e-07 6.6492542705e-08 1.5045154163e-07 -4.2984170642e-07 3.4957822098e-07 -8.1746549711e-07 
-1.8691431295e-07 -7.7001765431e-08 -1.2554810305e-07 
f 3 70 double
-0.00021285274319 0.00010919704405 6.8199676633e-05 0.00027962078294 0.00023412133059 0.00027834253714 6.1910333089e-05 -8.1301169799e-05 -0.00038445466449 
-3.0347338981e-05 2.2616021648e-05 0.00028530250568 -0.00024492855776 -4.1707671675e-05 0.00029363233401 0.00013315407939 0.00013380740356 -8.6351388863e-05 
-0.00011537812544 6.7937775706e-05 0.00015834477637 4.2206625318e-05 -9.8470873845e-05 1.2214395356e-05 6.8402462353e-05 7.9115507074e-05 -0.00047606857843 
0.00042313510395 -8.4093646145e-05 0.0001587660869 5.1718896707e-05 0.00021313227596 -0.00014724575036 8.6373314227e-05 -0.0003763541956 3.5841981334e-05 
-8.0282802545e-05 8.6486881147e-05 -8.584641831e-05 -0.00016658773274 0.00026740349196 -0.00030112987514 -0.00038535595216 -2.758344899e-06 7.4551178395e-05 
0.00022863753812 0.00010890501777 -0.00014151491956 0.00033539063701 -0.00065188236477 0.00039692208322 -0.00014334081266 0.00010053287038 -8.9816315656e-06 
-5.4020331701e-05 -0.00023023032804 -0.0005442309331 -1.5060794189e-05 -0.00013506996048 -7.6974264106e-05 -9.073957549e-05 -4.6576987161e-05 0.00018094293824 
-1.5913958176e-05 0.00036085170692 -0.00023698801548 0.00026284097704 -0.00022168984771 -0.00022165854884 -0.00015062533209 3.4879925987e-06 -8.9750587919e-05 
-9.1961923142e-05 -0.00023748912739 2.6689082407e-05 -8.9609737457e-05 -0.00018078169962 2.8284229817e-05 1.6992057856e-05 -0.00011874557765 1.8661766045e-05 
-4.4670394393e-05 3.0491359141e-05 -0.00011032693225 -6.4807600116e-05 3.4415523189e-05 -7.2626593861e-05 -4.8533197813e-05 -3.1774251713e-05 3.4143935866e-05 
-0.00012860501587 -9.5601337065e-05 4.896193692e-06 0.00010230248129 0.00011423123437 0.00020804033544 -9.522787976e-06 3.9784741554e-05 -9.4806325796e-05 
1.8199084447e-06 -0.0001440642339 -0.00012992164269 -2.8051517571e-05 -5.7006467838e-05 6.817216186e-05 5.7352059192e-05 2.2780991782e-06 -4.5755322856e-06 
-0.0002933885639 -5.8975322553e-05 -4.4693553398e-05 0.00015582312971 0.00024463840982 0.00019174088928 -3.3796749036e-05 -1.0272135958e-05 -0.00011773878092 
-4.556222958e-05 -9.4185816046e-05 7.127455708e-05 3.7091590531e-05 1.4796499125e-05 -1.6369728254e-05 5.1346056861e-05 5.5249715773e-05 3.9242997535e-05 
0.0001353651607 6.9371903856e-05 -6.2097295878e-05 2.7253667459e-06 -3.5427617121e-06 -3.9188091174e-05 -2.6803146224e-05 3.901297895e-05 2.7338833506e-05 
-5.5847103826e-05 7.1140918592e-05 -2.2313768123e-05 5.588367704e-05 2.3342219923e-05 -4.8090646084e-05 3.6626790748e-06 -7.6611678739e-06 3.1707018991e-05 
3.5764067232e-05 -0.00011365977002 -6.1000782189e-05 8.3051152436e-05 2.2357034027e-05 -6.8181458183e-05 1.3713148056e-06 6.0080035385e-05 -4.0311586228e-05 
7.4883094487e-06 1.0687360541e-05 -5.9271578418e-06 -0.00010132929926 5.4647976204e-05 -3.9399879829e-06 4.1897400859e-05 6.0708216435e-05 6.7554393275e-05 
-7.669795574e-05 -2.3546379331e-05 0.00017746007304 -8.5290514269e-06 -4.5921204369e-06 8.9307834428e-05 1.9331348683e-06 3.5275374313e-05 -2.2118487895e-05 
1.7416441652e-05 -8.1991096218e-07 6.6111274106e-06 -8.5860503604e-06 -2.3222182863e-05 2.0727598328e-06 -0.00014270672326 -1.2593576488e-05 2.0011543716e-07 
-1.332221879e-06 -8.8449638481e-06 6.4885085632e-05 -2.0488756828e-05 -2.2526977322e-05 -7.1879551051e-06 -8.2563341166e-05 -0.00013767069911 4.866584922e-05 
-5.9974149021e-05 2.2341516724e-05 3.8920319351e-05 6.8617027634e-06 -4.9120544725e-07 1.8181796207e-05 4.6639359889e-05 -9.7591540281e-07 -6.7003619323e-06 
-1.9259730864e-05 -2.8879056088e-05 3.8027671613e-06 -6.6156207524e-05 -5.519636788e-06 -1.9710158377e-05 -8.5674191488e-05 -9.6416417441e-06 -1.868566992e-05 
2.5650533137e-05 3.7404189232e-06 3.2065459937e-06 
radius 1 70 double
0.005 0.005 0.005 0.005 0.005 0.005 0.005 0.005 0.005 
0.005 0.005 0.005 0.005 0.005 0.005 0.005 0.005 0.005 
0.005 0.005 0.005 0.005 0.005 0.005 0.005 0.005 0.005 
0.005 0.005 0.005 0.005 0.005 0.005 0.005 0.005 0.005 
0.005 0.005 0.005 0.005 0.005 0.005 0.005 0.005 0.005 
0.005 0.005 0.005 0.005 0.005 0.005 0.005 0.005 0.005 
0.005 0.005 0.005 0.005 0.005 0.005 0.005 0.005 0.005 
0.005 0.005 0.005 0.005 0.005 0.005 0.005 
omega 3 70 double
0.0001079879638 -2.783658483e-05 1.7449143528e-05 1.9165008747e-05 -5.4783019718e-06 1.0207579939e-05 -3.4510770459e-05 0.00011987912332 3.6037434644e-05 
6.9734142194e-05 4.9345206815e-06 6.0788479251e-05 4.8126411566e-05 5.7881491118e-05 0.00014057555588 -4.7321982678e-06 2.2673499426e-05 -3.6717377621e-05 
-2.0177875877e-05 1.4233547899e-06 2.1797639568e-05 2.8832973209e-06 -0.00015654196243 -2.4809487365e-05 -0.00036216962994 0.00082801376936 0.00049076235925 
-0.00010251970244 0.00036180518071 0.00021370391357 -6.6510141584e-05 1.9690021839e-05 9.7334722831e-05 0.00046856433057 0.00019445624629 -0.00035091193835 
0.00048118172108 -0.00044072766166 -0.00033497463367 0.00070984868892 -0.00026461933095 -0.00036594904449 -0.0001931286547 0.00043918462774 -0.00032921652827 
8.9450904627e-05 0.00014239681919 -0.00013963152502 1.100909439e-05 0.00082979732236 2.9947170509e-05 -3.606716783e-05 -0.00023312722013 0.00067998530385 
0.00047874546571 -0.00026585248216 0.00026760375734 1.5793366646e-05 9.346051739e-06 -3.4486666397e-06 4.6778451613e-05 0.00012721469631 0.00051394364713 
0.00010762886772 -5.2987141809e-05 -9.9342663817e-05 -0.00032834674396 -0.0002041788738 -0.00027520224732 3.6778672945e-05 4.8865288119e-05 5.2476003544e-05 
-4.0992509399e-05 -2.3125670028e-05 5.7259485952e-05 -0.00014818314555 5.8178963965e-05 0.00015057340534 3.9475180551e-05 6.256858572e-05 -0.0001513765606 
-2.5548614124e-05 4.7161294291e-05 9.3778644244e-06 -4.5810949408e-06 -3.2996985647e-05 -3.9596587863e-05 3.7030740269e-05 0.00023184050626 3.8643732781e-05 
5.7975186503e-05 -4.7083116927e-05 -8.0183143118e-06 -4.3676140141e-05 0.00023501286403 1.2591106523e-06 0.00017795404905 -0.00015100274881 0.00050262985733 
-0.00023679570833 -0.00010846941023 0.00021890249888 3.2653155595e-05 1.7528698131e-06 -5.3148800783e-05 6.6799862279e-05 4.4464212046e-05 -6.270072778e-05 
-2.647059407e-05 4.7204038342e-06 0.00010103136793 -3.3483885916e-05 -8.9579898429e-06 -2.5852467894e-05 -3.6374824474e-05 -1.2869369766e-05 -1.8119065193e-06 
0.00012724273354 0.00019237108537 7.3506083752e-05 -2.8822043596e-06 -3.3370422497e-05 2.0545225526e-05 -5.4376395922e-05 -5.1257541808e-05 4.2550144115e-05 
3.5704966379e-05 -4.1902695623e-05 -1.8241123605e-05 -4.1763897042e-06 4.4971531652e-06 -7.3760677955e-05 -7.0518904887e-05 8.9260326496e-05 0.00012808368953 
2.8696761736e-05 -4.1503944642e-05 -4.0731827672e-05 1.9738028578e-06 -1.5278782994e-05 1.6492306084e-05 3.3953999009e-05 6.0959882745e-06 7.8543972434e-06 
-8.9088279515e-05 1.4856018603e-05 4.8884854919e-05 1.6730463177e-05 -4.5346386221e-05 -0.00017159838975 -7.0759483177e-05 5.3634600422e-05 -3.7974626389e-05 
3.4655770813e-05 2.2542176767e-05 -6.154929823e-06 -8.3746114441e-06 -0.00014976467242 6.1361803956e-06 0.00011397893551 2.3362279083e-05 -0.00011998867976 
0.00016702687488 -8.1024738695e-06 -1.6210043794e-05 1.8282307449e-05 8.6307277239e-05 8.8224143845e-05 -2.6526848773e-05 -1.7645823037e-05 -3.248077721e-05 
-6.3509235834e-05 1.3623232391e-05 4.8400914235e-05 1.686922602e-05 1.6467096328e-05 2.2882974195e-06 -2.3166373411e-05 -0.00021052334928 6.0448629318e-05 
4.5811421287e-05 -1.4882148447e-05 -1.9765530541e-05 6.4551917109e-05 -1.430793596e-05 4.0824496128e-05 9.56445862e-05 -0.00012784768472 -9.2935876214e-05 
2.7642517571e-06 3.1427740241e-05 6.4821031352e-06 -2.6172832859e-05 -4.3116349766e-06 -1.2199881882e-05 -4.6429414399e-05 9.3572980565e-05 -1.078547252e-06 
2.8779974353e-06 -2.3531377541e-05 2.241578662e-06 -3.0271393175e-05 1.3361723941e-06 6.4943004991e-06 1.32536846e-05 1.6415307087e-05 -4.8440026759e-05 
-8.7398660616e-06 -1.10736914e-05 -2.6695406658e-05 
