# vtk DataFile Version 4.2
Generated by LIGGGHTS
ASCII
DATASET POLYDATA
POINTS 70 float
-0.00556928 -0.0193223 0.0170775 0.00407735 -0.0198857 0.0199732 -0.00837828 -0.0117603 0.0159532 
-0.00255784 -0.0132622 0.0208147 0.00821625 -0.0134245 0.0180058 -0.0139561 -0.0061964 0.0192597 
-0.000527042 -0.00529146 0.0211035 0.00564967 -0.00145862 0.0185134 -0.00543116 0.000978883 0.0198686 
-0.012896 0.0135629 0.0198545 -0.00660952 0.00870889 0.0173705 0.00327797 0.0123013 0.0191743 
0.01394 0.0102995 0.0181913 -0.00471325 0.0179134 0.0171928 0.0044202 0.0181507 0.018479 
0.0124423 0.0179694 0.0202904 -0.0104563 -0.0191232 0.022878 -0.00194448 -0.0204273 0.0276156 
0.00597522 -0.0173582 0.0275488 -0.0183253 -0.0116443 0.0221217 -0.00810231 -0.0140319 0.0262201 
0.00514124 -0.00928991 0.0244121 0.0131558 -0.0157121 0.0270707 0.0174139 -0.0110615 0.022131 
-0.0197293 -0.00297403 0.0283968 -0.00946119 -0.00330306 0.0250155 0.0147809 -0.00397503 0.0244444 
-0.0109667 0.00619208 0.0242348 -0.0158508 0.00157603 0.0278908 -0.00222643 0.00292963 0.0271953 
0.00774708 0.000257759 0.0263043 0.00823543 0.00695817 0.0220546 0.0125308 0.00328359 0.0241238 
0.019926 0.00440002 0.0269857 -0.0162124 0.010642 0.0295312 -0.00297017 0.016131 0.0279635 
0.00285469 0.0106282 0.0266884 0.0132185 0.0152697 0.0285623 0.0171643 0.0107939 0.0238956 
-0.00717542 0.017422 0.0234065 0.00473295 0.0213704 0.0249885 -0.00736392 -0.0181862 0.03346 
-0.0137452 -0.0156671 0.0304865 -0.00595957 -0.0099004 0.0358634 0.00386486 -0.0119892 0.0330266 
0.0122204 -0.0157361 0.0360486 0.0121937 -0.00865261 0.03469 0.0173641 -0.0115687 0.0336921 
-0.0188645 -0.00636478 0.0359991 -0.0130998 -0.00582887 0.0324433 -0.002891 -0.00737051 0.0297613 
0.00172337 -0.00349589 0.0360731 0.00853656 -0.00629459 0.0305497 0.0128372 -0.00117811 0.0321216 
0.0203178 -0.00197543 0.0355497 -0.0189158 0.00562192 0.0370146 -0.00926915 0.00341507 0.0371582 
-0.0015114 0.00359348 0.0355898 0.0043257 0.00191293 0.0369674 0.00962549 0.00517735 0.0375179 
-0.00746403 0.010944 0.0313164 0.00406719 0.00904702 0.0343182 0.012196 0.00923512 0.0339135 
0.00886922 0.0158471 0.036697 0.0184711 0.0116355 0.0376631 -0.0127022 0.0178786 0.0334818 
-0.00747263 0.0205084 0.0349792 -0.0154349 0.0130379 0.038606 -0.00368492 0.0105665 0.038821 
0.00133471 0.0148319 0.0390665 
VERTICES 70 140
1 0 
1 1 
1 2 
1 3 
1 4 
1 5 
1 6 
1 7 
1 8 
1 9 
1 10 
1 11 
1 12 
1 13 
1 14 
1 15 
1 16 
1 17 
1 18 
1 19 
1 20 
1 21 
1 22 
1 23 
1 24 
1 25 
1 26 
1 27 
1 28 
1 29 
1 30 
1 31 
1 32 
1 33 
1 34 
1 35 
1 36 
1 37 
1 38 
1 39 
1 40 
1 41 
1 42 
1 43 
1 44 
1 45 
1 46 
1 47 
1 48 
1 49 
1 50 
1 51 
1 52 
1 53 
1 54 
1 55 
1 56 
1 57 
1 58 
1 59 
1 60 
1 61 
1 62 
1 63 
1 64 
1 65 
1 66 
1 67 
1 68 
1 69 

POINT_DATA 70
FIELD FieldData 7
id 1 70 int
3015 2526 3793 3230 4507 1943 2582 1166 736 
2801 3076 5438 1380 4735 5141 4318 3936 4210 
2282 3867 5388 4085 2132 2726 1617 942 901 
842 209 2813 914 4213 2268 1477 3233 5547 
3250 5080 5455 3387 596 4394 5432 3500 5417 
44 3959 468 1446 2469 4035 2182 724 1999 
1796 1762 2163 3884 3755 2654 3295 3117 2889 
398 4635 385 665 4832 5024 3532 
type 1 70 int
2 2 2 2 2 2 2 2 2 
2 2 2 2 2 2 2 2 2 
2 2 2 2 2 2 2 2 2 
2 2 2 2 2 2 2 2 2 
2 2 2 2 2 2 2 2 2 
2 2 2 2 2 2 2 2 2 
2 2 2 2 2 2 2 2 2 
2 2 2 2 2 2 2 
i 3 70 int
0 0 0 0 0 0 0 0 0 
0 0 0 0 0 0 0 0 0 
0 0 0 0 0 0 0 0 0 
0 0 0 0 0 0 0 0 0 
0 0 0 0 0 0 0 0 0 
0 0 0 0 0 0 0 0 0 
0 0 0 0 0 0 0 0 0 
0 0 0 0 0 0 0 0 0 
0 0 0 0 0 0 0 0 0 
0 0 0 0 0 0 0 0 0 
0 0 0 0 0 0 0 0 0 
0 0 0 0 0 0 0 0 0 
0 0 0 0 0 0 0 0 0 
0 0 0 0 0 0 0 0 0 
0 0 0 0 0 0 0 0 0 
0 0 0 0 0 0 0 0 0 
0 0 0 0 0 0 0 0 0 
0 0 0 0 0 0 0 0 0 
0 0 0 0 0 0 0 0 0 
0 0 0 0 0 0 0 0 0 
0 0 0 0 0 0 0 0 0 
0 0 0 0 0 0 0 0 0 
0 0 0 0 0 0 0 0 0 
0 0 0 
v 3 70 double
-0.01948745564 0.039593970448 -0.03554584908 0.01150673173 0.021850425713 -0.066393575033 -0.023596439608 0.056367589537 -0.014812364443 
0.0015668295338 0.037343956933 -0.046940050995 0.027406946656 0.039168986921 -0.031342074977 -0.025771171523 0.066408318085 0.0058688704699 
-0.0043386942908 0.037017910512 -0.0081120799359 0.0041865090775 0.044447088611 0.0020750567561 -0.0096491875886 0.038318328234 0.019380997541 
0.012354586086 0.023124239154 0.026730975094 -0.0031201655984 0.020761124961 0.022938211841 -0.012296356091 0.004836934175 0.019620343963 
-0.0088025077818 0.039020210018 0.016411626931 -0.010904463934 0.010469005002 0.013157600339 -0.0077756082017 0.0040031552496 0.01205625021 
-0.015585849698 0.010753290336 0.019813736593 -0.045204848643 0.026174365238 -0.064188395882 -0.0069596590569 0.024258899962 -0.11452924662 
0.029143400546 0.046877206643 -0.072717190413 -0.051425547969 0.075090014048 -0.020059968095 -0.028427784698 0.042806875728 -0.067996385579 
0.016070200395 0.047279731866 -0.018558678403 0.043692658141 0.053528120146 -0.063010088461 0.042234815451 0.06653818709 0.00015454538503 
-0.023900550265 0.087099424387 0.025577226833 -0.016106135854 0.043589193311 0.016520246917 0.010224492653 0.053031280829 0.013618760884 
0.015862968991 0.041931751666 0.04801078365 0.000592960244 0.06791571198 0.06255191073 -0.00078634842369 0.041737708651 0.037263522725 
-0.0092206613306 0.041783081724 0.021060547891 -0.012436808245 0.042498529299 0.018743717959 -0.0039155533768 0.050262139756 0.029830637507 
-0.013558427616 0.05431475778 0.038169159881 0.02177813502 0.070678313304 0.068582720797 0.0094736700017 0.026894455792 0.07718051082 
-0.0080756120388 0.029407727029 0.053130070366 -0.022333060675 0.024562711017 0.061516300079 -0.023414354433 0.047892953783 0.041726238881 
0.017868196791 0.018292714559 0.053638797528 -0.018388766265 -0.0092240397839 0.04592026009 -0.053408243847 0.03260218145 -0.12756169844 
-0.061960725524 0.069187995205 -0.079972303774 -0.034585561345 0.035319699446 -0.056504943241 0.016759115982 0.076435629632 -0.065829250872 
0.062365225657 0.039932949805 -0.11090717954 0.040521176712 0.07143231701 -0.010933942806 0.045363371316 0.068378137035 -0.04235678828 
-0.041830531007 0.11989997469 -0.013508162923 -0.022542634617 0.066833876302 0.0044521687348 -0.004389364682 0.053087308695 -0.024445604468 
-0.024088392331 0.09228192471 0.0023288552382 0.0091477508671 0.056162720962 0.014495224204 -0.011440846081 0.083480008173 0.027395399478 
0.015994609456 0.12507517403 0.018763668829 0.028026630087 0.12485202309 0.10523963733 0.00031684185435 0.10989240933 0.09487511242 
-0.02467755272 0.091331839323 0.049331128865 0.001275783809 0.081083667629 0.059171957131 -0.036741408447 0.068138308844 0.046899708531 
0.011587036508 0.042933184261 0.0903717386 -0.01026628842 0.080642080885 0.079512700939 -0.026090359295 0.075139602272 0.063336696047 
-0.0070540367726 0.049230872936 0.12509247003 -0.052355403915 0.081998148781 0.10846887572 0.062974239611 0.053526926581 0.10005717476 
0.087356293756 0.0091317081814 0.14239033938 0.069396041364 0.081990485964 0.12604162883 0.060146308543 0.10125539552 0.11239957566 
0.048439095442 0.087780424219 0.15396579164 
f 3 70 double
3.5187227867e-05 3.157251466e-05 -0.0098927325901 -0.00072228178926 0.0016114023272 -0.0060434243913 0 0 -0.0098744152677 
0 0 -0.0098744152677 0 0 -0.0098744152677 0 0 -0.0098744152677 
0 0 -0.0098744152677 -0.00012227271086 -0.00075854956877 -0.0093681330838 0.00013645646895 -0.00074460598031 -0.0097425382148 
-0.00099093979141 -0.00053625726809 -0.010890054049 -0.0017512749881 -0.0022502871844 -0.010086721806 0.0021794148253 0.004512094766 -0.011729884673 
-0.0002368232558 -7.9008352316e-05 -0.009973700345 0.0012933835613 0.003336512364 -0.011236507231 -0.0020248463882 -0.0043522195349 -0.011739834131 
-0.00037557504838 -0.0034337910404 -0.0099205446412 -0.00055130055838 -9.4115948654e-05 -0.0092589441928 -0.00052981643918 -0.0024456071603 -0.011580160436 
0 0 -0.0098744152677 -0.00024769568049 -0.00059288813887 -0.0091218072174 0 0 -0.0098744152677 
0 0 -0.0098744152677 0 0 -0.0098744152677 -0.0029865139434 0.0013471681374 -0.0074871297258 
-0.00020408113534 -3.4396836836e-05 -0.0096474744353 -4.361362232e-05 -0.00015426460992 -0.0097339817481 -0.00020572445176 -0.0011504601679 -0.010676201098 
-0.00054029954647 0.00043183693132 -0.0099388796919 -0.00010053262015 -4.961626905e-05 -0.0097484729405 0.00023245603335 -0.0013540512558 -0.0085539238206 
-0.0005564569114 -0.00062026673217 -0.0094795041295 0.00042160333461 -0.00098596576407 -0.0096590967096 0 0 -0.0098744152677 
-0.0017928917801 -0.00054424024595 -0.008882532877 0.0012655476393 -0.00096163928487 -0.010863777756 -0.0035544425681 0.0021727802982 -0.0094144097921 
0.00027263249822 -0.00072582695026 -0.010056638415 -0.0054423835963 -0.0029962971691 -0.010032968638 -0.00095778891755 -0.00098614608416 -0.010117907523 
-0.0013532044133 0.003257284217 -0.011391622911 0.00011811129319 0.013072780686 -0.0079998241916 0 0 -0.0098744152677 
-0.003231705781 0.00092430025902 -0.011903221169 -0.014726386922 -0.012297009503 -0.010996751488 0 0 -0.0098744152677 
0 0 -0.0098744152677 0 0 -0.0098744152677 -0.00068932753639 -0.00076177023606 -0.0085207480684 
0 0 -0.0098744152677 0 0 -0.0098744152677 0 0 -0.0098744152677 
0 0 -0.0098744152677 0.0068720369567 0.010225262121 -0.017470744398 0.002618861096 0.0027876178445 -0.012953935374 
0 0 -0.0098744152677 0 0 -0.0098744152677 0 0 -0.0098744152677 
-9.0860607772e-05 -9.231686307e-05 -0.0097340010113 0 0 -0.0098744152677 0.00052467666637 -0.0003950712552 -0.009640339769 
0.00074901176755 0.00085098659833 -0.010582520251 0.0031215425394 0.00086225121636 -0.0094472111776 7.759063256e-05 6.1793999175e-05 -0.0093406882112 
-0.0056113569358 0.00023824074801 -0.0094533120152 0 0 -0.0098744152677 0 0 -0.0098744152677 
-1.4280881032e-05 1.6217840125e-05 -0.0096968466178 0 0 -0.0098744152677 0 0 -0.0098744152677 
-0.00065906848443 -0.0041805243566 -0.0077130613944 
radius 1 70 double
0.003 0.003 0.003 0.003 0.003 0.003 0.003 0.003 0.003 
0.003 0.003 0.003 0.003 0.003 0.003 0.003 0.003 0.003 
0.003 0.003 0.003 0.003 0.003 0.003 0.003 0.003 0.003 
0.003 0.003 0.003 0.003 0.003 0.003 0.003 0.003 0.003 
0.003 0.003 0.003 0.003 0.003 0.003 0.003 0.003 0.003 
0.003 0.003 0.003 0.003 0.003 0.003 0.003 0.003 0.003 
0.003 0.003 0.003 0.003 0.003 0.003 0.003 0.003 0.003 
0.003 0.003 0.003 0.003 0.003 0.003 0.003 
omega 3 70 double
6.401385586 1.0185972742 -1.0708246026 5.3236789668 4.5011301029 1.7375868395 1.9037314631 -1.1459177614 -1.0699951252 
2.5475320123 3.7517351368 1.9539956301 -1.687078252 -1.0317725786 -0.26504622299 3.0915633646 -1.4369502959 -1.0554248498 
3.2743613524 2.5445234992 -0.49388961688 2.0194507915 -0.56792543498 0.2807243176 2.6904117615 2.175232574 -1.1259881217 
-1.4485060837 1.5307603312 -0.74794442837 -0.77554747478 1.2266793013 -0.54249041591 -1.5481195304 -0.66797431542 -1.0674782664 
-0.54958534686 2.080918729 2.4223844825 0.070933415735 -2.7215814803 1.1652612631 -1.4269555542 -0.86404284115 -0.12446808044 
4.8770403883 2.217537931 -0.62506162782 0.19198213903 0.62692401534 -1.0087725868 8.9629679609 -4.3645926556 1.1983874161 
-0.84514821743 2.2883447692 0.99104597277 2.2947105348 -1.5194885812 -4.6303132579 3.5913644075 -4.6553497677 -2.0840114668 
-0.39761179552 -5.3229595613 0.96735201637 -1.8595268268 1.7324879011 2.5826378369 0.18173433826 -0.88366560864 2.7719275328 
7.4796743013 -3.4318702128 -6.7287287804 1.6878401622 1.7089879246 1.8609162801 1.1671870316 -1.4870681489 0.36941892954 
-5.3022634807 4.1439566358 -1.4822147031 2.5314283213 -2.8296318573 -3.9639937764 0.10300623532 2.1871290513 0.24031307058 
0.71973880905 -1.2281697263 2.7412028431 0.66987750554 -0.79361215336 3.0057226841 -0.5496959588 -0.045525908702 1.8276456061 
1.7777706272 -2.5800494125 -0.21414323385 -0.46745961379 0.98579802954 -4.126942933 -5.3677541336 -1.0647977756 -1.5707288145 
0.47010912963 1.4797275475 0.75657808521 3.3509515739 2.5027479272 2.3365892655 0.14131532785 0.35671183113 2.3874661113 
2.4150540581 1.2603464885 -2.0848641242 0.11868459865 3.0827696322 -0.48923501413 -11.87005165 -2.0795590437 -13.085205395 
-3.9209207048 -1.6354792238 -5.1737307208 10.607221398 7.7519495035 -7.5379815129 8.762340741 -7.0073864093 4.9992467289 
0.10399596413 14.655247931 -7.0060872262 2.5315507934 12.678733254 2.786194435 -5.8051999214 1.6323651644 0.88744457365 
6.2479801427 14.97813714 -9.4261759925 7.9414599839 -6.7869314389 -5.0146794277 9.4276643213 -5.9090320266 1.1342829836 
9.8134365467 4.8220823761 0.15596278976 0.76334729957 -1.2089978108 1.6240659244 -4.6008985609 -6.7437836721 7.6873704409 
0.010853812413 1.873437063 5.5814446712 -9.2304127687 2.0237440986 -3.5490769986 -1.7749942559 18.244005376 -23.919455901 
-1.0534207299 4.6201461502 -1.0437060135 -3.7574984096 0.2117574008 0.071675768316 11.179185774 -3.7193286698 0.41340279518 
1.2363495099 -5.058207782 0.32487989502 2.6926041508 3.0620680672 1.3948712902 -9.9707324116 -3.6031154082 1.9910628453 
-0.01643059206 -1.5702444495 -2.796374929 -2.2168898128 -1.851868991 0.64722361404 7.6483274647 -3.7076366743 -5.0240320854 
2.6149548685 -1.9578888022 -5.5127834013 -5.7285426304 -8.0509908031 0.53164289118 -12.189196459 15.663038032 5.9938836515 
4.7069835867 20.181536029 -11.23718893 
