# vtk DataFile Version 4.2
Generated by LIGGGHTS
ASCII
DATASET POLYDATA
POINTS 70 float
-0.00600537 -0.0199693 0.0105712 0.00478222 -0.0180455 0.014213 -0.0180452 -0.0100147 0.0113138 
-0.00154777 -0.0164388 0.00800614 -0.00615281 -0.0100507 0.0106977 0.00455319 -0.0129961 0.00840551 
-0.0216161 -0.00201456 0.0107771 -0.0138143 -0.00437777 0.00872009 -0.0071337 -0.00234407 0.0129689 
0.00283804 -0.0072077 0.0108549 -0.0195975 0.00513966 0.0125507 -0.00236435 0.000581917 0.0108117 
0.00303029 0.00841888 0.0115996 0.0100859 0.00362486 0.0141079 0.0192213 0.00166659 0.0095097 
-0.0108301 0.0155184 0.0153765 0.00220083 0.0130954 0.0152675 0.0120561 0.0167321 0.00812979 
0.0104906 0.00925009 0.00858284 0.0117776 0.0144086 0.0149464 0.0198103 0.00883147 0.0121054 
-0.00558472 0.018062 0.0129974 0.00230159 0.0198859 0.0094693 -0.00754686 -0.0184919 0.0175319 
-0.000439628 -0.0212128 0.0185725 0.0100549 -0.0194 0.0202211 -0.0165336 -0.0143242 0.0210267 
-0.013023 -0.0094451 0.0211582 -0.00119006 -0.0153266 0.0196919 -0.00743843 -0.0103259 0.0191063 
0.00352366 -0.00865219 0.0195524 0.0101841 -0.00910238 0.0159033 0.0120888 -0.0122579 0.0225732 
-0.0207767 -0.00697035 0.0157105 -0.0129049 -0.00477216 0.0173935 0.00183877 -0.00155883 0.0169611 
0.0201796 -0.0015499 0.0203621 -0.0134681 0.0024633 0.0156392 -0.0128812 0.0072385 0.0193224 
-0.00354954 0.00605125 0.0198736 0.00863446 0.00195002 0.0196933 0.0199258 0.0053441 0.0212903 
-0.00953494 0.0140016 0.023485 0.000510398 0.0127747 0.0226839 0.00791442 0.0157427 0.0214353 
0.00974138 0.00920431 0.0177393 0.0179292 0.0125789 0.0211079 -0.00437337 0.019546 0.0236616 
0.00153706 0.0202039 0.0183877 0.000499542 -0.0208095 0.0264337 -0.0184752 -0.0109781 0.0282296 
-0.00212902 -0.00915927 0.0268753 -0.00385355 -0.0146598 0.0288104 0.0160658 -0.0147272 0.0266187 
0.0103126 -0.0099657 0.0296099 -0.0214965 -0.00309157 0.0228939 -0.00836977 -0.00480076 0.0262745 
-0.0153223 -0.00570883 0.0273849 -0.000281283 -0.00338797 0.0285097 0.00778062 -0.00400014 0.026608 
0.0206718 -0.00681095 0.0270524 -0.0198699 0.00255637 0.0282845 -0.00863009 0.00514341 0.0291672 
0.00611789 0.00827919 0.0246462 0.000556274 0.00245316 0.0267762 0.0131199 0.00344182 0.0238192 
-0.0152015 0.0110528 0.0301338 0.00162497 -0.0165209 0.0309786 0.008236 -0.0183581 0.0313104 
-0.0125057 -0.00649823 0.0355583 
VERTICES 70 140
1 0 
1 1 
1 2 
1 3 
1 4 
1 5 
1 6 
1 7 
1 8 
1 9 
1 10 
1 11 
1 12 
1 13 
1 14 
1 15 
1 16 
1 17 
1 18 
1 19 
1 20 
1 21 
1 22 
1 23 
1 24 
1 25 
1 26 
1 27 
1 28 
1 29 
1 30 
1 31 
1 32 
1 33 
1 34 
1 35 
1 36 
1 37 
1 38 
1 39 
1 40 
1 41 
1 42 
1 43 
1 44 
1 45 
1 46 
1 47 
1 48 
1 49 
1 50 
1 51 
1 52 
1 53 
1 54 
1 55 
1 56 
1 57 
1 58 
1 59 
1 60 
1 61 
1 62 
1 63 
1 64 
1 65 
1 66 
1 67 
1 68 
1 69 

POINT_DATA 70
FIELD FieldData 7
id 1 70 int
1477 1796 5432 5388 3959 1380 3793 1762 2582 
942 665 1166 2654 2132 3117 4210 1446 4318 
3936 2268 4213 4035 2282 5417 4507 3755 3295 
3867 1617 724 3884 2469 3500 2813 901 3015 
4735 5024 2526 468 736 44 4832 209 4394 
914 2726 3233 596 4085 3387 3532 5080 4635 
5547 2801 385 398 3230 842 1943 2182 3250 
5455 2163 5141 2889 5438 1999 3076 
type 1 70 int
2 2 2 2 2 2 2 2 2 
2 2 2 2 2 2 2 2 2 
2 2 2 2 2 2 2 2 2 
2 2 2 2 2 2 2 2 2 
2 2 2 2 2 2 2 2 2 
2 2 2 2 2 2 2 2 2 
2 2 2 2 2 2 2 2 2 
2 2 2 2 2 2 2 
i 3 70 int
0 0 0 0 0 0 0 0 0 
0 0 0 0 0 0 0 0 0 
0 0 0 0 0 0 0 0 0 
0 0 0 0 0 0 0 0 0 
0 0 0 0 0 0 0 0 0 
0 0 0 0 0 0 0 0 0 
0 0 0 0 0 0 0 0 0 
0 0 0 0 0 0 0 0 0 
0 0 0 0 0 0 0 0 0 
0 0 0 0 0 0 0 0 0 
0 0 0 0 0 0 0 0 0 
0 0 0 0 0 0 0 0 0 
0 0 0 0 0 0 0 0 0 
0 0 0 0 0 0 0 0 0 
0 0 0 0 0 0 0 0 0 
0 0 0 0 0 0 0 0 0 
0 0 0 0 0 0 0 0 0 
0 0 0 0 0 0 0 0 0 
0 0 0 0 0 0 0 0 0 
0 0 0 0 0 0 0 0 0 
0 0 0 0 0 0 0 0 0 
0 0 0 0 0 0 0 0 0 
0 0 0 0 0 0 0 0 0 
0 0 0 
v 3 70 double
0.06702949096 0.0050715060817 0.27012912146 0.13720214868 -0.0049753050519 0.36029935159 -0.02257948751 0.039891188105 0.32496383016 
0.04788963301 -0.021213182299 0.37992476036 0.0077958191374 0.0058612091228 0.31968606524 0.02646816776 0.0024914877555 0.38465386701 
-0.015176075413 0.10532832782 0.37701101836 -0.018723358661 0.048385896464 0.35084450017 -8.6385634328e-05 0.020424660014 0.35173161629 
0.00030003126566 0.01037053511 0.36874007491 0.021538326208 0.092990666707 0.39621251099 0.015137024967 0.021987298058 0.38543828215 
0.0086629341135 0.021362381195 0.40432348189 0.0090997979845 0.019668825885 0.41728526285 -0.00026046313369 0.035696574595 0.40235460629 
0.056252098542 0.047417908742 0.42827533776 0.020553273116 -0.0017964240193 0.43187219308 0.00026798707069 0.0071990812932 0.41150234302 
-0.004960910417 0.013366039361 0.40690813214 0.00097245225519 0.021317732686 0.43641102763 -0.0010264618146 0.0562483595 0.41266608673 
0.059769592993 0.024358451605 0.42583388691 0.022538633416 -0.0042648950463 0.41098674482 0.030983617866 -0.027020957967 0.21189647183 
0.10345767521 -0.0090572741876 0.28273893587 0.12831547122 0.046050920627 0.3172317583 0.029053609438 -0.04722188893 0.13755065227 
0.014874779799 -0.012416749625 0.2366822107 0.035680084313 0.012631155832 0.24520794284 -0.068821411888 -0.0061871599731 0.20707524331 
0.053120894327 0.0089728367562 0.35928824896 0.065290639003 0.04938246119 0.37492455288 0.091705241367 0.049188321555 0.35914353736 
-0.030649831464 0.070935274595 0.29620946906 -0.057631183744 0.048232204494 0.32991337893 0.024166992888 -0.0015705587123 0.38592362264 
0.014003295822 0.13403036413 0.45904860946 0.0073212726912 0.057918216334 0.3865075551 0.055914323403 0.054018784198 0.3942951381 
0.03684018135 0.022047224444 0.43269769578 0.01145505931 0.041702520608 0.413816661 -0.019864262368 0.11581911749 0.4368787976 
0.10843542114 0.068171796818 0.41752681752 0.037658246126 -0.0015675855736 0.46021600055 0.037438933808 0.020905979521 0.48278637246 
0.011447525397 0.033478038045 0.39840056832 -0.046841308514 0.088658654107 0.5148415269 0.14059485353 0.058367539595 0.47077407055 
0.040793866784 0.0027901071003 0.46475127891 0.084415767537 0.02670285455 0.17474063235 -0.0075929529087 0.057008996461 0.033736466981 
-0.0029451574522 0.11286369985 0.23846397935 0.065968979673 0.011017709498 0.18861606926 0.17960216165 0.21140286489 0.35931690192 
-0.005637576956 0.23773489403 0.25165627319 -0.012468405888 0.14523915597 0.26651752343 0.018516108566 0.089763340649 0.18615399787 
-0.015891823789 0.11982593383 0.15433846227 0.032547749312 0.088510629856 0.2908428352 0.079550029227 0.1265085748 0.33625505878 
0.078252911376 0.20492565668 0.54179129571 0.016512228526 0.1312170907 0.29949014334 0.1259342174 0.085617415385 0.38774857464 
0.074616837394 0.083309657745 0.47052982084 0.073299979348 0.133355165 0.3820314406 -0.0082395374638 0.099726504037 0.43937373972 
0.14103625839 0.1083774737 0.42318139135 0.086215035368 0.12709856715 0.13460898098 0.04845407315 0.11147496091 0.19834851426 
0.089729390105 0.010878853365 0.13082553957 
f 3 70 double
-0.0017056049375 0.032234728 0.036678148097 -0.0072251383449 -0.0002738552567 0.014243870696 -0.011197618409 -0.010741499336 -0.0079700960487 
-0.0038615574614 -0.018965282844 0.017498371783 0.017128877787 0.010143119047 -0.028409980595 -0.013274371704 -0.022183455142 0.025477105225 
-0.013434748485 -0.032722568851 0.035202813898 -0.0030849711933 -0.042186657545 0.0060777908685 -0.032829908928 0.0014101460495 -0.032248710407 
0.017644224009 -0.011444128582 0.0069313959461 -0.0068719971875 -0.0097345822556 -0.010491381841 0.035317349192 0.027348923287 -0.01641989949 
-0.0087147638249 -0.015048825865 0.018255136386 0.0018120217062 -0.018598658586 0.0013625287859 0.0070910495753 -0.013812682364 0.0038971683949 
0.017624706051 -0.0067193326608 0.0027146194266 -0.0085992718828 0.0094295742251 -0.035076121059 0.017863497308 -0.029426205953 0.014659263406 
-0.01753865804 -0.0069915145652 0.00092442158245 0.032913216428 0.020748355459 -0.045309039986 0.015464202373 -0.0061762245081 -0.014548618297 
0.0054583017294 -0.0017449315562 -0.01141851864 0.007955783959 0.0062022885968 0.0065329988286 0.0047302351791 -0.028795781771 -0.017033908618 
0.0014618659042 -0.022112499404 -0.014518826886 -0.0043137447246 -0.03348782151 0.0031990736228 -0.049784733133 0.025563776447 -0.016441361899 
0.0054394308883 0.033808385849 -0.14679373607 -0.0072576365773 -0.0302942118 -0.0035848519489 -0.0071165237424 -0.031629726292 0.093551227636 
-0.017441082584 -0.0082099228853 0.018331635701 0.00026200065603 -0.01395054532 -0.0016489939826 -0.0078617812932 -0.0080786357657 0.038671044583 
0.0096501411633 0.0075269441737 -0.040412381327 -0.063837561526 -0.10729975043 0.13096212735 0.021738358463 0.0055735679993 -2.4363433772e-05 
0.010623634515 0.0029723493315 -0.0063708947849 0.011023912362 -0.042309881141 -1.53212435e-06 -0.018310664861 -0.009201623453 0.016225136539 
0.00085110917418 -0.025137491398 0.0084244154528 -0.018863309894 0.0031168051586 -0.015603885026 0.02071139217 -0.051773741422 0.015723332248 
0.013409256855 -0.016464907543 -0.010360307424 0.02131570206 0.0028661374834 0.0061464825653 -0.017460486148 -0.054920968866 0.040613288833 
-0.049700361209 -0.024030906706 0.033362114969 0.0099834902179 0.016330435719 -0.020145590172 -0.0016164210411 2.06899175e-05 -0.0067234561583 
-0.048954695092 -0.0075677705912 -0.012681335633 0.017341241251 0.02874920271 -0.027571045692 -0.021709346541 -0.0046323081361 0.015645147985 
-0.0064332065104 -0.013623558649 0.020884951935 0.0055140423979 0.0064803860474 -0.0033414713499 0 0 -0.0098744152677 
-0.030302826155 0.0075385641469 0.059855323153 -0.061548094578 0.0060192132158 -0.0069016848035 -0.022328728828 0.010669066026 0.034606854226 
-0.0074889525848 0.019035226159 0.072127727657 -0.010834495342 0.010991281049 -0.0042191303533 0.054805999407 -0.036978841692 0.035805869783 
0 0 -0.0098744152677 -0.022600016223 -0.0048033314423 0.039925549201 0.0086172462426 -0.010906261425 0.00099352911806 
-0.0082779603566 -0.0034794164593 -0.0034176549977 -0.0081549377987 -0.0051713601283 0.04207362314 -0.024417987415 -0.061418188406 0.020475359547 
-0.0098825469435 0.0092461031617 0.010656148776 0 0 -0.0098744152677 0 0 -0.0098744152677 
0 0 -0.0098744152677 
radius 1 70 double
0.003 0.003 0.003 0.003 0.003 0.003 0.003 0.003 0.003 
0.003 0.003 0.003 0.003 0.003 0.003 0.003 0.003 0.003 
0.003 0.003 0.003 0.003 0.003 0.003 0.003 0.003 0.003 
0.003 0.003 0.003 0.003 0.003 0.003 0.003 0.003 0.003 
0.003 0.003 0.003 0.003 0.003 0.003 0.003 0.003 0.003 
0.003 0.003 0.003 0.003 0.003 0.003 0.003 0.003 0.003 
0.003 0.003 0.003 0.003 0.003 0.003 0.003 0.003 0.003 
0.003 0.003 0.003 0.003 0.003 0.003 0.003 
omega 3 70 double
-8.3457627237 5.5999353855 -7.0685703242 2.784212345 6.1619606227 16.322794613 -14.16706163 -6.1235170215 -6.1131765153 
-4.2747869704 -7.7632459037 3.5477910349 3.5183245871 8.3908401688 -7.6813271101 2.5594340614 0.45503085925 5.1172535352 
1.1615710662 -4.0621681259 -3.4188661801 14.36219345 16.125180384 -4.6613897583 7.6046417325 -4.7742172392 -0.38658205155 
2.5631491804 5.6554906862 -6.0168867665 4.760614064 -3.0395381214 -3.6642590837 0.87618640501 -5.1373945269 -1.0098369613 
-0.95302623597 3.6134814703 -0.17028694736 6.6705204421 -0.62485172546 3.3336060554 -9.0170554182 -6.2967478925 2.0015417223 
1.9943191052 0.30192637931 -9.3923612416 3.0032592926 2.2124694854 -1.213247585 -8.667492606 5.4427803445 4.8711657363 
6.6821839393 -0.26159312814 0.16190527475 5.5861486538 -9.4579390185 1.1190076462 -0.36544200165 1.4090608557 4.5556466088 
0.2679064651 -0.71517486439 -2.5721975711 -3.1065680419 -8.0575770024 -1.1000346615 -6.0585305865 2.6308865728 -12.606850311 
-2.0476245939 9.1778517524 17.019652179 -1.7110935935 -34.26244745 -19.344633082 9.8698812955 -11.089537393 1.268081425 
22.554152548 -2.9045539408 10.738664144 -2.5886325086 -6.7235160304 -0.5796608678 13.039018389 12.527372227 19.837554239 
1.2635127488 -9.9018720989 -4.5790995114 7.3551916045 3.5007380394 18.179886161 3.666150559 1.6384988489 18.776424826 
5.1135706042 -4.3629715361 -14.420277258 0.071191686169 -4.195381118 -1.7603319731 9.0772033676 0.93982079635 14.617171015 
-16.186347329 3.3023676087 11.985960483 5.2415708564 12.151824809 -19.475293905 1.3478881852 -4.0936973347 -10.883542712 
2.6205485297 0.10876924865 4.0295593479 -3.2431053087 -0.5232202193 5.6391075918 -0.89121834266 3.3390182104 13.593717379 
1.6288370571 -1.0318342152 -6.6788780968 0.22379618293 3.4248677058 -11.154233939 -10.885961258 -2.7203152817 8.4781494855 
-18.095612328 -8.280993221 -12.453872607 10.005892722 -6.2668247278 4.0797283164 25.835037671 2.2329284063 -11.136579936 
-8.341320866 -5.8059273654 0.61636723285 -16.140026675 30.187638664 -28.306326744 -15.657891254 4.5456136296 -5.6163774719 
-18.771880339 -21.21307956 13.484905559 -6.4110768375 26.376619429 10.810727961 -3.1894890446 -31.068367964 19.104008011 
-40.74803419 1.7930222479 -7.5128875534 23.284828247 12.121627872 -14.071249776 16.524286235 15.524676386 4.4424904151 
9.8624817175 26.009023183 -8.6554791029 28.316919441 26.112450283 -7.3549729536 51.348925606 -13.497742111 17.812759181 
62.439465097 -26.26280392 4.2540754295 12.621566893 16.613247089 -10.243948072 10.878296785 1.0410345802 -24.256857527 
7.3834155162 23.151626527 16.271048616 -1.6113661106 -12.16860863 -0.74442670417 6.5539933522 22.900627744 -4.4551455409 
-3.1129236095 17.235923261 -21.41007816 -21.806071638 -19.144616131 9.6602856242 -41.47629798 -52.257991845 14.191440746 
-9.9180532542 -19.941165802 7.3980814964 
