# vtk DataFile Version 4.2
Generated by LIGGGHTS
ASCII
DATASET POLYDATA
POINTS 70 float
0.00394618 -0.0213506 0.0139336 0.0125528 -0.017501 0.0134904 -0.015615 -0.0101159 0.0112739 
-0.00602839 -0.0155425 0.00913641 -0.00360835 -0.0100788 0.00968001 0.00517377 -0.00944259 0.0107194 
0.00752503 -0.0141786 0.0138101 -0.0204702 -0.00229111 0.00984125 -0.00915795 -0.00574077 0.0132678 
-0.0135774 -0.0015984 0.0137185 -0.0037171 -0.00252639 0.0094317 -0.0107632 0.00532006 0.0138448 
-0.00147087 0.00528745 0.0144079 0.00717407 0.00292718 0.0146138 0.0119365 0.00710848 0.0141515 
0.0186475 0.0020767 0.00983594 -0.00618383 0.0159782 0.0103244 0.00757448 0.00999473 0.00877499 
0.00688426 0.0135724 0.0141192 0.0152069 0.0107178 0.00800789 -0.000110565 0.018044 0.00990608 
0.01282 0.0170143 0.00961557 -0.0032667 -0.0177994 0.0158893 -0.00706143 -0.0207043 0.0218815 
-0.0202157 -0.00834824 0.0147303 -0.00960514 -0.0159812 0.0148954 -0.0117301 -0.0113204 0.0180132 
-0.000866465 -0.00920506 0.0180716 0.00516457 -0.0145018 0.0208504 0.0143792 -0.0139432 0.0203981 
0.010599 -0.00904832 0.0197349 -0.0217649 -0.00267282 0.0217797 -0.013297 -0.00633458 0.0216818 
0.00206444 -0.00277898 0.0151834 0.0167139 -0.00182573 0.0200638 -0.0192191 0.00483246 0.0163648 
0.00448598 0.00570731 0.0216381 0.0118852 0.00732955 0.0218071 0.0207903 0.00660386 0.0163868 
-0.00328119 0.0130164 0.0164202 0.017483 0.0133244 0.0158663 0.0172434 0.0103728 0.0229485 
-0.0105064 0.0179232 0.0214633 -0.000661002 0.0218503 0.0188873 0.00711667 0.0185551 0.0200668 
-0.00795997 -0.0183249 0.0286774 -0.00122047 -0.021855 0.0282153 0.00701133 -0.0205056 0.0280286 
-0.0184186 -0.010965 0.0229765 -0.00219615 -0.0156157 0.025375 0.00209498 -0.00929034 0.0296077 
0.0124673 -0.0157195 0.0297781 -0.0215117 -0.00132713 0.0296062 -0.00839226 -0.000519981 0.0264654 
-0.00437244 -0.00726644 0.0255487 0.0017496 -0.0022982 0.0274112 0.015775 -0.00684989 0.0269761 
0.00991627 -0.00141784 0.0263621 0.0217267 0.000433186 0.0255289 -0.0152565 0.00321722 0.0261876 
-0.00889425 0.00882503 0.0294371 -0.00425058 0.00381386 0.0251756 -0.00605724 0.0147144 0.0263915 
0.00101003 0.00979353 0.0243207 0.000909644 0.0186164 0.0248569 -0.0196046 -0.00979006 0.030524 
-0.0105789 -0.00995439 0.0299857 0.00139594 -0.0152345 0.0307491 -0.0148292 -0.00371033 0.0317561 
-0.0207592 0.00671279 0.0317803 
VERTICES 70 140
1 0 
1 1 
1 2 
1 3 
1 4 
1 5 
1 6 
1 7 
1 8 
1 9 
1 10 
1 11 
1 12 
1 13 
1 14 
1 15 
1 16 
1 17 
1 18 
1 19 
1 20 
1 21 
1 22 
1 23 
1 24 
1 25 
1 26 
1 27 
1 28 
1 29 
1 30 
1 31 
1 32 
1 33 
1 34 
1 35 
1 36 
1 37 
1 38 
1 39 
1 40 
1 41 
1 42 
1 43 
1 44 
1 45 
1 46 
1 47 
1 48 
1 49 
1 50 
1 51 
1 52 
1 53 
1 54 
1 55 
1 56 
1 57 
1 58 
1 59 
1 60 
1 61 
1 62 
1 63 
1 64 
1 65 
1 66 
1 67 
1 68 
1 69 

POINT_DATA 70
FIELD FieldData 7
id 1 70 int
3755 4635 1762 1380 942 2469 3500 665 2582 
5024 1166 2526 468 736 2132 3117 4210 2654 
1446 3936 4035 2282 1796 1477 3793 5388 3959 
3884 5438 1999 5547 2801 901 3015 4735 2182 
2163 914 4213 4832 4318 2268 2889 3233 596 
5417 4507 4085 5432 1617 842 1943 3295 385 
3532 3230 44 5141 2726 398 3250 3076 209 
5455 4394 2813 724 5080 3867 3387 
type 1 70 int
2 2 2 2 2 2 2 2 2 
2 2 2 2 2 2 2 2 2 
2 2 2 2 2 2 2 2 2 
2 2 2 2 2 2 2 2 2 
2 2 2 2 2 2 2 2 2 
2 2 2 2 2 2 2 2 2 
2 2 2 2 2 2 2 2 2 
2 2 2 2 2 2 2 
i 3 70 int
0 0 0 0 0 0 0 0 0 
0 0 0 0 0 0 0 0 0 
0 0 0 0 0 0 0 0 0 
0 0 0 0 0 0 0 0 0 
0 0 0 0 0 0 0 0 0 
0 0 0 0 0 0 0 0 0 
0 0 0 0 0 0 0 0 0 
0 0 0 0 0 0 0 0 0 
0 0 0 0 0 0 0 0 0 
0 0 0 0 0 0 0 0 0 
0 0 0 0 0 0 0 0 0 
0 0 0 0 0 0 0 0 0 
0 0 0 0 0 0 0 0 0 
0 0 0 0 0 0 0 0 0 
0 0 0 0 0 0 0 0 0 
0 0 0 0 0 0 0 0 0 
0 0 0 0 0 0 0 0 0 
0 0 0 0 0 0 0 0 0 
0 0 0 0 0 0 0 0 0 
0 0 0 0 0 0 0 0 0 
0 0 0 0 0 0 0 0 0 
0 0 0 0 0 0 0 0 0 
0 0 0 0 0 0 0 0 0 
0 0 0 
v 3 70 double
0.1562144918 0.060055633875 0.29816108342 0.12962650018 0.05367641282 0.39264812903 0.030155550953 0.07078349795 0.24360586698 
0.076023399936 0.037590317264 0.28204923281 0.086534895412 0.035762637964 0.36364359908 0.064757550053 0.0089802165446 0.38624847379 
0.10631276982 0.05928383323 0.37677459152 -0.0044817190968 0.089742890254 0.34584463458 0.014402275948 0.031426986474 0.32123318698 
0.022122906472 0.046747337474 0.34211219138 0.051666496968 0.0096116293584 0.40408531533 0.034875538166 0.021885381422 0.39084154687 
0.043767105443 0.016973793827 0.39906051317 0.020658716934 0.02945572244 0.4267379512 0.0051360790564 0.013547212165 0.41506502183 
-0.0029899805022 0.023639196946 0.39820498761 0.045574296367 0.024650180345 0.41003004505 0.0084424029874 0.013404283535 0.40529378329 
0.036261687456 0.0092361468409 0.4134753082 -0.0037776867115 -0.0081333003007 0.40157380316 0.033658869821 0.018202977993 0.39655738918 
0.016558195624 -0.010270285458 0.39528739774 0.10956734254 0.0073416005218 0.23898008507 0.065445111314 -0.02908062647 0.20500505327 
-0.0064064119069 0.039288780719 0.22509723875 0.029193929431 0.016373550446 0.24652579235 0.018009970993 0.0097897450295 0.22348422225 
0.056604541508 -0.020442293354 0.33930121619 0.12548173297 0.088597483755 0.27419351551 0.14201819634 0.15725441819 0.4128340608 
0.087955282162 0.10830695138 0.42241882627 -0.022245210642 0.075900940604 0.12752961432 0.0391183945 0.040877537507 0.2145478834 
0.022127900821 -0.0051848818364 0.35941462059 0.044422200871 0.1177951703 0.4692359241 0.042042796553 0.10729384532 0.34485388509 
0.046066899725 0.063864583131 0.4230044772 0.04834919011 0.041760484798 0.42083563186 0.0086519786795 0.015019843106 0.41064679368 
0.038399288644 0.028297336143 0.41676771805 -0.00034376808683 0.0046756707997 0.41634648237 0.0049703000651 0.03913888908 0.47595670347 
0.082145617961 0.07280526927 0.44096464396 0.069224765005 0.031005126218 0.47233616478 0.042913900004 0.0072426746397 0.40276522824 
0.058271023909 0.023757923603 0.12679238359 0.15349521728 0.0099262641052 0.1618631387 0.12589822636 0.074124061399 0.24815847966 
-0.012338509863 0.030044925787 0.17904226522 0.073723034352 0.0095808001021 0.17726199253 0.15886068299 0.1305201129 0.17938796767 
0.074716705972 0.12517296118 0.28907981745 0.01558482623 0.096080468047 0.10029986986 0.1068712382 0.1764045295 0.24599033186 
0.095315632768 0.09585801724 0.1946980926 0.083628239468 0.19838281602 0.38925200202 0.18694770692 0.17674979136 0.47925441345 
0.084642431806 0.17883298647 0.48719676098 -0.012823261701 0.23094967884 0.45908046759 0.056954421637 0.11977282932 0.18739957036 
0.14849887277 0.20466529705 0.41538039737 0.10883576986 0.14486036013 0.36833086096 0.23052483625 0.14968581236 0.42508191236 
0.074404692842 0.092734582868 0.41516385712 0.11765498255 0.067822568163 0.54103239971 -0.073918097678 0.057964649374 0.20898228952 
0.059828698186 0.060347347351 0.075553006972 0.090688204802 0.12264695671 0.1871439171 0.10122345457 0.1357240219 -0.021482980666 
0.027234594342 0.1159737507 0.17836965095 
f 3 70 double
0 0 -0.0098744152677 -0.027589208106 -0.029295458285 -0.0057904508014 -0.02285667437 -0.0032414098336 0.0033219740893 
-0.0065362358611 0.013842256174 -0.031749007605 -0.024187890436 -0.087999077323 0.0015760993107 -0.016732931499 -0.01728675682 0.013044698199 
-0.0087556225962 -0.020575986485 -0.0070706414227 -0.012520191616 -0.020251859571 0.012882288741 0.0067555747395 -0.018963815089 -0.011917439734 
-0.026460881429 -0.0059260221612 0.013883619488 -0.022470834864 -0.010496965954 -0.00090514291508 0.0014628732085 -0.023791691195 -0.00034959546697 
-0.037507121774 0.0074967204232 0.006566087863 -0.030956757866 -0.026207105209 0.017200065069 0.0086976278603 0.013471286907 0.010979286651 
0.0056667144492 0.020097852146 0.0030959490524 0.027456965133 0.0014402603461 0.01063353001 0.011632690156 0.017017625859 -0.0024370704194 
0.010120019637 -0.018086935862 0.009849224402 0.01013955498 0.01199482573 0.012603825118 0.01521431985 0.006444183235 0.0074580274916 
-0.00021252571508 0.01597973124 0.0011840841125 0.0051856412043 -0.0089418104591 0.010140242965 -0.0035410995192 0.0026646542865 -0.015915496585 
0 0 -0.0098744152677 0.083054971406 -0.087669799618 -0.15843215742 -0.076428179145 0.091939210908 0.14626658787 
0.00081378206899 -0.010347379496 -0.0014132198265 -0.016222498717 -0.016265124735 -0.0021744244347 -0.023000409109 -0.0063219939961 0.024246065862 
0.038332275577 -0.014674794886 -0.069766139171 -0.011999897843 -0.016494972127 0.0067796630123 -0.0040241840838 -0.00083678838692 -0.0046860489699 
0.021370869308 0.0056670489258 0.021025430364 0.00029945195867 7.6374278131e-05 0.041462183136 0.023504716369 -0.03541082862 0.013445969207 
-0.0095121181515 -0.046008452476 -0.023136384875 0.095131412385 -0.0052673800563 -0.044692709072 0.0084561275935 -0.015067883244 0.016257989333 
0.035657256753 0.022345879369 -0.022353277877 -0.012484484551 -0.032487464078 0.0067174686452 0.0041685149679 -0.077291556127 0.027270031173 
-0.018728518792 -0.01076876496 0.0037096898028 -0.0012641007287 0.0029441550466 0.024390675371 -0.0018764241298 -0.011139715868 -0.012731918408 
4.9710239908e-06 -3.2189525473e-06 -0.0098494214539 0.00042639937292 -0.0037017720458 -0.0010583575651 0.0024975436389 0.00061580346686 -0.043565016779 
0 0 -0.0098744152677 0 0 -0.0098744152677 -0.078107707098 -0.019753373744 0.05986357462 
0.0067739911285 0.001246210677 -0.011568869834 0 0 -0.0098744152677 -0.0091537696469 0.018784699566 0.017097147081 
-0.00091779096252 -0.0052486889162 -0.00128851604 0 0 -0.0098744152677 0.001868039514 -0.00063850255176 -0.008078642984 
-0.071635907126 0.020929500437 -0.082008151415 0.023092412045 -0.017635501031 0.029911965714 -0.011708748145 -0.015902752336 0.007916694137 
-0.0034223510614 -0.0084367707251 0.0068027571111 0.026291109885 -0.046296540618 -0.036180261218 0 0 -0.0098744152677 
-0.075610777818 0.029313063717 0.02986658556 -0.053554283924 0.006833807352 0.034168109154 -7.7764101646e-05 6.2093309952e-05 -0.009913329464 
0 0 -0.0098744152677 0 0 -0.0098744152677 -0.011008984968 0.0074037959715 -0.0011333736392 
0 0 -0.0098744152677 
radius 1 70 double
0.003 0.003 0.003 0.003 0.003 0.003 0.003 0.003 0.003 
0.003 0.003 0.003 0.003 0.003 0.003 0.003 0.003 0.003 
0.003 0.003 0.003 0.003 0.003 0.003 0.003 0.003 0.003 
0.003 0.003 0.003 0.003 0.003 0.003 0.003 0.003 0.003 
0.003 0.003 0.003 0.003 0.003 0.003 0.003 0.003 0.003 
0.003 0.003 0.003 0.003 0.003 0.003 0.003 0.003 0.003 
0.003 0.003 0.003 0.003 0.003 0.003 0.003 0.003 0.003 
0.003 0.003 0.003 0.003 0.003 0.003 0.003 
omega 3 70 double
7.4632305299 6.4996735833 7.0299418429 -6.645778254 4.4518244955 16.075965341 6.1944433301 -3.3228732607 -2.50120802 
10.909036229 -6.0223433404 -4.1990533433 16.814775714 -0.76196181829 0.77014656401 1.0085861377 3.4212514702 10.637358051 
-9.3835797758 3.81856953 4.5840599504 3.6200864787 -1.3485808277 7.3284143826 7.5062602629 -13.900815943 -9.4100981086 
13.682695278 -7.5948797393 -10.483721606 -5.985958116 -1.2028959032 5.154525968 -4.6154619438 3.9737584487 -0.76999795019 
3.7883570388 -0.45048776726 -2.9908814204 -10.692233027 12.456238633 -1.4104248056 10.529264768 -4.618370745 -0.77853229454 
4.9274799742 -0.81459485763 -1.0712741576 3.909164209 1.6989415133 -1.4106682542 4.4815746807 -8.7277331445 -4.6005822885 
1.7449246317 -6.53840323 1.7826763441 3.7414611386 12.998413293 -2.8938728652 5.3769229238 0.49123214601 -2.8844039942 
-1.8955662215 2.5367737953 -0.82894601547 -15.843241982 -17.117830766 10.853261323 -4.6522087956 -0.79669469605 8.031631136 
0.50940042939 -0.51836306828 3.3544197085 -1.880355573 -8.1945779224 2.9459187203 16.490747029 -4.5681418683 -1.1432313966 
12.487325594 -6.0769389587 13.193624839 6.7214781217 -4.1100670285 -5.4282886694 3.415866584 -12.467799833 10.968770733 
-1.0993052705 2.6476387797 8.6274633946 8.3671454063 -6.6964650941 -6.5415016325 -7.1011833712 -4.8017420029 9.0714112743 
-0.62370248339 12.684116716 -1.4292232936 -4.0933426316 2.7875359899 1.5241646596 8.1886815282 3.4608093056 2.397313972 
-12.289074003 10.617180901 -4.2289417074 -7.5735869674 14.920083259 -7.3305876902 -9.1004377115 8.0949095948 1.2785235698 
-3.3419951442 0.55258982345 -1.7881367589 5.5814633206 -3.9814736226 0.47331294005 -3.6757803222 -13.322320433 9.5077356403 
3.7438255003 -1.1854477591 4.1491362846 0.72251047651 2.1275862908 -6.6098845875 -4.7516136931 10.070451292 -7.4547401795 
-31.407327766 9.415547483 5.5755467681 -14.871852301 21.762183778 56.333692818 15.69554546 -4.7717795032 11.231563225 
2.2152997219 -4.0468910269 -3.358641674 -50.768874737 -25.785432798 -22.840742606 13.6362109 11.880438843 -13.278308792 
1.0272256703 -25.332291592 18.834680134 41.516527473 -35.485695972 -18.013021467 4.9668520072 20.772438499 19.216413146 
13.142116535 -14.543773456 -1.0118403208 -2.5396746669 -38.374394462 9.3562690827 21.647841359 -25.666404215 -20.909126921 
37.060237392 0.98661139883 -10.290152898 10.267241387 -7.9735084515 -2.2243618848 14.502474322 1.9728298986 -6.366880427 
-40.503868944 -37.086558023 12.951751362 12.756830827 -3.8521367196 -1.8127919601 -3.5536514041 30.967179505 -3.9899369502 
8.4831586689 -10.339574171 -8.911833289 -1.5122200805 12.225575839 -3.4533775456 26.683848874 17.99226593 38.799685964 
11.392874162 15.545138796 -27.992438906 -15.934337379 54.097185629 -39.607820425 25.786672802 31.773452189 -55.19090831 
47.747608611 11.599152613 -10.920097084 
