# vtk DataFile Version 4.2
Generated by LIGGGHTS
ASCII
DATASET POLYDATA
POINTS 70 float
0.0114581 -0.0368894 0.00699838 -0.0237986 -0.0238458 0.00699828 -0.00516478 -0.0202765 0.00953845 
0.0278628 -0.0211398 0.0135785 0.0230261 -0.0153722 0.00699752 -0.0253441 -0.00911908 0.0113724 
-0.0187622 -0.00161635 0.0107676 -0.00540934 -0.00082461 0.0069993 0.0045111 -0.00742059 0.00934088 
0.0159819 -0.000463851 0.0109253 0.0119743 0.00781084 0.0069976 0.0247776 0.00517861 0.00975104 
-0.0327818 0.0126216 0.00699878 -0.0248283 0.0178785 0.0100133 -0.000589488 0.0181855 0.0102347 
0.00562292 0.011265 0.0139045 -0.0125072 0.0218876 0.00749382 0.00288389 0.0293428 0.00699795 
0.0229398 0.0220761 0.0070533 -0.000836414 -0.0222524 0.0217332 0.0205449 -0.00875754 0.0144138 
-0.00820969 0.00387825 0.0164056 -0.0114136 0.0133337 0.0169576 0.0101142 0.0160929 0.0215669 
0.0225476 0.010684 0.0232497 0.0057422 0.0299437 0.0204631 -0.0141535 -0.0327213 0.0297117 
-0.000932094 -0.0397253 0.0283781 -0.00426073 -0.0305304 0.0304676 -0.0203286 -0.0203268 0.0274441 
-0.00721645 -0.018164 0.0282577 0.00504079 -0.0176016 0.0283518 0.019833 -0.0173874 0.0279802 
0.0294059 -0.0112395 0.0311967 -0.00674141 -0.00769605 0.0261014 0.0291985 -0.00143261 0.0292522 
-0.0127277 0.00477301 0.0347275 -0.00474817 0.00179301 0.0286245 0.0109787 0.0038892 0.0330456 
-0.012138 0.0145033 0.032501 0.0040476 0.0289293 0.0322747 0.0115002 0.0244725 0.0273158 
0.0295522 0.021592 0.0316808 0.00282281 -0.0325029 0.0374722 -0.0125618 -0.0252659 0.0410811 
0.0107596 -0.0251496 0.041906 -0.0216844 -0.0136966 0.0449292 0.00295226 -0.0199709 0.0378388 
0.0380504 -0.0114132 0.036744 -0.0161152 -0.00371844 0.0393055 -0.000240087 -0.00253142 0.0366106 
0.0163072 -0.000789572 0.0443757 0.0206867 -0.00931641 0.0414084 -0.0315248 0.00143338 0.0398353 
-0.0193531 0.0218709 0.0395089 -0.006833 0.0267618 0.0404402 0.0116872 0.0258019 0.0379173 
-0.0090512 -0.0234547 0.0502674 0.020305 -0.0299045 0.0510236 -0.0336379 -0.0136575 0.0531292 
0.0289081 -0.0133596 0.0475458 -0.0282449 -0.001882 0.0510298 -0.00557575 -0.00708143 0.0460092 
-0.0208779 0.00686567 0.0466713 -0.0126155 0.00283972 0.0506102 -0.0020702 0.00309101 0.0460998 
0.00615957 0.000137386 0.051779 0.0273787 0.00968743 0.0508261 -0.00966207 0.0205185 0.0524101 
4.56629e-05 0.0204071 0.0471149 
VERTICES 70 140
1 0 
1 1 
1 2 
1 3 
1 4 
1 5 
1 6 
1 7 
1 8 
1 9 
1 10 
1 11 
1 12 
1 13 
1 14 
1 15 
1 16 
1 17 
1 18 
1 19 
1 20 
1 21 
1 22 
1 23 
1 24 
1 25 
1 26 
1 27 
1 28 
1 29 
1 30 
1 31 
1 32 
1 33 
1 34 
1 35 
1 36 
1 37 
1 38 
1 39 
1 40 
1 41 
1 42 
1 43 
1 44 
1 45 
1 46 
1 47 
1 48 
1 49 
1 50 
1 51 
1 52 
1 53 
1 54 
1 55 
1 56 
1 57 
1 58 
1 59 
1 60 
1 61 
1 62 
1 63 
1 64 
1 65 
1 66 
1 67 
1 68 
1 69 

POINT_DATA 70
FIELD FieldData 7
id 1 70 int
44 732 1464 837 912 1986 1606 936 895 
1371 663 720 467 208 1438 1782 385 1157 
595 2267 398 2166 1751 2117 2149 1929 2782 
2509 2454 2873 2996 2710 2790 3102 2640 2566 
3057 2252 3510 3206 3209 3228 3475 3932 4179 
4006 4181 3841 3364 4052 3265 4362 4280 3857 
3770 3909 3724 5377 4989 4708 4482 5353 5397 
4796 5509 5103 5420 5050 5402 4610 
type 1 70 int
2 2 2 2 2 2 2 2 2 
2 2 2 2 2 2 2 2 2 
2 2 2 2 2 2 2 2 2 
2 2 2 2 2 2 2 2 2 
2 2 2 2 2 2 2 2 2 
2 2 2 2 2 2 2 2 2 
2 2 2 2 2 2 2 2 2 
2 2 2 2 2 2 2 
i 3 70 int
0 0 0 0 0 0 0 0 0 
0 0 0 0 0 0 0 0 0 
0 0 0 0 0 0 0 0 0 
0 0 0 0 0 0 0 0 0 
0 0 0 0 0 0 0 0 0 
0 0 0 0 0 0 0 0 0 
0 0 0 0 0 0 0 0 0 
0 0 0 0 0 0 0 0 0 
0 0 0 0 0 0 0 0 0 
0 0 0 0 0 0 0 0 0 
0 0 0 0 0 0 0 0 0 
0 0 0 0 0 0 0 0 0 
0 0 0 0 0 0 0 0 0 
0 0 0 0 0 0 0 0 0 
0 0 0 0 0 0 0 0 0 
0 0 0 0 0 0 0 0 0 
0 0 0 0 0 0 0 0 0 
0 0 0 0 0 0 0 0 0 
0 0 0 0 0 0 0 0 0 
0 0 0 0 0 0 0 0 0 
0 0 0 0 0 0 0 0 0 
0 0 0 0 0 0 0 0 0 
0 0 0 0 0 0 0 0 0 
0 0 0 
v 3 70 double
-1.4056855662e-08 1.5206266146e-07 3.6006854732e-08 -1.6268085461e-07 1.1753756575e-07 -1.1315724473e-08 3.4468158372e-08 1.7826192912e-07 -2.5915987987e-08 
3.1294769879e-07 -4.6482461181e-08 5.5021530392e-07 -5.3650039371e-07 2.0016315851e-08 5.6685754117e-07 2.8649331779e-08 1.4250191807e-07 -6.9821898772e-08 
-2.7187489108e-08 -1.7689203087e-07 -7.3844684211e-08 5.4742763786e-07 -2.8695613901e-08 6.0006269223e-08 2.7955554598e-07 3.3249976372e-07 -6.9217462281e-07 
1.2160852848e-07 -2.5630317242e-07 -1.3443728855e-07 -1.0222077529e-07 3.9652006708e-07 -2.8435428077e-07 -3.2855580244e-07 -1.170290911e-07 -1.2186326174e-06 
7.3272139766e-07 1.1377285786e-06 -1.321281471e-06 -1.2418317103e-07 1.0818957674e-06 4.8269330934e-07 -2.3027432063e-07 6.6319468332e-07 3.5694206139e-07 
-8.0470532772e-08 2.156359389e-07 2.4947105682e-07 1.5639697993e-06 -3.8247476881e-07 -2.1839446324e-06 7.5696065744e-07 -2.6863038652e-07 1.6661488599e-07 
4.3038370203e-07 7.8204098038e-07 -1.4735725196e-07 -7.5172558913e-08 5.523756493e-09 -2.1601122275e-07 5.0605865205e-08 4.7624707466e-07 3.0274127117e-07 
5.2972596409e-08 1.0630656026e-07 3.3210387697e-07 -1.0333757496e-07 -8.0087344577e-07 1.8033202114e-07 -1.0319791018e-07 -3.0294752357e-08 -1.2844478392e-07 
2.6065605488e-07 -3.4339744379e-07 -2.5439118551e-08 -1.6630570667e-07 9.8136227192e-08 2.8458849103e-07 -1.0747898725e-07 -1.3872426458e-07 -1.5512605691e-07 
8.313607679e-08 9.309173795e-08 -1.0560352726e-07 -3.5960528682e-08 -7.6708657738e-09 -1.7205928029e-07 1.2597213958e-07 1.9546886481e-07 6.942513409e-08 
-1.402365349e-07 -2.7508345392e-08 1.0392463023e-07 -2.7103258975e-07 5.1601800167e-09 -5.362362056e-07 3.0970145693e-07 -6.2584070495e-07 -6.4070568494e-07 
5.6607324611e-07 8.4065007996e-07 -1.2684651208e-06 7.6582579302e-10 -3.8980836092e-08 -6.3104924036e-09 -1.7867686508e-07 7.3964020401e-07 2.7981138819e-07 
-1.4091823887e-07 -2.978517514e-07 -7.8925078521e-08 1.3552563596e-07 1.4290928257e-07 -1.9303379859e-07 1.3335303616e-07 -2.4724074538e-07 1.7998275225e-08 
6.630623767e-07 4.1859744305e-08 1.6107806776e-07 -6.1123037623e-08 1.2949639168e-07 8.8725012824e-08 2.4121946938e-07 -3.8627075055e-07 6.7884789201e-08 
-3.1998622566e-07 1.3423000344e-07 2.5246453698e-07 1.1430228029e-07 -7.7086956755e-08 -6.0121183351e-08 3.1694183749e-07 1.4289871568e-07 8.6345645564e-08 
9.0750357326e-08 -2.3062942941e-08 -2.2336768011e-07 1.1076302499e-07 1.2573295553e-07 2.146292958e-08 1.4829775859e-07 -1.3529019957e-07 -1.3985469401e-07 
1.2370718639e-07 -6.9337093995e-09 -2.0902593709e-08 1.6041274817e-07 1.7530636484e-07 -4.1523947514e-07 1.3495718012e-07 -3.0993753544e-08 -1.792900265e-07 
6.5076850556e-08 -1.6027638738e-08 1.453639868e-07 -8.4235380967e-08 -6.0467652972e-08 -1.4190936326e-07 -1.0652931672e-07 2.0235148371e-07 9.3625278448e-08 
-4.5427952544e-07 3.0255499035e-07 -1.0316754471e-06 -3.9735827282e-07 4.4304428433e-08 -9.2000530305e-08 4.0677434683e-08 3.0971751055e-07 -1.3376524434e-07 
1.6620447058e-07 5.7846820048e-08 -1.8250391223e-07 1.7265889877e-07 1.3432078531e-07 -9.6702629548e-08 3.3650924236e-07 2.4626219158e-07 -3.8647681371e-08 
-1.5041282774e-08 -1.7226953735e-07 5.0270188886e-08 -1.2709849139e-07 2.8713521185e-07 7.7755660266e-08 -3.6841052471e-07 -1.7489823788e-07 4.916751503e-07 
-6.0952093094e-08 -1.3020525547e-07 -1.9047028741e-08 1.1326180434e-08 -2.9579643573e-08 -4.8335898263e-09 4.3773920913e-08 -1.0660861773e-07 -1.7466519333e-07 
-1.7083506361e-07 -6.9514844945e-08 5.096035716e-08 4.3865982346e-08 1.0850614008e-07 7.43695869e-08 1.7430004991e-07 -1.7763758577e-07 3.5382215104e-07 
1.3416441783e-07 5.6515638431e-08 -5.110122184e-08 
f 3 70 double
-0.00017118316371 5.6788654728e-05 0.00010932614082 0.00024615866872 0.0002613795833 0.00027538153795 6.1483960813e-05 -0.00011733602117 -0.00037755857308 
-0.00023862710779 0.00015102026393 0.00043660808986 -0.00032500717155 -7.978477615e-06 8.7214991869e-05 0.00015823380662 0.00013893134173 -9.9150133332e-05 
-0.0001079819703 4.4999939129e-05 0.00014818731088 1.7295330711e-05 -5.6435337036e-05 0.00018449624488 -0.00029359463466 -0.00057012641175 -2.5740803906e-05 
5.2997350254e-05 -3.9710330695e-06 6.5632066104e-05 -3.8301058071e-06 0.00027875339024 -8.0829045688e-05 9.2634590942e-05 -0.00034780458576 0.00020486068186 
-2.4571959272e-05 8.6225798481e-05 -9.675809828e-05 -0.00028842076387 0.00031304822912 -0.00031767704914 6.4986948431e-05 -0.00012185245095 0.00019960295508 
0.00021163619045 0.00011230856435 -0.00015494010902 0.00031321233444 -0.00052943551289 0.00030665597128 1.4293714218e-05 0.00037808457433 5.1336786781e-05 
2.7907002247e-06 2.7776945814e-05 -0.00028714604522 1.2303650167e-05 -0.00011381904931 -6.5775718883e-05 0.00012087727632 0.00026411179402 -3.8633575729e-05 
8.1914514939e-06 0.0003570719633 -0.00025683031105 0.0001953983283 -0.00019445755037 -0.00021924422566 -0.00025790249778 1.8559206727e-06 -6.5838995475e-05 
-7.1305772074e-05 -0.00020621348697 -5.0318440273e-06 -0.00012150335729 -0.00031969361694 0.0001078442977 4.6693676013e-05 -0.00011696309616 4.276885513e-05 
-3.9261146868e-05 1.202872829e-05 -0.00012977833241 -6.9116856026e-05 1.6890206613e-05 -6.4019484899e-05 -5.4472474856e-05 -4.497667065e-05 4.2547578716e-05 
-0.00013537888473 -0.00010965352373 -1.8689105875e-05 0.0001109496994 7.6015259899e-05 4.9939602135e-05 -3.6511768905e-05 0.00011257950663 5.6473085136e-05 
-0.00032226335888 0.00013477820856 0.00011761282003 -1.1953564711e-05 -1.9440078697e-05 5.6018052002e-05 -3.1204308819e-05 8.706628125e-05 -6.4904338274e-07 
-0.00030040544293 -3.3269748791e-05 -1.009649329e-06 0.00016454493175 0.00019627504056 0.00018700933524 -2.9733362942e-05 -1.2826028682e-05 -0.00013849003628 
-4.3210407051e-05 -0.00012298109173 0.00010645323668 6.5090855459e-05 -1.7098849169e-06 1.9636052804e-05 2.1852532225e-05 2.8882583484e-05 1.0084622315e-05 
0.0001408094357 2.9606485742e-05 -7.0710607989e-05 1.3858707972e-05 2.7959744474e-05 -2.892986617e-05 -3.7576869473e-05 1.4469371646e-05 -3.7629367081e-05 
4.7924139251e-06 3.7719855531e-05 -2.0772065025e-05 4.5356515592e-05 3.3469016045e-05 -2.8524048007e-05 -5.8391074353e-06 -1.2743381693e-05 8.8808749866e-06 
1.7249097749e-06 -3.8047482212e-05 -9.6918667882e-05 4.1147091669e-05 -0.00012403379131 3.7980213533e-05 1.540643926e-05 5.4568745652e-05 -3.2429135205e-05 
5.1408848981e-06 2.6606206413e-05 2.9723565298e-06 -8.9562722039e-05 3.5081964244e-05 -4.4581016539e-05 6.3924273592e-05 3.0712134069e-05 7.9672905693e-05 
-4.3587441983e-05 8.7768460154e-06 0.00011944271227 -9.5659429767e-06 3.2591880905e-05 7.4957417401e-05 1.2417612237e-05 1.5435567024e-05 -3.622379618e-06 
3.1186370475e-05 8.3568093392e-06 1.7153866517e-05 -1.0704695962e-05 -1.9948147161e-05 6.1759279498e-06 -0.00015603586612 -4.5289329575e-06 -2.4750034182e-06 
-9.6474222943e-06 -1.6974197636e-05 5.7603279424e-05 2.515191302e-06 -6.3657245107e-05 -2.4448804264e-05 -2.5012455396e-05 -6.8237615416e-05 -1.4480617136e-05 
-7.6070808364e-05 8.9875627509e-05 2.7384634284e-05 -5.1495909296e-06 -2.701647258e-06 1.2102109664e-05 1.0207766051e-05 -1.8573479524e-05 3.9854342121e-05 
-4.5567405797e-06 -1.6683851963e-05 4.2186449399e-06 -6.8177476406e-05 -4.8781460366e-06 -2.0770891625e-05 -7.009984361e-05 -2.1739250132e-05 9.5908981625e-06 
2.306054228e-05 6.4725453716e-07 1.3734471886e-05 
radius 1 70 double
0.005 0.005 0.005 0.005 0.005 0.005 0.005 0.005 0.005 
0.005 0.005 0.005 0.005 0.005 0.005 0.005 0.005 0.005 
0.005 0.005 0.005 0.005 0.005 0.005 0.005 0.005 0.005 
0.005 0.005 0.005 0.005 0.005 0.005 0.005 0.005 0.005 
0.005 0.005 0.005 0.005 0.005 0.005 0.005 0.005 0.005 
0.005 0.005 0.005 0.005 0.005 0.005 0.005 0.005 0.005 
0.005 0.005 0.005 0.005 0.005 0.005 0.005 0.005 0.005 
0.005 0.005 0.005 0.005 0.005 0.005 0.005 
omega 3 70 double
-0.00012657254097 4.2509974037e-05 3.3549452215e-05 1.1267768562e-05 -4.3199810749e-06 1.7902283937e-05 -0.00011333943026 9.4296092742e-05 -1.4595678776e-05 
-1.8941449551e-05 -0.00020863070846 -0.00018047157776 5.583514055e-05 0.00011588845945 0.00017878024229 -9.7076336662e-06 -3.7578010251e-05 4.3061556048e-06 
-1.1890897104e-05 2.4817033645e-06 5.6139791697e-05 -0.00017525709211 0.00033944877828 -6.8874315272e-05 -0.00060968503202 0.00058230046312 -4.5921618803e-05 
-0.00011029747208 0.00025514345943 -6.5003678201e-05 -0.00016887280518 -1.9241196281e-05 0.00013772136962 0.00045440589623 0.00022400706746 -0.00026340619237 
-0.00041192807334 0.00038810980028 0.00018801570204 -0.0006136308959 0.00052074048263 0.00028333087559 -0.00038582442678 -0.00021524649857 -0.00020614734731 
7.1814796109e-05 -1.6393304985e-05 -6.8508823537e-06 -0.00014293308218 -0.00099789298412 -1.6370151132e-05 -0.00016342386086 -0.00033225394152 -0.00061296834065 
0.00071484489084 -0.0005909518428 1.4485766176e-05 -4.9666820758e-05 0.00016860421878 -5.8844201111e-05 0.00032740542778 -9.7537788773e-05 0.00066126674413 
-3.3463426526e-05 -3.3332300219e-05 -0.00012872170459 -4.4924938509e-05 2.8228286919e-07 -0.00010309405977 6.0953554002e-05 2.8526879007e-05 5.9611345089e-06 
-3.2960967219e-05 -1.1241933761e-05 -9.1985168149e-05 -0.00011184885478 -0.00011645879809 0.00014585014913 -8.5167961538e-07 -9.1638573782e-05 0.0001060493704 
2.1465245671e-06 3.1007734864e-05 -5.4815059199e-06 -4.0968903471e-05 -6.7505960334e-07 -4.1840915143e-05 -4.6672996878e-05 2.3621375784e-05 6.927823132e-05 
5.8004260958e-06 8.3134920376e-05 -3.1678037837e-05 -1.523164063e-05 0.00039072214587 7.1497681776e-05 -0.00024203754138 -0.00044576964126 3.6952224131e-06 
9.7167716904e-05 -0.00014988794745 -6.4694158894e-05 2.9371393133e-05 -5.6073889168e-05 -4.046784083e-06 -6.0138540891e-05 -3.8151116916e-05 6.2325625817e-05 
0.00015387749134 -4.1486014721e-05 -5.5624580744e-05 6.8549824403e-05 2.5039404366e-05 2.3254050698e-05 3.1715633626e-05 5.2049976684e-05 4.4876042747e-05 
-7.3719196596e-05 -0.00018319395521 2.3016990676e-06 5.0956477983e-05 -1.1529152856e-05 -7.3322751539e-06 -0.00016849919205 -7.7064174486e-05 4.9828758216e-05 
-2.0034506689e-05 5.1626488755e-05 -1.7924457643e-05 2.0267252367e-05 -1.9980935675e-05 -3.0078987088e-05 6.5979799026e-06 -6.7782040083e-05 -0.00012172510293 
-1.4588788768e-05 1.9568510341e-05 -5.1895372184e-07 4.7582515093e-05 3.7251578673e-06 -7.3560274588e-06 7.4355762214e-05 1.4141905589e-05 5.0755034257e-05 
0.00019371751441 -5.5456907801e-05 -9.4853194751e-05 -4.9741488229e-05 0.00011075968889 0.00018547233235 0.00023100269744 -6.7394805157e-05 0.00011508062461 
-2.1369874034e-05 1.4769765615e-05 -3.2102316142e-06 4.0132200304e-05 9.2894258166e-05 8.3921581382e-06 7.3884041732e-05 -2.2140144618e-05 -6.4435561982e-05 
-0.00021165314111 1.5222615091e-05 -5.3502305008e-06 -8.1420539208e-05 -0.00016889573488 -0.00011019756876 -4.8021504207e-05 6.174236077e-05 2.0873884548e-05 
4.4562965829e-05 4.2238493064e-05 -1.9990571035e-05 2.0505853675e-05 4.6070163168e-06 -3.8607881351e-07 2.3397327827e-05 -0.00015267509449 7.7355321606e-05 
-2.5719249602e-05 6.671427027e-06 -1.5996366417e-05 -8.872144336e-06 3.474791648e-05 4.5120974281e-06 -0.00011084103873 0.00012509206408 0.00014353535648 
6.6241076523e-05 6.2078359262e-05 4.15380245e-05 -2.7930500058e-05 -1.8708323537e-05 -2.0907585933e-05 5.0584925887e-05 -5.0632642955e-05 5.0472407634e-05 
-2.593052056e-05 -3.9442602979e-05 6.4820076729e-06 1.0752133647e-05 3.0839099421e-05 7.1116327662e-05 -3.7371159495e-06 -0.00018032395742 -5.503012807e-05 
2.7291223781e-05 -5.9853395135e-05 1.4411883057e-05 
