# vtk DataFile Version 4.2
Generated by LIGGGHTS
ASCII
DATASET POLYDATA
POINTS 70 float
-0.00180242 -0.0181893 0.0170357 0.0052193 -0.0212026 0.0168276 -0.00973739 -0.0156319 0.0153892 
-0.00142436 -0.0126091 0.0147238 -0.0201785 -0.00748414 0.0166046 -0.018617 -0.000368079 0.0148958 
-0.0108966 -0.00668928 0.0174363 0.0100017 -0.00127747 0.0188165 0.0197424 -0.000723749 0.0173944 
-0.0112288 0.00114393 0.0163195 -0.00943286 0.00665749 0.0178757 -0.000270108 0.00246292 0.0184006 
0.0044165 0.00796346 0.0155081 0.0164193 0.00811717 0.0151036 -0.00243366 0.0149243 0.0174572 
0.010741 0.0120738 0.0189517 0.00292525 0.0194996 0.0132298 0.00544605 0.0183454 0.0190188 
0.0110907 0.0174207 0.0133169 -0.00393989 -0.0214999 0.021815 0.00414947 -0.0186072 0.0225899 
-0.0172053 -0.0136179 0.0238453 -0.00584042 -0.0145748 0.0246977 0.00105695 -0.0106523 0.0229868 
0.0094599 -0.0147524 0.0264296 -0.0171824 -0.00602621 0.0238514 -0.0218563 -0.000553244 0.0231261 
-0.00966719 -0.00449989 0.0254017 -0.00345759 -0.00415257 0.0208783 0.0211301 -0.00514505 0.0261146 
-0.0208777 0.0067141 0.0220358 -0.0137557 0.00123755 0.0279514 -0.0115988 0.00805392 0.0273101 
0.0046843 0.00612288 0.0229619 0.0120311 0.00510924 0.0260272 0.0190243 0.00515491 0.0225096 
-0.0172762 0.0132207 0.0272607 -0.0158877 0.0099853 0.0212402 -0.00464625 0.0109085 0.0254634 
0.0138333 0.0127185 0.0277644 -0.00269034 0.0213701 0.0247369 0.00638257 0.0178951 0.0262231 
-0.00648927 -0.0209444 0.0311442 0.000882948 -0.0218418 0.0313323 0.00555421 -0.0190188 0.0340625 
-0.00971938 -0.0147318 0.0296318 -0.0165176 -0.0116335 0.0317015 -0.00922085 -0.00940684 0.0325988 
-0.00128199 -0.0158535 0.0312177 0.0124942 -0.0160489 0.0353068 -0.0210893 -0.00317582 0.031347 
-0.0146963 -0.00684775 0.0348895 0.0011884 -0.00840214 0.0334809 0.00491783 -0.00322679 0.0323729 
0.0133591 -0.0071199 0.0295081 0.0195908 -0.00445478 0.035701 -0.0110262 0.000418478 0.0354598 
-0.00385136 0.000290972 0.0364274 0.00127335 0.00525911 0.0318566 0.00747816 0.00669168 0.0323012 
0.0136743 9.60906e-05 0.0330522 0.0217126 0.00296554 0.0289957 -0.00715777 0.0106553 0.0333093 
0.0170746 0.0132076 0.0330326 -0.00452659 0.0188341 0.0301194 0.00930126 -0.0176393 0.0424808 
-0.0184724 -0.011 0.0402726 0.0015037 -0.0154296 0.0396541 -0.00562484 -0.00563216 0.0376202 
-0.0184652 0.00149338 0.0372625 
VERTICES 70 140
1 0 
1 1 
1 2 
1 3 
1 4 
1 5 
1 6 
1 7 
1 8 
1 9 
1 10 
1 11 
1 12 
1 13 
1 14 
1 15 
1 16 
1 17 
1 18 
1 19 
1 20 
1 21 
1 22 
1 23 
1 24 
1 25 
1 26 
1 27 
1 28 
1 29 
1 30 
1 31 
1 32 
1 33 
1 34 
1 35 
1 36 
1 37 
1 38 
1 39 
1 40 
1 41 
1 42 
1 43 
1 44 
1 45 
1 46 
1 47 
1 48 
1 49 
1 50 
1 51 
1 52 
1 53 
1 54 
1 55 
1 56 
1 57 
1 58 
1 59 
1 60 
1 61 
1 62 
1 63 
1 64 
1 65 
1 66 
1 67 
1 68 
1 69 

POINT_DATA 70
FIELD FieldData 7
id 1 70 int
5547 4507 2526 3015 3295 3387 398 44 1943 
3250 3867 3076 468 4735 209 736 2889 4210 
3117 1999 5417 2182 1166 5080 1477 901 2813 
3532 385 4318 5432 3959 724 5141 2268 2726 
5455 4394 596 2132 3233 4832 2469 4085 3755 
5024 2801 942 5438 3500 3793 2582 5388 914 
1796 4213 1762 842 2163 4035 3936 2282 3230 
2654 1446 1380 665 4635 3884 1617 
type 1 70 int
2 2 2 2 2 2 2 2 2 
2 2 2 2 2 2 2 2 2 
2 2 2 2 2 2 2 2 2 
2 2 2 2 2 2 2 2 2 
2 2 2 2 2 2 2 2 2 
2 2 2 2 2 2 2 2 2 
2 2 2 2 2 2 2 2 2 
2 2 2 2 2 2 2 
i 3 70 int
0 0 0 0 0 0 0 0 0 
0 0 0 0 0 0 0 0 0 
0 0 0 0 0 0 0 0 0 
0 0 0 0 0 0 0 0 0 
0 0 0 0 0 0 0 0 0 
0 0 0 0 0 0 0 0 0 
0 0 0 0 0 0 0 0 0 
0 0 0 0 0 0 0 0 0 
0 0 0 0 0 0 0 0 0 
0 0 0 0 0 0 0 0 0 
0 0 0 0 0 0 0 0 0 
0 0 0 0 0 0 0 0 0 
0 0 0 0 0 0 0 0 0 
0 0 0 0 0 0 0 0 0 
0 0 0 0 0 0 0 0 0 
0 0 0 0 0 0 0 0 0 
0 0 0 0 0 0 0 0 0 
0 0 0 0 0 0 0 0 0 
0 0 0 0 0 0 0 0 0 
0 0 0 0 0 0 0 0 0 
0 0 0 0 0 0 0 0 0 
0 0 0 0 0 0 0 0 0 
0 0 0 0 0 0 0 0 0 
0 0 0 
v 3 70 double
-0.038774960294 -0.014824347275 -0.18139723963 -0.039929456457 -0.012748560141 -0.18763992067 -0.015398303027 -0.0080525147679 -0.19554237094 
-0.016835844048 -0.021620641729 -0.19453111406 0.0034650575849 -0.043705495001 -0.18272892685 -0.0082616943664 -0.050151279585 -0.19082622844 
-0.011542294608 -0.014838466797 -0.18279119187 -0.0039716651298 -0.05888849563 -0.21705333514 -0.0034493834539 -0.08495905645 -0.212071955 
-0.010909217574 -0.042116983238 -0.1971994895 -0.02564157535 -0.035807157469 -0.1998940251 -0.031862527579 -0.051268742311 -0.2334137717 
-0.021110203969 -0.048249110636 -0.22637739955 0.02828824707 -0.055438395478 -0.21653185008 -0.027255984592 -0.025108502682 -0.26564696315 
0.0084311630105 -0.029463215896 -0.26803151843 -0.024185606353 -0.011111194097 -0.25961748863 -0.011715540811 -0.01433682593 -0.26632338534 
-0.0031604810326 -0.025150757238 -0.26189469256 -0.02895731717 0.0046141847856 -0.16633344974 -0.052642031193 -0.016050830694 -0.1699394365 
0.02104557849 -0.021312532931 -0.16493164482 -0.02909106634 0.0076249764124 -0.13979070902 -0.023438664 -0.032382497801 -0.17633831429 
-0.043294915684 -0.044944419282 -0.14795294689 0.009014569489 -0.029806220056 -0.16469636164 -9.4595370737e-05 -0.052514512948 -0.17631001402 
-0.0066240335612 -0.035153286802 -0.15819186252 -0.017335205231 -0.033436757978 -0.18217422613 -0.025835586396 -0.10567151883 -0.20137498827 
-0.013337258599 -0.049704204598 -0.19534967494 -0.021149905889 -0.045722869943 -0.16143661789 -0.039529802603 -0.04995866253 -0.19502454488 
-0.011228221558 -0.030722816363 -0.26174448755 0.0047642845351 -0.069758389738 -0.25946979519 0.024577207678 -0.062269637591 -0.22890405554 
-0.04726392239 -0.061328518372 -0.18272898229 -0.012938367269 -0.039337727504 -0.20181780106 -0.041376017235 -0.052098417017 -0.24749857544 
0.01939339918 -0.045970370546 -0.3198241607 -0.038124446776 -0.005924000126 -0.31004093642 0.0042253017926 -0.021305131324 -0.29731949028 
-0.014512808131 0.018590405833 -0.098229677131 -0.030212709721 3.0318945204e-05 -0.10769015244 -0.057860881627 -0.03877429431 -0.098977541829 
-0.010745597679 -0.01794862314 -0.13752802649 0.0077007043971 -0.016947885765 -0.10496508218 0.0092866967724 -0.027287916045 -0.11777794241 
-0.020402169572 -0.011345825921 -0.12021787244 -0.05907644839 -0.060452882505 -0.099746432127 -0.018629239291 -0.10228472539 -0.14974969252 
-0.025924053156 -0.054425050898 -0.091088252667 -0.013003279338 -0.061309706975 -0.12995074206 -0.018244526453 -0.077587177193 -0.19099744511 
-0.02602990642 -0.087938660668 -0.18840228222 -0.021468238422 -0.11293197721 -0.19091535134 -0.043454407267 -0.11090349935 -0.15725698998 
-0.039094272569 -0.095769685879 -0.16684647816 -0.037265967583 -0.074565651985 -0.23690389761 -0.0020438142266 -0.073363489945 -0.27183128451 
-0.0010776241054 -0.068985713336 -0.22393277045 0.027602033819 -0.10222936512 -0.23155406842 -0.052527329773 -0.064978845634 -0.24949039425 
0.035790437423 -0.049844162608 -0.32683251849 -0.040044019567 -0.03421661081 -0.31490927469 -0.082703383129 -0.051506833618 -0.056958118122 
0.079644482472 -0.089248314854 -0.017607367036 -0.081379426564 -0.089642602427 -0.074936783632 -0.0040264017297 -0.077117047706 -0.07885667523 
-0.047232999593 -0.10947059771 -0.12387310485 
f 3 70 double
-0.0002834033434 -0.00097527682078 -0.010204235221 0.00034351631798 -0.0016934336509 -0.010479470925 -0.0013668800832 6.3808839907e-05 -0.010274145823 
0.0002261004967 0.00038009148288 -0.0099549129722 0.0012714980472 0.0018556693328 -0.010950970849 9.0406116862e-06 0.00021487753778 -0.0099254374943 
0.0002702159656 3.6611802346e-05 -0.010050604928 -0.0023125467444 -0.0039238770856 -0.011987246235 0 0 -0.0098744152677 
-0.0011325227713 0.0019353581187 -0.010475340456 0 0 -0.0098744152677 0.0006353523222 0.0020026341054 -0.010052852201 
0 0 -0.0098744152677 0 0 -0.0098744152677 0 0 -0.0098744152677 
0 0 -0.0098744152677 -4.109759212e-05 -5.2319170993e-05 -0.0098392058306 0 0 -0.0098744152677 
0 0 -0.0098744152677 0.00050371382426 -0.00039778912057 -0.0097972879224 -2.4545907198e-05 0.00052844691732 -0.01010285122 
0 0 -0.0098744152677 0.00031168754793 -7.3556749667e-05 -0.010090374156 0.002254317133 -0.0014206797959 -0.010327925901 
-2.887641211e-05 0.00025363249351 -0.0099266047207 -0.00074602564232 -0.00022960864014 -0.011630779803 0.0010012117287 0 -0.0098742652898 
0.00014031974554 0.0027584781462 -0.010585888835 -0.0016403738131 -0.0044082714841 -0.0093006652262 0.00050296070182 0.00097313019843 -0.0098857079892 
0 0 -0.0098744152677 0.0049626594075 -0.00069472472014 -0.0080509752916 0 0 -0.0098744152677 
-0.00018982535655 -0.0026761811655 -0.0036868197435 0 0 -0.0098744152677 -0.0017377515661 0.0002407000541 -0.0084123954891 
-0.0034208130204 -0.0032933130072 -0.0094776050977 0 0 -0.0098744152677 0 0 -0.0098744152677 
0.0023784667612 -0.002171953665 -0.0082911346128 7.2142561222e-05 0.00014775795464 -0.0096122188786 0 0 -0.0098744152677 
0.0091123362756 0.022869625299 -0.0098707715041 0 0 -0.0098744152677 0.0031005004233 -0.0070783592817 -0.0096554646885 
0 0 -0.0098744152677 0.013732004489 -0.0083243709761 -0.0041690935247 3.454460082e-05 -5.4817570394e-07 -0.0098531876436 
0 0 -0.0098744152677 -0.0030153627757 0.00093246412869 -0.010084345053 0.00077880011376 -0.00032330885005 -0.0099375734185 
0 0 -0.0098744152677 0 0 -0.0098744152677 0 0 -0.0098744152677 
0.0014886053223 0.0011052783148 -0.0094238703084 0 0 -0.0098744152677 -0.0025524418597 -0.00045870877627 -0.0070198077631 
0.0093544063324 0.0038148465656 -0.0077737171481 0 0 -0.0098744152677 0.0060956181748 0.0098178646703 0.0024161283902 
0 0 -0.0098744152677 0 0 -0.0098744152677 -0.0001947776877 0.0010328759893 -0.0090633501188 
0 0 -0.0098744152677 0 0 -0.0098744152677 0 0 -0.0098744152677 
0 0 -0.0098744152677 0 0 -0.0098744152677 0 0 -0.0098744152677 
0.0052537132755 0.0032283674109 -0.0067794702408 
radius 1 70 double
0.003 0.003 0.003 0.003 0.003 0.003 0.003 0.003 0.003 
0.003 0.003 0.003 0.003 0.003 0.003 0.003 0.003 0.003 
0.003 0.003 0.003 0.003 0.003 0.003 0.003 0.003 0.003 
0.003 0.003 0.003 0.003 0.003 0.003 0.003 0.003 0.003 
0.003 0.003 0.003 0.003 0.003 0.003 0.003 0.003 0.003 
0.003 0.003 0.003 0.003 0.003 0.003 0.003 0.003 0.003 
0.003 0.003 0.003 0.003 0.003 0.003 0.003 0.003 0.003 
0.003 0.003 0.003 0.003 0.003 0.003 0.003 
omega 3 70 double
-2.3567458932 -3.0596633111 -2.1694280859 -0.72802219734 0.63075887606 -1.051459217 1.7520721037 -1.6110045722 -1.6260844711 
-1.0277940832 0.21794539541 -2.1692823821 1.1924471395 2.8011506013 2.4727476653 -1.3892832459 0.33779387043 1.6121581232 
1.943853421 1.9012615793 -0.80208490968 -3.1881224923 -2.3645744986 -3.8616451918 2.2755763367 1.8826403971 -0.42954477963 
-0.50413307985 1.4223363732 2.4722452747 0.29116126441 1.0934020223 3.8960096462 -3.9967362829 5.7142642924 0.32042971489 
-2.9140427722 -0.093653907766 -0.81581440066 -2.7500913713 -4.5175474241 -4.129281085 3.3612977558 6.1072896407 0.11597200605 
-6.2540413807 1.4663302695 -1.1403772093 -2.3300892091 -3.7135248475 -2.3185096261 -0.5737308646 5.1041814746 -3.9381577881 
-3.3599101688 1.3859752199 1.28044844 2.1592526447 -1.6103898779 -5.6574376355 0.085058108208 -5.3581720824 -2.6639728178 
6.2487865287 2.8953126146 -0.50939022577 0.48382213895 -0.41575156225 3.956676489 -1.111112037 0.076689865661 0.87388343214 
1.6828287697 -0.089255985021 -2.2719429008 -5.0445054315 0.85420871412 2.1802189408 -3.1119677666 0.34821661991 4.3993598664 
-1.260848008 2.2339940503 0.94635911461 -0.80726151051 2.0149169234 -0.74516681186 -0.8274438126 -0.52488795761 -3.1669994393 
-1.2603756569 -0.3696712637 2.2058636174 -0.11945111915 -0.84184931573 1.8547250496 -1.9653947138 1.9556616767 3.9966561595 
1.821563805 -10.43384379 -0.45000216039 -1.3236665639 7.8539441104 2.7916964507 -4.4535774605 -4.6283395715 -6.0369913834 
0.16766004928 1.438724503 3.1904320421 -0.99957475722 -0.044699563216 3.7537372432 -3.5208503134 -4.5004634557 -4.9109069205 
4.666262317 1.5245163297 -4.5261327685 3.1535823521 -3.1642370895 1.9552674587 1.1010574901 5.1335451227 -2.1832451834 
-14.189869381 -4.3886896147 -0.83103146938 0.88502411145 4.2602990234 1.421920716 1.5589056835 -0.44501409084 5.4143095618 
2.8153477387 4.1236232012 3.2183904925 -2.2077724354 -2.9907392311 0.53772390061 2.5693348962 3.2610816477 -0.33247776867 
2.2505294987 -5.3277007191 -1.8217814739 2.6302578753 -0.50151111284 -7.2969258894 -1.4366869444 -3.0203237202 6.9129093444 
4.0997250875 -5.8018048368 9.4281211366 6.05509525 6.2546667997 -2.5522693463 5.9747578582 2.4060601761 -2.5944426863 
4.8380648626 -2.3736115846 -2.8765148457 -3.0278826884 2.7980473798 -5.4454507896 6.1045342379 7.7899233943 3.6426550622 
-7.530370536 14.596090067 9.7903924894 -2.9056742217 -6.4870847465 1.1105001453 -17.521752616 5.6498479061 -12.767727387 
-13.715017193 -2.8808182728 -1.6089712442 -8.0491145499 -1.938124924 -1.5581315198 2.7305180999 -0.993087875 0.10695853095 
-2.482961839 3.6158799158 1.7128278679 3.0458613026 -0.77353831322 2.1594151568 -18.238227477 3.1909670274 -9.7141162501 
18.738864294 5.4280067988 -3.1003451669 9.8093494692 -8.4752036301 17.095860571 -3.3037829463 -4.5611848889 8.096631628 
27.481966306 11.087774989 10.20832991 
