# vtk DataFile Version 4.2
Generated by LIGGGHTS
ASCII
DATASET POLYDATA
POINTS 70 float
0.0114581 -0.0368894 0.00699838 -0.0237986 -0.0238458 0.00699827 -0.00516478 -0.0202765 0.00953845 
0.0278628 -0.0211398 0.0135785 0.0230261 -0.0153722 0.00699752 -0.0253441 -0.00911908 0.0113724 
-0.0187622 -0.00161635 0.0107676 -0.00540934 -0.00082461 0.0069993 0.0045111 -0.00742059 0.00934088 
0.0159819 -0.000463851 0.0109253 0.0119743 0.00781084 0.0069976 0.0247776 0.00517861 0.00975104 
-0.0327818 0.0126216 0.00699878 -0.0248283 0.0178785 0.0100133 -0.000589488 0.0181855 0.0102347 
0.00562292 0.011265 0.0139045 -0.0125072 0.0218876 0.00749382 0.00288389 0.0293428 0.00699795 
0.0229398 0.0220761 0.0070533 -0.000836414 -0.0222524 0.0217332 0.0205449 -0.00875754 0.0144138 
-0.00820969 0.00387825 0.0164056 -0.0114136 0.0133337 0.0169576 0.0101142 0.0160929 0.0215669 
0.0225476 0.010684 0.0232497 0.0057422 0.0299437 0.0204631 -0.0141535 -0.0327213 0.0297117 
-0.000932095 -0.0397253 0.0283781 -0.00426073 -0.0305304 0.0304676 -0.0203286 -0.0203268 0.0274441 
-0.00721645 -0.018164 0.0282577 0.00504079 -0.0176016 0.0283518 0.019833 -0.0173874 0.0279802 
0.0294059 -0.0112395 0.0311967 -0.00674141 -0.00769605 0.0261014 0.0291985 -0.00143261 0.0292522 
-0.0127277 0.00477301 0.0347275 -0.00474817 0.00179301 0.0286245 0.0109787 0.0038892 0.0330456 
-0.012138 0.0145033 0.032501 0.0040476 0.0289293 0.0322747 0.0115002 0.0244725 0.0273158 
0.0295522 0.021592 0.0316808 0.00282281 -0.0325029 0.0374722 -0.0125618 -0.0252659 0.0410811 
0.0107596 -0.0251496 0.041906 -0.0216844 -0.0136966 0.0449292 0.00295226 -0.0199709 0.0378388 
0.0380504 -0.0114132 0.036744 -0.0161152 -0.00371844 0.0393055 -0.000240087 -0.00253142 0.0366106 
0.0163072 -0.000789572 0.0443757 0.0206867 -0.00931641 0.0414084 -0.0315248 0.00143338 0.0398353 
-0.0193531 0.0218709 0.0395089 -0.006833 0.0267618 0.0404402 0.0116872 0.0258019 0.0379173 
-0.0090512 -0.0234547 0.0502674 0.020305 -0.0299045 0.0510236 -0.0336379 -0.0136575 0.0531292 
0.0289081 -0.0133596 0.0475458 -0.0282449 -0.001882 0.0510298 -0.00557575 -0.00708143 0.0460092 
-0.0208779 0.00686567 0.0466713 -0.0126155 0.00283972 0.0506102 -0.0020702 0.00309101 0.0460998 
0.00615957 0.000137386 0.051779 0.0273787 0.00968743 0.0508261 -0.00966207 0.0205185 0.0524101 
4.5663e-05 0.0204071 0.0471149 
VERTICES 70 140
1 0 
1 1 
1 2 
1 3 
1 4 
1 5 
1 6 
1 7 
1 8 
1 9 
1 10 
1 11 
1 12 
1 13 
1 14 
1 15 
1 16 
1 17 
1 18 
1 19 
1 20 
1 21 
1 22 
1 23 
1 24 
1 25 
1 26 
1 27 
1 28 
1 29 
1 30 
1 31 
1 32 
1 33 
1 34 
1 35 
1 36 
1 37 
1 38 
1 39 
1 40 
1 41 
1 42 
1 43 
1 44 
1 45 
1 46 
1 47 
1 48 
1 49 
1 50 
1 51 
1 52 
1 53 
1 54 
1 55 
1 56 
1 57 
1 58 
1 59 
1 60 
1 61 
1 62 
1 63 
1 64 
1 65 
1 66 
1 67 
1 68 
1 69 

POINT_DATA 70
FIELD FieldData 7
id 1 70 int
44 732 1464 837 912 1986 1606 936 895 
1371 663 720 467 208 1438 1782 385 1157 
595 2267 398 2166 1751 2117 2149 1929 2782 
2509 2454 2873 2996 2710 2790 3102 2640 2566 
3057 2252 3510 3206 3209 3228 3475 3932 4179 
4006 4181 3841 3364 4052 3265 4362 4280 3857 
3770 3909 3724 5377 4989 4708 4482 5353 5397 
4796 5509 5103 5420 5050 5402 4610 
type 1 70 int
2 2 2 2 2 2 2 2 2 
2 2 2 2 2 2 2 2 2 
2 2 2 2 2 2 2 2 2 
2 2 2 2 2 2 2 2 2 
2 2 2 2 2 2 2 2 2 
2 2 2 2 2 2 2 2 2 
2 2 2 2 2 2 2 2 2 
2 2 2 2 2 2 2 
i 3 70 int
0 0 0 0 0 0 0 0 0 
0 0 0 0 0 0 0 0 0 
0 0 0 0 0 0 0 0 0 
0 0 0 0 0 0 0 0 0 
0 0 0 0 0 0 0 0 0 
0 0 0 0 0 0 0 0 0 
0 0 0 0 0 0 0 0 0 
0 0 0 0 0 0 0 0 0 
0 0 0 0 0 0 0 0 0 
0 0 0 0 0 0 0 0 0 
0 0 0 0 0 0 0 0 0 
0 0 0 0 0 0 0 0 0 
0 0 0 0 0 0 0 0 0 
0 0 0 0 0 0 0 0 0 
0 0 0 0 0 0 0 0 0 
0 0 0 0 0 0 0 0 0 
0 0 0 0 0 0 0 0 0 
0 0 0 0 0 0 0 0 0 
0 0 0 0 0 0 0 0 0 
0 0 0 0 0 0 0 0 0 
0 0 0 0 0 0 0 0 0 
0 0 0 0 0 0 0 0 0 
0 0 0 0 0 0 0 0 0 
0 0 0 
v 3 70 double
3.9433933863e-07 -2.0035972551e-07 -3.946686043e-08 -5.3755863346e-08 -6.3297562973e-08 -7.9339614447e-08 -1.4165229335e-07 -1.5451688247e-07 -2.6912336683e-08 
1.0693924176e-07 -1.6170857205e-07 1.3952117823e-06 5.722744601e-07 -9.8019773212e-08 1.5131252814e-07 -2.053387787e-07 -1.1917461392e-07 6.2885123081e-09 
1.9686852e-08 1.9800270977e-07 -2.7743594139e-08 -2.8618203943e-07 7.1170612579e-08 5.237287031e-07 8.4640799349e-07 1.3190790912e-06 3.2350377813e-08 
5.2933225342e-07 -1.168851815e-07 3.452695094e-07 2.7374597483e-07 -4.3909228263e-07 -3.5381448552e-07 -2.7449591801e-07 -3.9878763515e-08 -6.7029657782e-07 
-2.1689259599e-07 -1.1106620017e-06 1.6975912638e-06 7.1472455425e-07 -1.9486285039e-07 -3.2981082141e-07 1.4810334034e-06 -1.1505975571e-07 2.0704338359e-07 
2.6198228595e-07 -1.7078527014e-07 -2.9039443642e-07 -1.2125702141e-06 -2.3837798521e-07 2.618852839e-06 3.0988548016e-07 1.9608150601e-08 -5.7871491073e-08 
4.1431453223e-07 1.0802536868e-06 1.4813435449e-07 -3.4010807306e-08 4.0844529222e-08 2.7625466137e-07 -1.7392420711e-07 -1.0205202418e-06 3.8678508416e-07 
-9.1675023965e-08 -7.0704764785e-08 -3.0396244285e-07 7.2780820847e-07 -1.2651263152e-07 -2.2400249322e-07 7.5635892875e-08 -8.8520766689e-08 -1.7526009304e-08 
1.4062774305e-07 -8.0324691365e-08 -1.2903588221e-07 2.772118966e-07 1.26516398e-07 -2.3615461159e-07 8.4950498344e-08 1.9530385754e-07 1.1202729864e-07 
-3.2169287081e-08 7.0241145579e-08 -4.2491255053e-08 8.0175162632e-08 1.2390181876e-07 1.3544497879e-07 -1.2066228025e-07 -2.8549609537e-07 -3.9734443616e-07 
3.2083034129e-07 1.871493646e-10 -1.3759929656e-08 -4.8657526795e-08 4.3578289826e-07 1.5214646838e-07 6.0967236518e-07 -8.4065575608e-07 -6.7990227822e-07 
-4.6273396159e-07 -1.5916233895e-07 -8.820100313e-08 -8.2669202251e-08 -1.0260365345e-07 2.8893488421e-09 -1.2340483311e-08 -6.5561356385e-07 -1.9470667302e-07 
-3.9698063845e-09 4.0529482433e-07 -2.1514490525e-07 -1.2479223109e-07 -5.7312213073e-08 3.0203296373e-07 -1.8537580204e-08 1.039700614e-07 1.0330621878e-08 
-4.7491208024e-07 6.0687251094e-08 -4.151246629e-07 5.9320575862e-08 -1.1741201814e-08 1.5642122512e-07 5.2454925108e-08 4.3482504676e-07 2.709195484e-07 
-5.7873016959e-08 1.6536739172e-07 1.7799962395e-07 4.912726676e-08 3.4989686232e-08 -1.0077879478e-07 -1.4530884752e-07 -1.6725333832e-10 5.2687139227e-08 
-8.5232813539e-08 1.0139553698e-07 1.5944153392e-07 -5.0444181814e-08 -1.1966529033e-07 1.1967840076e-07 -1.8652345116e-07 1.7844107109e-08 2.8370134662e-07 
4.7834417799e-08 -5.0997836428e-07 1.53471392e-07 -4.4389909369e-07 -2.8123612328e-07 1.995372706e-07 -3.2127961669e-07 1.9230959261e-07 2.908169114e-07 
6.3842436893e-08 6.8259981279e-08 -1.9163736258e-07 -1.1724659918e-07 2.2257589536e-07 2.9543403034e-07 3.9128856017e-08 -3.8604118214e-08 -8.1787648275e-09 
1.069069804e-06 -6.8019219242e-07 1.5501419096e-06 -2.5497235217e-07 -9.7903881195e-08 2.1413981471e-07 1.8278950721e-07 8.6584569515e-08 1.7218079389e-07 
6.0509788254e-08 -2.0165341788e-07 1.5065560022e-07 7.3078607419e-08 -9.4906485227e-08 1.2677237724e-08 -3.1952897828e-07 9.1326549358e-08 -4.0342110038e-08 
1.4537325485e-07 2.4911492353e-08 1.2094245261e-07 4.6799590256e-08 3.5395758066e-08 -9.8228011063e-08 1.497770734e-07 2.2000687827e-07 -2.0743955969e-07 
2.1217562347e-07 -6.7996641761e-09 -2.506863842e-07 -2.2291504415e-08 6.318828538e-09 8.6855198893e-08 -2.0364155471e-07 -6.8194506813e-08 8.7653297844e-08 
-2.6389240871e-08 -1.307559524e-07 -1.8295018421e-07 -1.1183639725e-07 1.4335497052e-07 2.5856658885e-07 -4.2850655269e-07 8.8520001343e-08 -8.3697018892e-07 
-1.1833375395e-07 -2.6534738286e-07 -1.4737506319e-07 
f 3 70 double
-9.1301706164e-05 7.1241823553e-05 0.00010784076926 0.00031333421408 0.00024952338678 0.00030169859788 8.6981790254e-05 -0.00012692023869 -0.00035799460233 
-9.1767533383e-05 4.907160689e-05 0.00038933057082 -0.00051305609136 -3.1827727398e-05 0.00010474893459 0.00013362987248 0.00018940648307 -7.3918553204e-05 
-0.00012990233018 4.8764020511e-05 0.00016056408414 6.2330002436e-05 -0.00014734406671 -0.00029508087954 -0.00025953058131 0.00010038107428 -0.00074210258758 
0.00049345230141 -6.5543430867e-08 0.00012108501584 1.3574080226e-05 0.00024634836409 -3.6764613859e-05 -9.6417749962e-05 -0.00025413806082 -0.00041904215669 
-1.8209563414e-05 9.3069861502e-05 -5.642376188e-05 -0.00015196412176 0.00034015413513 -0.00026252815999 -2.1732255247e-05 -0.00023485148837 8.1540020367e-05 
0.00022216013512 0.00013756743152 -0.00010697417161 0.00032868353238 -0.00067313148097 0.00038251392358 0.00061497902134 4.9250377647e-05 -0.00010746635767 
-0.00015042678868 -0.00039600867669 -0.00041394715026 2.8454159943e-05 -5.7418763823e-05 -5.2978120027e-05 -0.00010923756007 -2.4348713309e-05 0.0001676953623 
-1.5915347571e-05 0.00037310428827 -0.00025248593776 0.00017073160243 -4.0562450595e-05 -0.00019802073575 -4.7667220358e-05 -1.3978204283e-06 -0.00013853544316 
-7.5108139469e-05 -0.00022591072292 2.0469501163e-05 -0.00012984653561 -0.00026317638371 0.00017919450866 -1.2678015915e-05 -0.00013790712418 1.9238918243e-07 
-1.699691559e-05 4.7229678709e-05 -7.3865074874e-05 -7.0179370361e-05 1.1637359957e-05 -8.4819898359e-05 0.00029017051546 -0.00013417356405 -1.8697048509e-05 
-0.00011850343407 -9.2133598511e-05 -6.8648035162e-06 -0.00029532254294 -0.00020050044174 -0.00047158731245 -8.7313583151e-05 8.9463415631e-05 0.00020076329773 
-0.00031686824306 7.0861195408e-05 8.4678386418e-05 -2.2412233296e-05 -1.4022499537e-05 5.8927222622e-05 -3.3940926028e-05 7.3771900356e-05 1.371604644e-05 
-0.00030884501818 -6.3197920548e-05 -2.6565554923e-05 0.00016360158537 0.00023450412962 0.00018593764204 -3.5486275819e-05 -5.936704369e-06 -0.00013073587345 
-3.2393262641e-05 -0.0001421515541 1.7734224771e-05 3.7462113402e-05 2.7197549364e-06 -3.3262200565e-06 -5.6845111096e-06 -2.8984570882e-05 1.3768095476e-05 
0.00016001159503 3.1102364306e-05 -8.1963969781e-05 -1.076771676e-05 -1.8933382439e-05 -3.537179048e-05 7.3669292804e-06 8.1985604866e-05 3.8754384698e-05 
-5.8022679979e-05 5.2400104668e-05 2.3258296232e-05 1.6534064332e-05 2.4932775827e-05 -4.6672976532e-05 8.0787734152e-06 1.153330749e-06 2.7237110571e-05 
-2.631471513e-05 -7.0438653783e-05 -4.9926101102e-05 6.5569542947e-05 4.1196785171e-06 -2.7782618206e-05 1.481180711e-05 5.606300882e-05 -5.6593781761e-05 
7.845476949e-06 2.284990735e-05 6.216140267e-06 -8.9434480797e-05 4.3561871525e-05 -3.0601530908e-05 -4.1306814058e-05 0.00010219626292 -2.0223163666e-05 
-2.0243539502e-05 -1.7895960315e-05 0.00016815713254 -2.1066598665e-06 -5.6581547963e-07 8.6582826207e-05 1.558404002e-05 2.0861863905e-05 -1.273469395e-06 
3.0702167585e-05 1.5369059378e-08 3.598128075e-06 -6.6419342954e-06 -3.0881288783e-05 -4.3906242181e-06 4.6347781724e-05 -1.0244606192e-05 -8.1433288398e-06 
-5.8130424422e-06 -1.811915495e-05 7.423740368e-05 -2.1359439265e-05 4.6526119645e-06 1.6970890523e-05 -6.3308321888e-05 -9.0918159191e-05 -1.9298019211e-06 
-5.4107964765e-05 1.1765410987e-05 2.682118804e-05 5.6677959434e-06 8.3616734511e-06 1.9708229626e-05 2.5327587516e-05 -2.5116626646e-05 8.2498199071e-06 
-3.4007470019e-05 -4.8058501392e-05 -9.6579445826e-06 -8.005990984e-05 -1.4608202429e-05 -2.1543473504e-05 -7.9720170509e-05 -1.4908356248e-05 -1.4041241844e-05 
2.4495025714e-05 -1.5899502609e-06 1.4498091409e-05 
radius 1 70 double
0.005 0.005 0.005 0.005 0.005 0.005 0.005 0.005 0.005 
0.005 0.005 0.005 0.005 0.005 0.005 0.005 0.005 0.005 
0.005 0.005 0.005 0.005 0.005 0.005 0.005 0.005 0.005 
0.005 0.005 0.005 0.005 0.005 0.005 0.005 0.005 0.005 
0.005 0.005 0.005 0.005 0.005 0.005 0.005 0.005 0.005 
0.005 0.005 0.005 0.005 0.005 0.005 0.005 0.005 0.005 
0.005 0.005 0.005 0.005 0.005 0.005 0.005 0.005 0.005 
0.005 0.005 0.005 0.005 0.005 0.005 0.005 
omega 3 70 double
-3.2314865725e-05 2.4464519438e-05 -9.9004203191e-05 9.3625637714e-07 3.7705742311e-06 6.5286725128e-05 5.4739036288e-05 -2.729477528e-05 -1.9194033992e-05 
-3.6167890772e-05 -0.00053485353172 -0.00022591566552 7.5345064104e-05 0.00017073559729 5.6538221577e-05 1.828152165e-06 3.5514620745e-05 4.1971453131e-05 
4.3942289313e-05 4.6832307128e-05 -4.8624028639e-05 -3.5172596884e-05 0.00021017112485 -6.0107152867e-05 3.5799513407e-05 0.00043556864796 0.00081836457372 
0.0001291262189 -2.7553613675e-05 0.00035218816583 -3.4403078182e-05 2.2435242742e-05 -3.4715692752e-05 0.00024010109862 0.00028577255027 -0.00016246641972 
0.00043670071434 -0.0003880941903 -0.0003303814828 0.00080209550727 -0.00033445451222 -0.00047588937971 -0.00024149936519 -0.00061841858492 -8.4879985705e-05 
-1.5918554928e-05 -4.0690936121e-05 -1.9119620072e-05 -2.0758413897e-06 0.00077708518226 8.8175444906e-05 9.9089085215e-05 0.00031784856434 0.00011508981107 
0.00012110060592 -0.00030389331604 0.00020375650564 5.06874057e-05 -9.2341980786e-05 2.0410173652e-05 2.7603718509e-05 -0.00013926647758 0.00030092632797 
5.8432546327e-05 -9.0456355064e-06 -6.2611201952e-05 -0.00019304840504 -0.0001060879853 -6.527873821e-05 8.4775651719e-05 4.2466162991e-05 0.00010246716556 
-3.3829695176e-05 1.9098328264e-05 -3.4253156989e-05 9.9897590251e-05 9.7794902837e-05 -8.6509043553e-05 5.5822979001e-05 2.5645827944e-05 -8.3943019725e-05 
-3.7956767182e-05 1.8511257546e-05 3.0692354286e-05 3.5629797442e-05 2.7962967238e-05 2.3092341985e-05 6.8382077668e-05 0.00018484595496 -6.8944595227e-05 
-1.7129953184e-05 -3.6118808515e-05 5.1950811654e-05 7.5852324248e-05 -5.5801263152e-05 1.703241517e-05 -0.00021655539496 -9.7477552476e-05 1.147298657e-06 
-0.00029621425099 -0.00027749130786 -9.706239381e-06 -6.5175259607e-05 6.5956911686e-05 -2.2549310899e-05 7.3974322491e-06 -5.3742799521e-05 3.611979967e-05 
-8.3434831543e-05 5.2773318823e-06 2.716320564e-05 -4.332448079e-05 1.5468092477e-05 3.0316841321e-05 1.8255449586e-05 1.516527047e-05 1.080573175e-06 
7.6959529633e-05 -4.8766225649e-05 1.4368972852e-05 3.0114723194e-05 -4.8260729701e-05 1.003545964e-05 0.00018593081238 0.00012155802501 1.8173522124e-05 
3.5148218582e-06 -4.6301340932e-05 -6.5382090142e-05 -8.3002717081e-07 2.144755988e-05 -3.4961517505e-05 7.0810656731e-06 0.00010998815161 6.8023000187e-05 
9.1818140099e-05 3.1377359869e-05 2.6691667792e-05 3.5867595714e-06 5.0409118851e-06 -8.6165677665e-06 2.4975046304e-05 0.0001237196392 6.416498435e-05 
-6.3352180187e-05 0.00011274150851 0.00014255999278 8.1200108563e-05 -4.8974481059e-05 -0.00024468053665 -2.4133761952e-06 0.00018264322506 -6.261513271e-05 
2.2781795281e-05 -9.9817372949e-06 9.6569719485e-06 9.5004562903e-05 -7.7688064632e-05 -1.1913112426e-05 -5.6546580064e-05 -2.0351210126e-05 5.1617944776e-05 
0.00014401623523 0.00010274251515 2.7420186972e-05 -2.2147491268e-05 -2.8350477196e-05 5.0593042994e-05 -5.0517440783e-05 -1.5474597792e-05 -2.2262975102e-05 
-2.1238520484e-05 -2.6116607838e-06 1.1436073493e-05 2.9747792786e-05 -2.9595610079e-05 7.5282430328e-06 -3.4422751022e-05 0.0001672964123 -9.7111953255e-05 
-1.873389675e-05 1.2141372627e-05 -1.1213906416e-05 -2.2446374908e-05 -2.5807485479e-05 3.006638864e-05 0.00013283874966 -8.3047732569e-05 -0.00012283859222 
-3.2379682486e-05 -1.5318844802e-05 -3.2908188644e-05 -3.4202468252e-05 -1.4605100802e-05 -3.1635696816e-05 -0.0001094717434 0.00012839549143 -3.8884319861e-05 
-1.7094289664e-05 5.5394791397e-05 2.5896745786e-05 -1.7888455197e-05 -5.152367905e-05 -3.6275437825e-05 -3.4155427114e-05 -6.3830762498e-05 -6.9510995423e-05 
1.0448734363e-05 -3.7248344642e-05 -4.9589010992e-07 
