# vtk DataFile Version 4.2
Generated by LIGGGHTS
ASCII
DATASET POLYDATA
POINTS 1 float
-0.06091 0.0565104 0.953113 
VERTICES 1 2
1 0 

POINT_DATA 1
FIELD FieldData 7
id 1 1 int
5294 
type 1 1 int
2 
i 3 1 int
0 0 0 
v 3 1 double
-0.4040466758 0.54392374766 4.0770257206 
f 3 1 double
0 0 -0.045714885499 
radius 1 1 double
0.005 
omega 3 1 double
74.209503829 118.14634671 -83.11190081 
