# vtk DataFile Version 4.2
Generated by LIGGGHTS
ASCII
DATASET POLYDATA
POINTS 13 float
0.0131844 -0.0266834 0.259842 -0.00978926 -0.0139704 0.265042 0.0267886 -0.00818117 0.284001 
0.020189 0.0115805 0.318793 0.0181354 0.00956912 0.343653 -0.0218548 0.0193173 0.391584 
-0.0165883 0.0195448 0.401091 -0.0163099 0.00392129 0.462142 0.0121948 -0.0370973 0.560472 
0.0159352 -0.0410875 0.569971 -0.0165106 0.0615642 0.597916 0.00072937 -0.0143909 0.700731 
-0.0114859 0.0281227 0.742788 
VERTICES 13 26
1 0 
1 1 
1 2 
1 3 
1 4 
1 5 
1 6 
1 7 
1 8 
1 9 
1 10 
1 11 
1 12 

POINT_DATA 13
FIELD FieldData 7
id 1 13 int
1721 1751 1577 1409 1435 1343 1136 878 721 
895 919 823 460 
type 1 13 int
2 2 2 2 2 2 2 2 2 
2 2 2 2 
i 3 13 int
0 0 0 0 0 0 0 0 0 
0 0 0 0 0 0 0 0 0 
0 0 0 0 0 0 0 0 0 
0 0 0 0 0 0 0 0 0 
0 0 0 
v 3 13 double
-0.011571352906 -0.27926474436 0.078048545671 0.050190422435 -0.053729030721 0.19712547448 0.07471333352 -0.33747665482 1.1422006805 
-0.10998650853 -0.50149210446 2.7387045385 1.1751868808 -0.83590895696 5.1419851861 -1.2889020136 0.41949137432 5.4260022879 
-1.6231626208 0.94236828139 6.9676194536 0.88434504681 0.59421439394 5.17196947 -0.022915945069 -1.1546411917 4.9237226604 
0.63916626402 -0.74914438508 4.6894024334 0.063723749541 1.0057195783 4.3141680456 -0.23854683137 0.082778640124 6.3075140785 
-0.35129742163 0.7794377354 4.4340772875 
f 3 13 double
0 0 -0.045714885499 0 0 -0.045714885499 0 0 -0.045714885499 
0 0 -0.045714885499 0 0 -0.045714885499 0 0 -0.045714885499 
0 0 -0.045714885499 0 0 -0.045714885499 0 0 -0.045714885499 
0 0 -0.045714885499 0 0 -0.045714885499 0 0 -0.045714885499 
0 0 -0.045714885499 
radius 1 13 double
0.005 0.005 0.005 0.005 0.005 0.005 0.005 0.005 0.005 
0.005 0.005 0.005 0.005 
omega 3 13 double
14.097764157 19.726860359 4.4577349318 9.540627657 -3.2871399411 -1.4339908622 -46.21298175 118.3282224 -128.20742209 
-81.773963233 -1.1865157098 151.64613797 -178.88142164 -84.748669711 132.44417185 -188.29461218 -113.31660555 -266.46282763 
-98.813431354 -190.59779061 -239.72386822 -83.508863468 -124.52930897 -14.827051525 -70.833354018 -90.39534593 154.01836914 
-23.187671873 -179.72907512 184.42216003 -235.17048101 -138.9128085 252.91441297 -104.06127577 240.72407173 261.23735772 
117.97541223 -284.74281484 17.16559805 
