# vtk DataFile Version 4.2
Generated by LIGGGHTS
ASCII
DATASET POLYDATA
POINTS 70 float
0.0114581 -0.0368894 0.00699838 -0.0237986 -0.0238458 0.00699828 -0.00516478 -0.0202765 0.00953845 
0.0278628 -0.0211398 0.0135785 0.0230261 -0.0153722 0.00699752 -0.0253441 -0.00911908 0.0113724 
-0.0187622 -0.00161635 0.0107676 -0.00540934 -0.000824611 0.0069993 0.0045111 -0.00742059 0.00934088 
0.0159819 -0.000463851 0.0109253 0.0119743 0.00781084 0.0069976 0.0247776 0.00517861 0.00975104 
-0.0327818 0.0126216 0.00699878 -0.0248283 0.0178785 0.0100133 -0.000589488 0.0181855 0.0102347 
0.00562292 0.011265 0.0139045 -0.0125072 0.0218876 0.00749382 0.00288389 0.0293428 0.00699795 
0.0229398 0.0220761 0.0070533 -0.000836414 -0.0222524 0.0217332 0.0205449 -0.00875754 0.0144138 
-0.00820969 0.00387825 0.0164056 -0.0114136 0.0133337 0.0169576 0.0101142 0.0160929 0.0215669 
0.0225476 0.010684 0.0232497 0.0057422 0.0299437 0.0204631 -0.0141535 -0.0327213 0.0297117 
-0.000932095 -0.0397253 0.0283781 -0.00426073 -0.0305304 0.0304676 -0.0203286 -0.0203268 0.0274441 
-0.00721645 -0.018164 0.0282577 0.00504079 -0.0176016 0.0283518 0.019833 -0.0173874 0.0279802 
0.0294059 -0.0112395 0.0311967 -0.00674141 -0.00769605 0.0261014 0.0291985 -0.00143261 0.0292522 
-0.0127277 0.00477301 0.0347275 -0.00474817 0.00179301 0.0286245 0.0109787 0.0038892 0.0330456 
-0.012138 0.0145033 0.032501 0.0040476 0.0289293 0.0322747 0.0115002 0.0244725 0.0273158 
0.0295522 0.021592 0.0316808 0.00282281 -0.0325029 0.0374722 -0.0125618 -0.0252659 0.0410811 
0.0107596 -0.0251496 0.041906 -0.0216844 -0.0136966 0.0449292 0.00295226 -0.0199709 0.0378388 
0.0380504 -0.0114132 0.036744 -0.0161152 -0.00371844 0.0393055 -0.000240087 -0.00253142 0.0366106 
0.0163072 -0.00078957 0.0443757 0.0206867 -0.00931641 0.0414084 -0.0315248 0.00143338 0.0398353 
-0.0193531 0.0218709 0.0395089 -0.006833 0.0267618 0.0404402 0.0116872 0.0258019 0.0379173 
-0.0090512 -0.0234547 0.0502674 0.020305 -0.0299045 0.0510236 -0.033638 -0.0136575 0.0531292 
0.0289081 -0.0133596 0.0475458 -0.0282449 -0.001882 0.0510298 -0.00557575 -0.00708143 0.0460092 
-0.0208779 0.00686567 0.0466713 -0.0126155 0.00283972 0.0506102 -0.0020702 0.00309101 0.0460998 
0.00615957 0.000137387 0.051779 0.0273787 0.00968743 0.0508261 -0.00966207 0.0205185 0.0524101 
4.56628e-05 0.0204071 0.0471149 
VERTICES 70 140
1 0 
1 1 
1 2 
1 3 
1 4 
1 5 
1 6 
1 7 
1 8 
1 9 
1 10 
1 11 
1 12 
1 13 
1 14 
1 15 
1 16 
1 17 
1 18 
1 19 
1 20 
1 21 
1 22 
1 23 
1 24 
1 25 
1 26 
1 27 
1 28 
1 29 
1 30 
1 31 
1 32 
1 33 
1 34 
1 35 
1 36 
1 37 
1 38 
1 39 
1 40 
1 41 
1 42 
1 43 
1 44 
1 45 
1 46 
1 47 
1 48 
1 49 
1 50 
1 51 
1 52 
1 53 
1 54 
1 55 
1 56 
1 57 
1 58 
1 59 
1 60 
1 61 
1 62 
1 63 
1 64 
1 65 
1 66 
1 67 
1 68 
1 69 

POINT_DATA 70
FIELD FieldData 7
id 1 70 int
44 732 1464 837 912 1986 1606 936 895 
1371 663 720 467 208 1438 1782 385 1157 
595 2267 398 2166 1751 2117 2149 1929 2782 
2509 2454 2873 2996 2710 2790 3102 2640 2566 
3057 2252 3510 3206 3209 3228 3475 3932 4179 
4006 4181 3841 3364 4052 3265 4362 4280 3857 
3770 3909 3724 5377 4989 4708 4482 5353 5397 
4796 5509 5103 5420 5050 5402 4610 
type 1 70 int
2 2 2 2 2 2 2 2 2 
2 2 2 2 2 2 2 2 2 
2 2 2 2 2 2 2 2 2 
2 2 2 2 2 2 2 2 2 
2 2 2 2 2 2 2 2 2 
2 2 2 2 2 2 2 2 2 
2 2 2 2 2 2 2 2 2 
2 2 2 2 2 2 2 
i 3 70 int
0 0 0 0 0 0 0 0 0 
0 0 0 0 0 0 0 0 0 
0 0 0 0 0 0 0 0 0 
0 0 0 0 0 0 0 0 0 
0 0 0 0 0 0 0 0 0 
0 0 0 0 0 0 0 0 0 
0 0 0 0 0 0 0 0 0 
0 0 0 0 0 0 0 0 0 
0 0 0 0 0 0 0 0 0 
0 0 0 0 0 0 0 0 0 
0 0 0 0 0 0 0 0 0 
0 0 0 0 0 0 0 0 0 
0 0 0 0 0 0 0 0 0 
0 0 0 0 0 0 0 0 0 
0 0 0 0 0 0 0 0 0 
0 0 0 0 0 0 0 0 0 
0 0 0 0 0 0 0 0 0 
0 0 0 0 0 0 0 0 0 
0 0 0 0 0 0 0 0 0 
0 0 0 0 0 0 0 0 0 
0 0 0 0 0 0 0 0 0 
0 0 0 0 0 0 0 0 0 
0 0 0 0 0 0 0 0 0 
0 0 0 
v 3 70 double
-7.2481978563e-08 -1.3657587818e-07 -5.4719424287e-08 -2.4924888315e-08 2.7849960287e-08 -1.4941985101e-08 -1.1679186835e-07 -2.0046828445e-07 7.4247795041e-08 
-1.2005980468e-07 -3.5831337792e-08 -9.5360082979e-07 -1.1802969916e-07 -2.1403011723e-07 4.5623649533e-08 2.4374738264e-07 1.1880254337e-07 -1.2552147526e-08 
2.1818468063e-08 2.1929292359e-09 -9.9174185401e-08 -4.0515560981e-07 -8.9819839736e-08 -4.1476985618e-08 4.9444732759e-07 1.1884008757e-06 -1.6561185987e-06 
8.547617054e-07 1.5718907375e-08 -1.1138448841e-07 -2.5366271596e-07 1.2582161409e-07 1.2145425473e-07 3.2496589785e-07 -1.1307726358e-07 8.0381297596e-07 
-3.2648891064e-07 -1.0454131128e-06 7.2400179322e-07 -8.6108517621e-07 -5.6609115575e-07 -1.2951310842e-06 5.4979156174e-07 1.4470089622e-07 5.2871008829e-07 
-2.7359647016e-07 -1.9209305043e-09 -1.4753431196e-07 -6.1563113456e-07 8.726949402e-07 2.3842166318e-07 5.1318153709e-07 4.1672633285e-07 -1.9180307526e-08 
3.136824558e-08 5.269250741e-07 7.3426411634e-07 1.2470792709e-08 1.3027855442e-07 9.1831282649e-08 -8.9237707415e-07 -1.463940128e-06 4.3383946537e-07 
2.8030158226e-09 7.3297973518e-10 -5.9542354995e-08 1.0146721985e-07 -7.4318390154e-07 -1.7908986285e-09 -5.0094223656e-07 -1.0473507589e-07 1.1356072902e-07 
-6.9619379541e-08 -1.4302553072e-08 -1.0266595094e-07 -1.1091865626e-07 6.4480954914e-08 2.0148017991e-07 -1.2782502249e-07 -2.0161451196e-08 6.8624848225e-08 
-8.0462320285e-08 1.8430824252e-08 -6.5268425178e-08 -1.2928845733e-07 -2.4062777002e-08 4.6942088471e-08 4.2093463819e-07 -1.0338006583e-07 -1.4627398926e-08 
-4.3733017518e-09 3.4070962129e-09 1.1168380555e-07 6.124260795e-07 8.8762149511e-08 1.1991772895e-06 -5.028052587e-07 4.9155271306e-07 1.5896346973e-07 
6.259106246e-07 -3.8803732268e-07 6.2607334007e-07 -4.4758446387e-08 1.7706164412e-07 -1.847067746e-07 -1.5314711074e-07 7.4741856476e-08 1.6274691148e-07 
3.2827567159e-08 2.1567037401e-07 3.1272398017e-07 -8.9951322582e-08 -1.1266838323e-07 5.1353786699e-08 1.9193339032e-07 -2.467678188e-08 -2.4786308518e-08 
4.229348838e-07 -7.3596740687e-08 -1.35951009e-07 1.126548074e-09 -1.7185331988e-07 4.6763212031e-08 1.3394212469e-07 -1.5021634101e-07 2.5296333881e-07 
-8.7979389383e-08 2.3483819659e-07 -3.1805751163e-07 -7.536295877e-08 -2.2594707378e-08 1.1281272837e-07 -3.804388143e-08 -7.62514056e-08 4.7638607841e-08 
-1.4253625551e-07 1.33130863e-07 -1.0767272463e-07 -4.5803344105e-08 4.6108568983e-08 -1.6779938267e-07 4.9332575131e-08 -2.4185549012e-08 4.0096739665e-08 
-8.4517824816e-08 1.0266353846e-07 -1.7911576492e-07 -4.4911154353e-07 -4.7658005887e-07 9.3755426251e-08 1.1948763942e-07 3.0457575405e-07 -3.2710906754e-07 
6.4263901959e-08 1.1953210034e-07 1.1658783204e-08 3.7489928179e-08 1.0299535543e-07 -4.4868070711e-07 6.0879332934e-08 -1.8290869386e-08 1.2517794415e-07 
-4.9802189914e-07 4.0911047796e-07 -1.1931462336e-06 6.8401292307e-08 2.4613932088e-07 -9.6751064851e-08 -3.4993295448e-08 -2.2237754629e-07 -1.7618700473e-07 
-2.9841395225e-08 1.827873892e-08 -5.2803758932e-08 1.2426131676e-08 -6.9964221331e-08 -3.5994256364e-08 -5.3379857394e-07 -5.6374623204e-08 1.7134643803e-07 
6.6032494664e-08 2.640123659e-08 -1.2354505957e-07 -3.2472995755e-09 -2.1739712356e-07 -7.3473459117e-08 2.5979177215e-07 1.5858415629e-07 -3.8213971414e-07 
-2.1266617281e-07 4.0478545977e-07 -2.1686407078e-08 -4.4157426048e-08 -2.0999637842e-07 -5.0864088887e-09 -1.438931948e-07 -5.7234213324e-08 1.2993903106e-07 
1.4892348046e-08 6.7630960667e-08 -7.109845461e-08 -1.1501632189e-07 -1.7925444775e-09 1.9909608502e-08 -1.4336005634e-07 -5.4467525729e-08 4.1477919307e-07 
-9.1474603408e-08 3.8315622604e-08 3.5442428532e-07 
f 3 70 double
-5.4998002065e-05 1.965967636e-05 0.00011023892118 0.00030909587611 0.00031569775848 0.00024893176273 7.5134019789e-05 -9.3984985344e-05 -0.00031976021272 
-0.00032115742288 5.4449480855e-05 3.9263284684e-05 1.4524169908e-05 -2.8611068225e-06 0.00019573335387 0.00014449410647 9.191302686e-05 -6.374891017e-05 
-0.00015238193949 4.822252029e-05 0.0001840242241 7.1562128765e-05 -0.00019821034274 -0.00046011230219 -0.00028907321196 -0.00024219329317 -0.00084897390462 
0.00026587032706 -1.1867621412e-05 4.3095072123e-05 -8.5194099499e-06 0.00025714926334 -1.6750542092e-05 -7.542588411e-05 -0.00025440303381 -0.00026921467747 
-1.8016659072e-05 2.4345440562e-05 2.4171831049e-05 -0.00016974336793 0.00032762412224 -0.00029877848973 -0.00066171869398 -3.6785377591e-06 -4.2376700018e-05 
0.00016333351648 4.3332885073e-05 -0.00017027807798 0.00028747331584 -0.00057081520725 0.00048043999045 -0.0002141798146 0.00029009124119 -2.5197102095e-05 
-0.00018124203745 -0.00026020558471 -0.0003205691055 -2.9284801789e-06 -0.00010978277895 -7.7811161792e-05 -9.6664688809e-05 -0.00022701621632 0.00012678794083 
-5.0006592618e-06 0.00033765757696 -0.00026906182744 0.00022727136969 -0.00014196997827 -0.00022558823387 -0.00013356387015 -8.8108678397e-07 -8.5313399927e-05 
-6.4297010351e-05 -0.00020353196946 2.6112061963e-05 -0.00012292593959 -0.00027715004932 9.3700593209e-05 7.1834298904e-05 -7.6654961186e-05 7.4236804479e-05 
-2.3548818571e-05 1.695746183e-05 -7.1423034319e-05 -6.3412143612e-05 2.323741694e-05 -8.9578105066e-05 0.00010154270319 -7.420356381e-05 8.826691677e-05 
-0.00011645571577 -9.8417717362e-05 6.8942277225e-06 -4.1217791628e-05 1.7369579793e-05 -8.7420044786e-05 -0.00012212209054 0.00012091864257 0.00014828570049 
-0.00038253347683 0.00016030564288 0.00010246096432 -2.5027003212e-05 8.6572586553e-06 2.7158481361e-05 1.3026120654e-06 5.6249176912e-05 7.6561134554e-06 
-0.00029997993157 -4.5702061525e-05 -7.734878001e-06 0.00013685737456 0.00019250773416 0.00017147566179 -2.0463407592e-05 1.1789458631e-05 -0.00011901133007 
-4.5391427564e-05 -0.00014270011589 -5.983375989e-06 1.9480891619e-05 1.6118164227e-05 2.1057780607e-06 -1.4898450802e-05 9.7108724457e-05 -3.8122397715e-05 
0.00016397956516 3.9773319145e-07 -8.6810622167e-05 -6.4878310803e-07 2.2871910185e-05 -2.856207534e-05 -8.0443248948e-05 -2.9257143405e-05 -6.1981164154e-05 
-2.3892557424e-05 3.6454467982e-05 -4.6164511742e-05 5.6136845817e-05 2.0733358677e-05 -3.313901801e-05 8.1114333344e-08 -5.4683818086e-06 1.1960625649e-05 
-1.3091647681e-05 -6.7820985248e-05 -2.9050477012e-05 2.6422827659e-05 -9.8391834662e-05 5.5154753021e-05 1.9917796172e-05 5.8739650472e-06 -9.2464049622e-06 
3.2096406275e-06 6.9398561101e-06 5.5136893549e-06 -9.4348804287e-05 2.8988477805e-05 1.0900766689e-05 -3.9528241946e-05 0.00010698276059 -4.2280452714e-05 
-5.4763328253e-05 1.3498386227e-05 0.00019572976538 -8.248395588e-05 4.1400597187e-05 9.7983751761e-05 -3.2995535939e-05 3.6038611068e-05 -1.5974435235e-05 
2.0142265219e-05 2.9621320021e-06 2.8189677616e-06 -2.0929256891e-05 -4.0212769754e-05 1.5898224865e-06 -8.8373713927e-05 -3.0708694159e-05 -8.7720285213e-06 
-3.999547493e-06 -1.397422855e-05 7.5958397354e-05 -8.5891150092e-06 -4.1785307711e-05 1.0142759791e-05 -1.5195869314e-05 -2.4726062052e-05 -6.1845922133e-05 
-4.8208167175e-05 6.2004420502e-05 2.0767158575e-05 -1.6321898631e-06 3.8178211059e-06 1.8242630061e-05 1.0663374376e-05 -2.423618563e-05 2.7100577649e-05 
-3.7229147469e-05 -4.7808343872e-05 -9.2068797589e-06 -6.6621884067e-05 -6.6257385287e-06 -2.2803663057e-05 3.5222817209e-05 -1.2094136082e-05 -2.0412927061e-05 
1.7753865148e-05 -1.5099139905e-05 -6.2718052908e-06 
radius 1 70 double
0.005 0.005 0.005 0.005 0.005 0.005 0.005 0.005 0.005 
0.005 0.005 0.005 0.005 0.005 0.005 0.005 0.005 0.005 
0.005 0.005 0.005 0.005 0.005 0.005 0.005 0.005 0.005 
0.005 0.005 0.005 0.005 0.005 0.005 0.005 0.005 0.005 
0.005 0.005 0.005 0.005 0.005 0.005 0.005 0.005 0.005 
0.005 0.005 0.005 0.005 0.005 0.005 0.005 0.005 0.005 
0.005 0.005 0.005 0.005 0.005 0.005 0.005 0.005 0.005 
0.005 0.005 0.005 0.005 0.005 0.005 0.005 
omega 3 70 double
-1.5974483693e-07 2.8281773565e-05 1.2604230371e-05 -3.2739031311e-05 8.6063492778e-06 -2.1002100769e-05 8.7585858272e-05 -6.3446566919e-05 -2.1138497726e-06 
9.8209312979e-05 0.0001125027382 2.9715465329e-05 -5.281007489e-05 -0.00031583776943 -0.00025895974397 1.0388361278e-05 1.0454536318e-05 2.2019778407e-05 
-3.3279650128e-06 -2.4083568782e-05 -5.6697776057e-07 0.00011116710519 -8.0289157026e-05 0.00018511658259 -0.00033845336314 0.00070085778893 0.00027154959232 
-1.9223251221e-05 0.00024007014484 0.00033728927669 -1.600273348e-05 6.5100292098e-05 0.00011180867388 -0.00038661982265 1.0379093283e-05 0.00020460028456 
-9.1036128039e-06 3.4673491527e-05 -7.1812869104e-05 -0.00010084296837 -0.00018733732306 -0.00031513521929 -0.00040822899625 -0.00049751008365 -0.00030928405931 
-7.6165763987e-05 4.9225855049e-05 -4.4159748115e-05 -1.7537714698e-05 0.00072488566621 1.0956937965e-05 -8.291556558e-05 -0.00026158352159 0.00021360358159 
0.00064934301753 -0.00020516090372 0.00032150145794 5.5661983824e-05 -0.0001440745174 4.8431039458e-05 -0.00024589464388 0.00046714623659 4.2862996822e-05 
0.00018109277693 8.289856977e-05 -8.85769745e-05 -0.00030004730013 -0.00023787375141 -0.00027418098514 0.00010764190343 0.00015418866335 6.4258602084e-05 
-1.1033323692e-05 -3.3954944503e-05 -5.1608620381e-05 -3.5293126871e-05 -7.3141745962e-05 0.00019806639143 1.0148534852e-05 1.5864181281e-05 -5.8091092382e-05 
-3.5115618474e-05 2.4666453211e-05 1.1152635126e-05 5.1670934993e-06 1.3948783382e-07 -1.1541141928e-05 2.6370937254e-05 -5.6504999341e-05 -0.00014483986526 
7.6660691575e-06 7.9849875584e-06 9.2996455027e-07 0.00012932004241 -0.00059242988521 0.00014825942148 6.4242674941e-05 0.00025011241406 -9.7526043438e-05 
-6.8200736499e-05 0.00011834009404 -1.2739849343e-06 -9.0683819393e-06 3.366900429e-05 -1.5367643215e-05 -1.1996790199e-06 -3.4362571135e-05 -4.475049687e-05 
-8.2545287024e-05 -2.9868669401e-05 -5.9152371479e-05 -5.3373551896e-06 -1.2641067938e-05 -6.771328514e-06 1.2614644214e-05 4.5428269953e-05 1.7193671286e-05 
-8.4002174115e-05 -0.00014748281667 -3.5907823373e-05 2.5019318702e-05 -2.2250904606e-05 1.6577524339e-05 -3.4615828179e-05 -5.7228087459e-05 4.0638287124e-05 
5.6639236245e-05 -2.2457383335e-05 -8.0255960538e-05 1.1174669508e-05 -1.6267396971e-05 -2.9395400436e-05 -3.3475465194e-05 -2.0879823365e-05 -3.6934477381e-05 
-1.6605995278e-05 6.8768654481e-05 -2.0920544853e-07 -3.7208625275e-06 -2.8433227735e-05 -1.9553582569e-05 -1.4391085017e-05 -1.0909340329e-05 -6.4447487131e-06 
-0.00010693717203 -3.418066275e-05 8.6679389076e-05 2.8305734315e-05 -0.00012277378856 -0.00012810182345 7.0481565106e-05 8.3443175096e-05 8.6662732787e-07 
-3.7558528198e-06 -4.793839684e-06 3.4804396039e-05 -6.0365465545e-06 8.313960246e-05 -4.8322837516e-05 -7.724129827e-05 -4.6141483628e-05 3.7131996097e-05 
-8.4334172253e-05 -5.8198466258e-05 5.6667711018e-05 7.6571282499e-05 8.8564569473e-05 0.00010625982561 -2.9309557276e-05 3.1075758691e-05 -4.4272767073e-06 
2.1956922928e-05 2.7410654874e-05 -3.2470040236e-05 -1.9877445419e-05 2.4803774409e-05 5.0197848916e-06 -4.7395522553e-05 0.00021472846991 -8.5434077666e-05 
-1.083257021e-05 -4.1232658008e-05 -5.058150584e-05 -4.588905457e-05 -8.0055744167e-05 -2.9704716403e-05 2.4386999091e-06 -0.0001852498068 -1.5216510525e-05 
7.2118688076e-05 0.00010177796445 1.501885887e-05 -2.3770927983e-05 5.9274043209e-06 -4.9470595241e-05 -4.9427861939e-05 5.8984295974e-05 -1.1186399271e-05 
-1.5397893196e-05 9.0487501957e-06 -9.703383056e-07 4.0205620861e-06 -1.6729514928e-05 -6.9605515452e-06 4.7553213825e-05 0.00027251671536 3.4744427089e-06 
1.2118940082e-05 6.2339398392e-05 -1.5353428217e-05 
