# vtk DataFile Version 4.2
Generated by LIGGGHTS
ASCII
DATASET POLYDATA
POINTS 70 float
0.0114581 -0.0368894 0.00699838 -0.0237986 -0.0238458 0.00699827 -0.00516478 -0.0202765 0.00953845 
0.0278628 -0.0211398 0.0135785 0.0230261 -0.0153722 0.00699752 -0.0253441 -0.00911908 0.0113724 
-0.0187622 -0.00161635 0.0107676 -0.00540934 -0.000824611 0.0069993 0.0045111 -0.00742059 0.00934088 
0.0159819 -0.000463851 0.0109253 0.0119743 0.00781084 0.0069976 0.0247776 0.00517861 0.00975104 
-0.0327818 0.0126216 0.00699878 -0.0248283 0.0178785 0.0100133 -0.000589488 0.0181855 0.0102347 
0.00562292 0.011265 0.0139045 -0.0125072 0.0218876 0.00749382 0.00288389 0.0293428 0.00699795 
0.0229398 0.0220761 0.0070533 -0.000836414 -0.0222524 0.0217332 0.0205449 -0.00875754 0.0144138 
-0.00820969 0.00387825 0.0164056 -0.0114136 0.0133337 0.0169576 0.0101142 0.0160929 0.0215669 
0.0225476 0.010684 0.0232497 0.0057422 0.0299437 0.0204631 -0.0141535 -0.0327213 0.0297117 
-0.000932094 -0.0397253 0.0283781 -0.00426073 -0.0305304 0.0304676 -0.0203286 -0.0203268 0.0274441 
-0.00721645 -0.018164 0.0282577 0.00504079 -0.0176016 0.0283518 0.019833 -0.0173874 0.0279802 
0.0294059 -0.0112395 0.0311967 -0.00674141 -0.00769605 0.0261014 0.0291985 -0.00143261 0.0292522 
-0.0127277 0.00477301 0.0347275 -0.00474817 0.00179301 0.0286245 0.0109787 0.0038892 0.0330456 
-0.012138 0.0145033 0.032501 0.0040476 0.0289293 0.0322747 0.0115002 0.0244725 0.0273158 
0.0295522 0.021592 0.0316808 0.00282281 -0.0325029 0.0374722 -0.0125618 -0.0252659 0.0410811 
0.0107596 -0.0251496 0.041906 -0.0216844 -0.0136966 0.0449292 0.00295226 -0.0199709 0.0378388 
0.0380504 -0.0114132 0.036744 -0.0161152 -0.00371844 0.0393055 -0.000240087 -0.00253142 0.0366106 
0.0163072 -0.000789572 0.0443757 0.0206867 -0.00931641 0.0414084 -0.0315248 0.00143338 0.0398353 
-0.0193531 0.0218709 0.0395089 -0.006833 0.0267618 0.0404402 0.0116872 0.0258019 0.0379173 
-0.0090512 -0.0234547 0.0502674 0.020305 -0.0299045 0.0510236 -0.0336379 -0.0136575 0.0531292 
0.0289081 -0.0133596 0.0475458 -0.0282449 -0.001882 0.0510298 -0.00557575 -0.00708143 0.0460092 
-0.0208779 0.00686567 0.0466713 -0.0126155 0.00283972 0.0506102 -0.0020702 0.00309101 0.0460998 
0.00615957 0.000137386 0.051779 0.0273787 0.00968743 0.0508261 -0.00966207 0.0205185 0.0524101 
4.56632e-05 0.0204071 0.0471149 
VERTICES 70 140
1 0 
1 1 
1 2 
1 3 
1 4 
1 5 
1 6 
1 7 
1 8 
1 9 
1 10 
1 11 
1 12 
1 13 
1 14 
1 15 
1 16 
1 17 
1 18 
1 19 
1 20 
1 21 
1 22 
1 23 
1 24 
1 25 
1 26 
1 27 
1 28 
1 29 
1 30 
1 31 
1 32 
1 33 
1 34 
1 35 
1 36 
1 37 
1 38 
1 39 
1 40 
1 41 
1 42 
1 43 
1 44 
1 45 
1 46 
1 47 
1 48 
1 49 
1 50 
1 51 
1 52 
1 53 
1 54 
1 55 
1 56 
1 57 
1 58 
1 59 
1 60 
1 61 
1 62 
1 63 
1 64 
1 65 
1 66 
1 67 
1 68 
1 69 

POINT_DATA 70
FIELD FieldData 7
id 1 70 int
44 732 1464 837 912 1986 1606 936 895 
1371 663 720 467 208 1438 1782 385 1157 
595 2267 398 2166 1751 2117 2149 1929 2782 
2509 2454 2873 2996 2710 2790 3102 2640 2566 
3057 2252 3510 3206 3209 3228 3475 3932 4179 
4006 4181 3841 3364 4052 3265 4362 4280 3857 
3770 3909 3724 5377 4989 4708 4482 5353 5397 
4796 5509 5103 5420 5050 5402 4610 
type 1 70 int
2 2 2 2 2 2 2 2 2 
2 2 2 2 2 2 2 2 2 
2 2 2 2 2 2 2 2 2 
2 2 2 2 2 2 2 2 2 
2 2 2 2 2 2 2 2 2 
2 2 2 2 2 2 2 2 2 
2 2 2 2 2 2 2 2 2 
2 2 2 2 2 2 2 
i 3 70 int
0 0 0 0 0 0 0 0 0 
0 0 0 0 0 0 0 0 0 
0 0 0 0 0 0 0 0 0 
0 0 0 0 0 0 0 0 0 
0 0 0 0 0 0 0 0 0 
0 0 0 0 0 0 0 0 0 
0 0 0 0 0 0 0 0 0 
0 0 0 0 0 0 0 0 0 
0 0 0 0 0 0 0 0 0 
0 0 0 0 0 0 0 0 0 
0 0 0 0 0 0 0 0 0 
0 0 0 0 0 0 0 0 0 
0 0 0 0 0 0 0 0 0 
0 0 0 0 0 0 0 0 0 
0 0 0 0 0 0 0 0 0 
0 0 0 0 0 0 0 0 0 
0 0 0 0 0 0 0 0 0 
0 0 0 0 0 0 0 0 0 
0 0 0 0 0 0 0 0 0 
0 0 0 0 0 0 0 0 0 
0 0 0 0 0 0 0 0 0 
0 0 0 0 0 0 0 0 0 
0 0 0 0 0 0 0 0 0 
0 0 0 
v 3 70 double
3.373912013e-07 7.7714275732e-07 -3.4829900438e-07 4.7656183721e-08 -6.8297975562e-08 1.934788606e-08 8.0789588344e-08 1.8297601877e-07 -7.4251059402e-08 
-4.2121485363e-07 3.2166308668e-07 1.1278127166e-07 2.1175449007e-07 -4.6532614175e-09 -9.8696998421e-08 -3.7383272991e-08 9.6321111849e-08 -7.7515415226e-08 
-2.040267039e-07 -1.0892336951e-07 3.8217179012e-07 -6.5042436713e-08 -1.5504207168e-07 3.7443389468e-08 6.1950957737e-08 -1.2251221114e-07 7.2274815298e-08 
7.050227492e-08 4.0026671974e-08 6.7167426554e-08 -1.1959432184e-07 -2.392668096e-07 3.7157187134e-08 -3.6314072769e-07 2.4940223132e-07 -4.2475741005e-07 
-2.0441874415e-07 -1.6088427462e-07 1.344278235e-07 4.5042914548e-07 -2.3777363435e-07 1.1603493346e-07 1.217767938e-06 -6.1917051974e-07 -1.2977536284e-07 
-3.8036551546e-07 3.6933810978e-07 1.1130329813e-06 -7.7783239426e-08 2.0863739916e-07 -5.8411293675e-07 2.262140996e-08 8.8222628236e-08 2.7460544569e-08 
2.637978575e-07 -7.1925717341e-08 -2.2054062947e-07 -2.4289192084e-07 -3.0473544083e-07 2.1882920543e-08 -2.2534508523e-07 1.7503347458e-07 -3.3223964779e-07 
-2.2760757875e-07 4.2795626719e-07 -1.5832787034e-07 -1.1482136236e-07 8.5649815488e-08 1.9281396134e-07 1.1773372225e-06 2.0447924491e-07 -4.9316169143e-07 
-4.7633900015e-07 2.6644178374e-08 1.6565942842e-07 4.8496566911e-08 -3.3377704089e-07 5.6086598862e-07 4.6631795597e-08 1.6081890927e-07 1.9860181575e-07 
1.7261168696e-07 9.1971145191e-08 -2.1050850446e-08 1.0189713324e-07 2.9372836051e-07 2.1222659038e-07 6.9353243989e-07 9.1855004466e-08 7.7230012244e-07 
-2.0513900159e-07 2.2152691055e-07 9.8843878324e-08 4.0053483357e-08 -5.617076559e-07 -5.8754564713e-07 2.0545140776e-08 -1.2034843155e-07 4.1068163967e-07 
1.5397789111e-07 3.1486439469e-07 6.7617640222e-08 3.2243877211e-07 2.2407618876e-07 -2.9218532073e-07 4.4880153646e-08 4.6393824737e-08 4.3689923588e-08 
-5.5184440616e-07 -6.9638466023e-08 3.7675394411e-07 -7.3898862017e-08 4.9562844102e-07 -1.3814788674e-07 -3.3159750829e-07 -3.8733868798e-09 -1.5876791948e-08 
2.8469107918e-07 -1.198140664e-07 -2.9088045985e-07 1.9885935018e-07 1.164511473e-07 2.3956478185e-07 2.1212136476e-08 -2.8851029003e-07 -4.9315815706e-07 
-2.8931697127e-08 2.0447895764e-07 -1.3084227131e-07 5.0244465911e-07 -2.436892899e-07 6.0712801183e-07 -1.0089766087e-08 -1.4810313705e-07 -1.9008591471e-07 
-4.3343704798e-07 5.5772463719e-07 1.478597753e-07 1.2021343876e-07 -2.2717393899e-07 2.7208518591e-07 -6.6658653572e-07 -2.7779570457e-07 3.3515574076e-07 
6.0555511057e-08 9.7461793449e-08 1.6201933737e-07 -3.8800510912e-07 -2.6494281272e-07 -1.0369571691e-07 1.315602147e-07 -8.7467442811e-08 5.7452615144e-08 
2.4365961845e-08 2.939002388e-07 4.4450945701e-08 4.9746058805e-08 -1.2593346459e-07 -2.7424736283e-07 1.1761882009e-07 2.8299759271e-08 -3.9117106477e-07 
-2.1744410282e-08 -2.1107976146e-07 -7.6005189387e-07 2.4347747196e-07 4.0021444944e-07 -8.0812283682e-08 1.2206760308e-07 -4.7472043982e-07 -1.740225542e-07 
7.5394574003e-08 5.9306637573e-08 -5.7352662784e-08 -2.9003096247e-10 -1.2108328642e-08 2.304526777e-07 5.1382935653e-07 -2.4601872e-07 5.2476888711e-08 
-3.207935514e-08 9.3255633944e-08 3.8512466988e-08 -1.7914900441e-07 6.5621574939e-08 4.1044166662e-08 -7.269503496e-08 -3.5003569192e-07 -2.6753796553e-07 
1.2084135527e-07 -1.3877554088e-07 -1.029473725e-07 -3.2737790691e-07 5.934186643e-08 -2.6363907391e-07 -8.3539461943e-08 -1.4982416626e-07 6.0572660831e-07 
1.0961133291e-07 -8.8705204047e-08 1.774505965e-08 -6.3107276116e-08 5.653327011e-08 -8.9065560663e-08 2.7411096552e-07 -1.3719937462e-07 1.8876046273e-07 
-2.3187208192e-08 -1.5372189089e-07 -5.3292532239e-08 
f 3 70 double
0.00013002998653 0.00012723776837 -0.00034309199417 -3.6395208911e-05 -0.0002230401265 -0.00012174119387 -6.1642138063e-05 -1.6980374239e-05 -0.00021102610376 
8.4613785889e-06 3.2266629274e-05 -5.8210579886e-05 -0.00010663955597 6.9126272468e-05 0.00011232328879 0.00016398347159 0.00015837300016 -0.00017766415746 
6.4571218027e-05 0.00012706101966 -0.00017876347056 3.8464612342e-05 3.4305723706e-06 -0.00012511673241 2.9203112238e-05 -0.0001520469923 0.00074516558699 
7.3871413613e-05 -0.00021640822837 0.00015476903322 -0.00039386124127 9.0321150297e-05 0.00039037414699 -0.00032749526798 0.00027306399815 -0.00052738445083 
-0.00014700451687 2.8733782455e-05 -0.00023359797845 0.00045478435786 -0.00042770302431 0.00040656579878 -0.00014727493659 -0.00034550290005 -3.096833933e-05 
0.00023363744016 -5.7121612197e-05 -5.4945343076e-05 5.8511439439e-05 0.00022146775139 8.6029781169e-06 0.00039627476581 0.00018886335422 -5.7265164117e-05 
-0.0001186100481 6.1778488488e-05 0.00015002684462 5.5205164437e-06 -0.00017051859462 3.4024575675e-05 -5.1261452751e-05 6.1255046861e-06 0.00029932267906 
-2.2856560723e-05 -0.00039281187825 3.9492241879e-05 0.00013459834024 0.00032988225749 1.2001703222e-05 -0.00048700436405 -5.9922817408e-05 5.8903414944e-05 
-9.0695940894e-05 1.2577322341e-05 0.00023069430175 -6.6953418501e-05 -0.00016048283241 -5.2679212869e-05 4.4574260005e-05 4.0805812346e-05 -5.1717746474e-05 
5.4962484735e-05 -5.982727356e-06 -1.2689704242e-05 -2.9797913573e-05 -5.5444047802e-05 -4.1029901748e-05 0.0002143200373 -0.00015593172609 -2.6737353908e-06 
2.6780018261e-05 8.8981287832e-05 -4.4145339678e-05 -0.00021124538797 -9.9865251686e-05 -0.00015846058821 0.00014231065804 -0.00010819940921 -1.7419918353e-06 
0.00033642642747 -8.9315754717e-05 -4.615577997e-05 -2.1024669973e-05 -4.4079805331e-06 -8.3052134778e-05 6.1510283414e-06 -7.8180490866e-05 -1.661110257e-05 
0.00013807901343 -2.7994149899e-05 9.0924148113e-05 0.00010350920761 -4.9140622937e-05 -0.00018062368542 0.00016695686412 0.00014875136506 7.3832919193e-05 
4.868867899e-05 5.6074557303e-05 -0.00015860304304 -1.9171466565e-05 -6.2335945813e-05 2.4030131318e-05 -2.3053415536e-05 -0.00013503362929 6.1011393e-08 
-8.1980991339e-05 -5.0487552427e-05 -6.821031264e-05 -0.00013242430641 7.9006826026e-05 -2.8577715579e-05 -2.8014642881e-05 7.1499055794e-05 -5.2613337046e-05 
6.9802851836e-05 -5.7451567722e-05 3.2115590233e-05 6.2665880694e-05 6.4330784727e-05 1.5411760606e-05 2.4591110035e-05 -8.5739726055e-06 3.8897701912e-05 
4.873077676e-05 -0.00011539630959 -4.4023081918e-05 2.2297972069e-05 -2.6728794642e-06 0.0001467207952 -1.6825118319e-05 -9.942894634e-07 0.00010914309989 
-7.5648493356e-05 -0.00010596957644 2.1814372179e-05 8.1557830917e-05 -8.4298482457e-05 -1.0659779266e-05 -1.8574225133e-05 8.7343821456e-05 -3.0984603964e-06 
0.00010747823583 8.7133957638e-05 0.00013653442951 -7.8505958269e-05 6.3362170866e-06 -9.1636358098e-05 -3.9546821644e-05 6.1079358331e-05 1.4329894476e-05 
-6.1802955018e-05 7.5010813971e-06 2.1455212382e-05 -5.1087909447e-05 4.9909106534e-05 1.305790862e-05 -6.1500139761e-05 1.4172791899e-05 5.0792302315e-06 
-1.3041473033e-05 2.2259562062e-05 5.9458526009e-05 1.6047052805e-05 2.0748490096e-05 -2.3920429634e-05 -2.0816171491e-05 -6.2820912116e-05 -8.3923442892e-06 
-2.5709555472e-05 5.0266210633e-05 -8.7974534141e-06 -2.0051086634e-05 7.9570694835e-06 3.4847881399e-06 -8.0187897637e-05 1.9840346886e-05 -2.4962032287e-06 
-7.8418113483e-05 -3.7513001449e-05 -3.3144695593e-05 -7.3074902712e-06 1.6679849394e-05 1.2464953409e-05 0.00013105902919 -2.8181810776e-05 2.1982633919e-05 
-2.6643923746e-05 1.7556317288e-05 2.1751888192e-05 
radius 1 70 double
0.005 0.005 0.005 0.005 0.005 0.005 0.005 0.005 0.005 
0.005 0.005 0.005 0.005 0.005 0.005 0.005 0.005 0.005 
0.005 0.005 0.005 0.005 0.005 0.005 0.005 0.005 0.005 
0.005 0.005 0.005 0.005 0.005 0.005 0.005 0.005 0.005 
0.005 0.005 0.005 0.005 0.005 0.005 0.005 0.005 0.005 
0.005 0.005 0.005 0.005 0.005 0.005 0.005 0.005 0.005 
0.005 0.005 0.005 0.005 0.005 0.005 0.005 0.005 0.005 
0.005 0.005 0.005 0.005 0.005 0.005 0.005 
omega 3 70 double
0.0002776484637 -0.00022552470262 -0.00020635378582 7.0058032271e-05 -7.7634709941e-06 -1.556531925e-05 -4.5445971884e-06 1.070383289e-05 4.3990025242e-08 
-3.7172854872e-05 4.8680266773e-05 1.5197324735e-05 -1.3497928191e-05 -1.1312855393e-05 3.8536512708e-05 -3.864278483e-05 -4.7905326074e-05 -5.9138532264e-05 
0.00030080900097 2.5575821722e-05 6.6153516709e-05 1.7028269177e-05 -3.9710218247e-05 5.109254988e-05 0.00011584502521 0.00013400356159 4.9583967098e-05 
7.5014479915e-06 4.5991434173e-06 -1.6892640842e-05 0.00014049640297 -1.1613467749e-05 2.6991168297e-05 9.3559721361e-05 -2.0919641458e-05 0.0001440493805 
-6.3174858199e-05 0.00017628399985 -3.0287156211e-05 0.00015133754878 -0.00019381898159 -0.00032139124354 1.0100526022e-05 -0.00031095703732 -0.00023952145261 
0.0001828699805 -0.00068586618272 -8.6186534797e-05 3.161610624e-05 -0.00021144700216 -0.00021661222845 -1.6642956527e-05 -5.5608178788e-05 9.3544845068e-05 
0.00012384580181 -0.00025980045869 3.5541003432e-05 4.4845281758e-05 -0.00011291350471 -2.6601851773e-05 -3.8809783132e-05 -1.8813316007e-06 0.00010223087999 
0.00024325446455 -8.242197505e-05 4.8612880067e-05 -0.00012955311001 2.7953673123e-05 3.4542675491e-05 -1.0638851366e-05 -0.00067666892635 0.00016909354756 
-0.00010395474986 -5.6766418308e-06 0.00011483140949 6.9261216155e-05 4.0326855059e-05 -0.00010263344212 -9.4968932575e-05 6.8085986874e-07 -4.3087333386e-05 
8.7983306832e-05 -0.00017079858764 2.793551605e-05 6.2189510319e-05 -9.3113866268e-05 4.9069119428e-05 -0.00013762154572 -0.00054484929827 -2.6867956657e-05 
6.5152141754e-05 -0.00019288439004 -5.9201468584e-06 -0.00010496331299 0.00030624107288 2.0092389174e-05 4.3059552801e-05 -1.8278350452e-05 -0.00015901340823 
-4.9606798146e-05 -4.5682345137e-05 -4.9605759633e-06 -2.796762203e-05 2.4823401582e-05 7.7558647606e-05 -9.6825583761e-05 -9.2180633798e-05 8.6851688589e-05 
-4.6771679631e-05 -0.00024840723588 -2.1372305638e-05 0.00025552181938 -0.00014726917336 2.0285598609e-06 6.2545886166e-05 -0.000112444099 -1.7299598666e-05 
8.4662414848e-06 -0.00025555183406 -2.1296596656e-05 2.0937051369e-05 -3.0333405447e-05 -4.9004193367e-06 7.7674447338e-05 -0.00013227352224 0.00028418484086 
-0.00010204147922 -3.4197909192e-05 1.5300513492e-05 -4.4981992781e-05 -3.8545331528e-05 -0.00015658467533 3.581734073e-07 -0.00013228422988 -2.6882954158e-05 
-0.000120390242 1.8026181649e-05 -0.0003464960181 -6.7609135974e-05 -1.5445860099e-05 4.6944026829e-05 0.00015496659809 -0.00032649800417 -4.9877270786e-05 
-2.826660393e-06 -5.0760337587e-05 2.6896095832e-05 3.7748272392e-05 5.4343444059e-05 -2.8062374133e-05 -0.00011387199299 9.9791079916e-06 -6.5488694798e-06 
0.00020228282105 -1.859899902e-05 4.5327183971e-05 9.9612360963e-05 -1.5641536227e-05 -7.3485985642e-05 2.4218310282e-05 -0.00017903309324 1.7503659797e-05 
-4.1718535813e-06 0.00018051402095 5.8433901262e-05 5.6998732379e-05 -0.00014269012871 -0.00018936519161 1.2836137596e-05 -0.00010053794711 0.00043930001862 
-2.2290442398e-05 -2.9768987113e-05 -2.3013546468e-05 0.00013559560551 -6.1917108061e-05 0.00010267875911 -8.8494168727e-05 -0.0001350251461 6.3723868021e-05 
4.1005778663e-05 2.5101358296e-05 -0.00010445840883 -3.9642937644e-05 5.792718632e-05 -4.787667452e-05 9.4579330318e-05 -1.6688405367e-05 0.00017365590261 
-1.8104245333e-05 -1.2067181309e-05 3.3371783785e-05 4.7916279739e-05 0.00022245272894 4.0052558913e-05 7.1004362556e-05 0.00033950721818 0.00010027118584 
-8.3348889403e-06 3.4250723013e-05 -1.7363458494e-06 9.2192900877e-05 -6.3562675492e-05 -8.77303601e-05 6.0882354075e-06 -0.00010175892478 1.5823572481e-06 
-1.993996733e-05 3.4706903523e-05 -1.2676946331e-05 
