# vtk DataFile Version 4.2
Generated by LIGGGHTS
ASCII
DATASET POLYDATA
POINTS 70 float
-0.00367956 -0.0212507 0.0100262 0.00833674 -0.0193026 0.00792661 -0.0119037 -0.0115754 0.00817598 
-0.000503519 -0.00847752 0.00698456 -0.000105012 -0.014445 0.00811251 -0.0215286 -0.002507 0.0118349 
-0.0115006 -0.00307062 0.0117155 -0.0184008 0.00436585 0.00949337 -0.0106524 0.00469879 0.010945 
0.0056797 0.00942017 0.0111952 0.0165316 0.00920298 0.0111853 0.00497093 0.0195582 0.00975565 
0.0118838 0.016758 0.0101866 -0.00536112 -0.0196546 0.0172274 0.00108566 -0.021483 0.0174621 
-0.018906 -0.0108431 0.0162004 -0.0101295 -0.012187 0.018713 -0.00607645 -0.0118648 0.014225 
-0.000285085 -0.0136039 0.0193481 0.00592919 -0.0154781 0.0129171 0.011583 -0.0122108 0.0176779 
-0.0172543 -0.000562192 0.0178697 -0.00965828 -5.78713e-05 0.0190255 -0.00371959 -0.00182663 0.0145483 
0.00231135 -0.00759084 0.0150203 -0.0213218 0.00464933 0.0183974 0.000254852 0.00454867 0.0135569 
0.0052918 0.00740074 0.0198136 0.0106865 0.00114358 0.0154687 0.0199307 0.00224113 0.0153679 
-0.0186342 0.0114296 0.0178902 -0.0130093 0.0135111 0.0180811 -0.00811013 0.00958804 0.0133211 
-0.00097471 0.0160163 0.0133205 0.0113149 0.0120537 0.0160461 0.00664406 0.0182591 0.0161863 
-7.01622e-05 -0.0179971 0.025469 0.00693106 -0.0185802 0.020127 -0.0161602 -0.0144927 0.0244169 
0.00833324 -0.0157915 0.0263521 0.0154397 -0.0138041 0.0243638 -0.0178373 -0.00652112 0.0230225 
-0.00865603 -0.00589234 0.023681 -0.0149211 -0.00109394 0.027723 -0.00331108 1.47587e-05 0.0279765 
0.00507113 -0.000588931 0.0273879 0.0217556 4.01839e-05 0.0258315 -0.0213535 0.00347969 0.0273771 
-0.0131562 0.00579974 0.0232453 0.0115631 0.00716637 0.0242833 0.0184789 0.00759742 0.0215009 
-0.0140552 0.0167361 0.0245703 -0.00941204 0.0112755 0.0254902 -0.00279702 0.0135299 0.0223768 
0.0139415 0.0141764 0.0267212 -0.000398056 0.0218665 0.0217699 -0.0019465 0.0198944 0.0279158 
0.00746308 0.0178602 0.0245963 -0.00929581 0.00685013 0.0326701 -0.00263587 0.0071863 0.0300934 
0.00602128 0.00555051 0.0316584 0.0146831 0.000728157 0.0299279 0.0202077 0.00814558 0.0300387 
-0.0153711 0.0122646 0.0327773 -0.00276783 0.0156751 0.0343695 0.00168473 0.0116433 0.0314204 
0.00752666 0.0129602 0.0318476 0.0136083 0.00876839 0.0343725 0.0131252 0.0173692 0.0350982 
0.0197343 0.00855781 0.0397401 
VERTICES 70 140
1 0 
1 1 
1 2 
1 3 
1 4 
1 5 
1 6 
1 7 
1 8 
1 9 
1 10 
1 11 
1 12 
1 13 
1 14 
1 15 
1 16 
1 17 
1 18 
1 19 
1 20 
1 21 
1 22 
1 23 
1 24 
1 25 
1 26 
1 27 
1 28 
1 29 
1 30 
1 31 
1 32 
1 33 
1 34 
1 35 
1 36 
1 37 
1 38 
1 39 
1 40 
1 41 
1 42 
1 43 
1 44 
1 45 
1 46 
1 47 
1 48 
1 49 
1 50 
1 51 
1 52 
1 53 
1 54 
1 55 
1 56 
1 57 
1 58 
1 59 
1 60 
1 61 
1 62 
1 63 
1 64 
1 65 
1 66 
1 67 
1 68 
1 69 

POINT_DATA 70
FIELD FieldData 7
id 1 70 int
1999 4507 2526 3015 5547 3295 398 3387 3250 
468 4735 2889 3117 2469 4085 2182 5024 1166 
5438 5417 1477 901 3532 385 5080 2813 3076 
5141 44 1943 5432 4394 3867 209 736 4210 
4635 3755 665 1380 3500 2801 942 2582 3884 
5388 4318 3793 3959 2268 2726 5455 724 596 
2132 3233 1446 4832 1762 842 914 1796 2282 
1617 3230 2163 4035 3936 2654 4213 
type 1 70 int
2 2 2 2 2 2 2 2 2 
2 2 2 2 2 2 2 2 2 
2 2 2 2 2 2 2 2 2 
2 2 2 2 2 2 2 2 2 
2 2 2 2 2 2 2 2 2 
2 2 2 2 2 2 2 2 2 
2 2 2 2 2 2 2 2 2 
2 2 2 2 2 2 2 
i 3 70 int
0 0 0 0 0 0 0 0 0 
0 0 0 0 0 0 0 0 0 
0 0 0 0 0 0 0 0 0 
0 0 0 0 0 0 0 0 0 
0 0 0 0 0 0 0 0 0 
0 0 0 0 0 0 0 0 0 
0 0 0 0 0 0 0 0 0 
0 0 0 0 0 0 0 0 0 
0 0 0 0 0 0 0 0 0 
0 0 0 0 0 0 0 0 0 
0 0 0 0 0 0 0 0 0 
0 0 0 0 0 0 0 0 0 
0 0 0 0 0 0 0 0 0 
0 0 0 0 0 0 0 0 0 
0 0 0 0 0 0 0 0 0 
0 0 0 0 0 0 0 0 0 
0 0 0 0 0 0 0 0 0 
0 0 0 0 0 0 0 0 0 
0 0 0 0 0 0 0 0 0 
0 0 0 0 0 0 0 0 0 
0 0 0 0 0 0 0 0 0 
0 0 0 0 0 0 0 0 0 
0 0 0 0 0 0 0 0 0 
0 0 0 
v 3 70 double
0.012163663659 0.0012582931908 -0.46502496301 0.048694115179 0.025007009832 -0.43618605236 -0.01981220406 0.044433842374 -0.41763535341 
0.016227158227 0.047173514797 -0.42028053565 0.030466272195 0.046696919557 -0.42574329658 -0.010302006305 0.066400691009 -0.39717843711 
-0.0074546538062 0.044774508273 -0.40359596927 0.0050906190267 0.060945958747 -0.39955359124 0.0082376020699 0.044854634501 -0.39615219076 
0.017388776101 0.020105391632 -0.38069965415 -0.0056514773102 0.022339956495 -0.37886776724 0.022246491098 -0.0047501799573 -0.38909381429 
0.0053218260918 -0.0044040701751 -0.3778974115 0.011322320927 0.011532404506 -0.47509031794 0.021813839144 0.0018019891697 -0.47862135899 
-0.026994316853 0.045951807859 -0.42879405897 -0.0069008159632 0.029173102485 -0.45550220842 -0.0011737276261 0.027083187114 -0.45147476317 
0.015375822117 0.014143144442 -0.46286606233 0.029948168714 0.03440025638 -0.44295599438 0.034331415043 0.027198290561 -0.42985681113 
0.00028522659997 0.06189116443 -0.40347999755 9.8453324122e-05 0.044092732541 -0.40136350394 -0.0018584980295 0.02505263532 -0.40384787554 
0.018916428424 0.032907092902 -0.42636673716 0.010439067063 0.057465219518 -0.38746888144 0.010361016553 0.018789615373 -0.39159484847 
0.0077489361172 0.012900944585 -0.36421433622 -0.00085378570036 0.024346307898 -0.37622910169 -0.004828333645 0.039717742569 -0.35476143891 
0.026914442773 0.049476942513 -0.3818829409 0.032270952053 0.036645866059 -0.37545670886 0.01955707652 0.032531049689 -0.38720057316 
0.017609972659 0.014744393883 -0.3798511375 0.0090575944275 0.0032473644786 -0.36039178775 0.010570986285 0.0080825477213 -0.36556945339 
0.022678812232 -0.0051803651513 -0.47856066757 0.030110889409 0.012712358693 -0.46553523537 -0.0032345899783 0.002092676423 -0.47906055794 
0.028614340145 0.0294975506 -0.47328329249 0.042891491863 0.039884359988 -0.42982201383 -0.013031247089 0.050057797617 -0.41308351908 
0.008315532623 0.030507833994 -0.42471520946 -0.0003072165739 0.070280992841 -0.4095644469 0.019141470672 0.055964921024 -0.41395607333 
0.03328853279 0.063946895803 -0.38251460108 0.0015465590865 0.058196975463 -0.32929960389 0.00043997851967 0.083957991666 -0.3759988748 
0.011586844699 0.042037411794 -0.38080203706 -0.0070905858342 0.031761486391 -0.33366146651 -0.011708055084 0.02880286878 -0.33829311923 
0.038901289461 0.033748716127 -0.36933974603 0.019893345128 0.022464007673 -0.35056393451 0.022841720635 0.015019352124 -0.3598080572 
-0.00089454546121 0.019584506548 -0.30766316998 0.023521735144 -0.00022233704633 -0.35001096461 0.022425367089 0.00084136179396 -0.33192725371 
0.010608273636 0.0021716224449 -0.33427133601 0.013661402864 0.078266139486 -0.35321874751 0.0056377856091 0.072608667956 -0.35999812198 
0.0077282730491 0.062770806029 -0.32113563164 0.011178661825 0.081525129724 -0.32224388202 -0.019651577824 0.068895480295 -0.30845947441 
0.047902443958 0.077071933602 -0.33979576499 0.039964715931 0.045706115222 -0.27817855476 -0.0027630902847 0.031772355014 -0.29556727007 
0.0031353855772 0.074161063026 -0.30591011696 -0.0062162880288 0.046990323722 -0.2935170987 -0.060054978118 0.039678534792 -0.25602767235 
-0.019842677008 0.12305387794 -0.24218889215 
f 3 70 double
0 0 -0.0098744152677 0 0 -0.0098744152677 0 0 -0.0098744152677 
0 0 -0.0098744152677 0 0 -0.0098744152677 0 0 -0.0098744152677 
0 0 -0.0098744152677 0 0 -0.0098744152677 0 0 -0.0098744152677 
0.00025551054097 -0.00014460718802 -0.010000062865 -5.4751390112e-05 -0.00060484024339 -0.010017471879 0.000368816625 -0.00019894585731 -0.01029477861 
0 0 -0.0098744152677 0 0 -0.0098744152677 0 0 -0.0098744152677 
0 0 -0.0098744152677 0 0 -0.0098744152677 0 0 -0.0098744152677 
0 0 -0.0098744152677 0 0 -0.0098744152677 0 0 -0.0098744152677 
1.4256500571e-05 0.00034266982491 -0.010253103551 -4.3770705523e-05 -5.1362430859e-05 -0.0098353080097 0 0 -0.0098744152677 
2.4745233804e-05 -4.8125240423e-05 -0.0098875100259 -0.00017592885384 -6.2955595594e-05 -0.010067527949 -0.00030989909521 -0.00027964413921 -0.01015461498 
-0.00031104610631 -0.0027911408479 -0.0092305168313 0 0 -0.0098744152677 2.4222910102e-06 9.4984903883e-06 -0.0098697865135 
0.00042934237979 0.00068941714907 -0.010003481905 0 0 -0.0098744152677 -0.00042666361587 -0.00022164772087 -0.010079016316 
-0.00012403969736 0.00018955735146 -0.010066434613 -0.00037136781007 -6.0358278068e-05 -0.010503959557 -0.00057396016885 0.0012674382291 -0.010630646926 
0 0 -0.0098744152677 0 0 -0.0098744152677 0 0 -0.0098744152677 
0 0 -0.0098744152677 0 0 -0.0098744152677 -0.00021994488067 -0.00071202031573 -0.0087791261799 
0 0 -0.0098744152677 0 0 -0.0098744152677 0 0 -0.0098744152677 
0 0 -0.0098744152677 -0.0018525181318 0.01106093073 -0.012152560822 0 0 -0.0098744152677 
-2.3319491701e-05 -0.00044308924437 -0.0098734717583 0.00060973775593 0.0016424525663 -0.012911364681 0.00087826692248 -0.00063607047001 -0.0094425651876 
0 0 -0.0098744152677 0 0 -0.0098744152677 -0.0013594263397 -0.0022266724892 -0.0098563703031 
0 0 -0.0098744152677 -0.0016924436951 0.0018181464943 -0.0095308476322 0 0 -0.0098744152677 
0.001381453364 -0.00043262855011 -0.0092294490502 0 0 -0.0098744152677 0 0 -0.0098744152677 
0 0 -0.0098744152677 0 0 -0.0098744152677 0.00012302389271 2.0801591232e-05 -0.0098825308833 
0 0 -0.0098744152677 -4.1073151053e-05 -0.00013199926263 -0.010205422728 0 0 -0.0098744152677 
-0.001792751879 -0.0045561915422 -0.0014228752308 0 0 -0.0098744152677 0 0 -0.0098744152677 
0 0 -0.0098744152677 
radius 1 70 double
0.003 0.003 0.003 0.003 0.003 0.003 0.003 0.003 0.003 
0.003 0.003 0.003 0.003 0.003 0.003 0.003 0.003 0.003 
0.003 0.003 0.003 0.003 0.003 0.003 0.003 0.003 0.003 
0.003 0.003 0.003 0.003 0.003 0.003 0.003 0.003 0.003 
0.003 0.003 0.003 0.003 0.003 0.003 0.003 0.003 0.003 
0.003 0.003 0.003 0.003 0.003 0.003 0.003 0.003 0.003 
0.003 0.003 0.003 0.003 0.003 0.003 0.003 0.003 0.003 
0.003 0.003 0.003 0.003 0.003 0.003 0.003 
omega 3 70 double
2.7383557246 -0.025747767241 0.49708372481 -3.7453320934 -5.8010288502 3.3139012994 3.5814598749 -1.861198812 1.7492235961 
0.67938415772 -3.3673520698 2.7071734687 6.9226332886 -9.337602505 -0.52155190479 -0.31026040152 -0.74538906332 -1.3684502535 
-0.97812350271 2.0998509903 -2.3826664706 0.31213834099 -1.261849006 -2.589060976 1.6422559044 0.1599566978 -2.1520099233 
1.3748328604 -2.4454121872 -1.3488950374 -2.7324819933 -0.84571324047 0.12977666244 1.6255055839 0.66730751291 -2.0160760187 
-1.6246578589 -2.2197936134 0.097674133478 0.12538952103 -0.45406413583 3.03370425 1.2661351264 -2.5197354644 2.3546794419 
-1.2958578464 -0.47767156482 1.0682453586 2.6949235906 -1.6532098276 -2.3619809165 0.10602070696 -0.027065248539 -3.1412428722 
10.985985379 -0.73887813605 3.2404497719 2.0524540287 -0.63685730195 -4.4794426902 2.2926877412 1.171364093 -0.47075316676 
2.7529384034 1.250385384 -3.0217913455 3.4099630674 1.0198932451 -3.2629168833 1.3156014215 -2.5483390171 -2.2494617083 
2.6183704189 0.26617619232 -0.31153127878 1.2160547135 0.61013471135 -2.2799319808 0.3075950196 -0.95950177062 0.63860640897 
-1.1122729601 0.81290453246 0.19872886717 0.17317854123 -1.2937097668 -1.2875784152 0.75499631681 2.9592712752 -0.93663237129 
0.4228743522 -1.535194875 -1.7649504182 0.63310921772 -0.13769644609 -2.9448930851 1.8207651961 0.73682099588 -1.8800491896 
-0.8824979624 -0.14433286806 -1.6132498867 -0.90002423732 -1.4630575006 1.0968165023 -1.1733259415 -0.62584598443 -0.83056209164 
9.7053757786 3.9628776278 0.95860254677 -2.0118087447 -0.45263327481 1.1460644312 -10.359344636 6.0761367264 5.4949860861 
-4.6892705679 -1.938564766 -4.2506254922 -0.22263797176 0.87007923249 2.3201358477 1.9478891912 0.21382722364 -5.8684429684 
-1.0032407119 3.1619805989 -1.4387368898 -3.3159598505 -1.1445217985 -7.6612231848 2.576450554 -0.75919789456 5.7878603858 
-9.2793424848 -2.015968536 9.9617245399 -3.8089971857 1.0134819183 4.6153205531 -0.32315088933 1.3902676084 -6.0966634903 
0.88577633674 2.3906671269 -2.4788065712 0.39763528062 0.60670995117 -1.3208740949 -3.1873473015 -0.88605561436 2.2793337185 
-0.50264256512 0.31758029776 -0.76156449944 -2.3465381769 -2.1320510676 -2.2184785535 -0.14638584769 -0.39875014991 -1.8255889759 
-1.8379042657 0.67958285485 0.40717879038 0.20640425701 1.2295559006 0.68585383087 -6.1587536705 0.87583239623 4.3951871339 
-3.6230509703 -3.8708653695 -0.13902306538 -1.1317760397 1.2650770655 -4.9492748875 5.3084084143 -6.6453039521 -0.22844996182 
2.230784298 -3.3929779804 1.5989764775 -9.4420857859 -1.0754096082 1.2938857768 -5.813004532 -1.563310965 6.2096973949 
4.5597344325 -14.744206338 5.013505065 -6.5881385062 0.28555233754 -0.25178449912 -13.557063419 -6.1844241856 4.1168508336 
-2.8547679274 7.9000109492 7.3290152127 -0.80599480755 -14.98425318 -8.0438564222 -0.83860804528 -3.0675934154 1.0152857126 
-12.102294515 2.1695287631 7.7312393615 
