# vtk DataFile Version 4.2
Generated by LIGGGHTS
ASCII
DATASET POLYDATA
POINTS 70 float
0.0114581 -0.0368894 0.00699838 -0.0237986 -0.0238458 0.00699827 -0.00516478 -0.0202765 0.00953845 
0.0278628 -0.0211398 0.0135785 0.0230261 -0.0153722 0.00699752 -0.0253441 -0.00911908 0.0113724 
-0.0187622 -0.00161635 0.0107676 -0.00540934 -0.00082461 0.0069993 0.0045111 -0.00742059 0.00934088 
0.0159819 -0.000463851 0.0109253 0.0119743 0.00781084 0.0069976 0.0247776 0.00517861 0.00975104 
-0.0327818 0.0126216 0.00699878 -0.0248283 0.0178785 0.0100133 -0.000589488 0.0181855 0.0102347 
0.00562292 0.011265 0.0139045 -0.0125072 0.0218876 0.00749382 0.00288389 0.0293428 0.00699795 
0.0229398 0.0220761 0.0070533 -0.000836414 -0.0222524 0.0217332 0.0205449 -0.00875754 0.0144138 
-0.00820969 0.00387825 0.0164056 -0.0114136 0.0133337 0.0169576 0.0101142 0.0160929 0.0215669 
0.0225476 0.010684 0.0232497 0.0057422 0.0299437 0.0204631 -0.0141535 -0.0327213 0.0297117 
-0.000932094 -0.0397253 0.0283781 -0.00426073 -0.0305304 0.0304676 -0.0203286 -0.0203268 0.0274441 
-0.00721645 -0.018164 0.0282577 0.00504079 -0.0176016 0.0283518 0.019833 -0.0173874 0.0279802 
0.0294059 -0.0112395 0.0311967 -0.00674141 -0.00769605 0.0261014 0.0291985 -0.00143261 0.0292522 
-0.0127277 0.00477301 0.0347275 -0.00474817 0.00179301 0.0286245 0.0109787 0.0038892 0.0330456 
-0.012138 0.0145033 0.032501 0.0040476 0.0289293 0.0322747 0.0115002 0.0244725 0.0273158 
0.0295522 0.021592 0.0316808 0.00282281 -0.0325029 0.0374722 -0.0125618 -0.0252659 0.0410811 
0.0107596 -0.0251496 0.041906 -0.0216844 -0.0136966 0.0449292 0.00295226 -0.0199709 0.0378388 
0.0380504 -0.0114132 0.036744 -0.0161152 -0.00371844 0.0393055 -0.000240087 -0.00253142 0.0366106 
0.0163072 -0.000789572 0.0443757 0.0206867 -0.00931641 0.0414084 -0.0315248 0.00143338 0.0398353 
-0.0193531 0.0218709 0.0395089 -0.006833 0.0267618 0.0404402 0.0116872 0.0258019 0.0379173 
-0.0090512 -0.0234547 0.0502674 0.020305 -0.0299045 0.0510236 -0.0336379 -0.0136575 0.0531292 
0.0289081 -0.0133596 0.0475458 -0.0282449 -0.001882 0.0510298 -0.00557575 -0.00708143 0.0460092 
-0.0208779 0.00686567 0.0466713 -0.0126155 0.00283972 0.0506102 -0.0020702 0.00309101 0.0460998 
0.00615957 0.000137386 0.051779 0.0273787 0.00968743 0.0508261 -0.00966207 0.0205185 0.0524101 
4.56627e-05 0.0204071 0.0471149 
VERTICES 70 140
1 0 
1 1 
1 2 
1 3 
1 4 
1 5 
1 6 
1 7 
1 8 
1 9 
1 10 
1 11 
1 12 
1 13 
1 14 
1 15 
1 16 
1 17 
1 18 
1 19 
1 20 
1 21 
1 22 
1 23 
1 24 
1 25 
1 26 
1 27 
1 28 
1 29 
1 30 
1 31 
1 32 
1 33 
1 34 
1 35 
1 36 
1 37 
1 38 
1 39 
1 40 
1 41 
1 42 
1 43 
1 44 
1 45 
1 46 
1 47 
1 48 
1 49 
1 50 
1 51 
1 52 
1 53 
1 54 
1 55 
1 56 
1 57 
1 58 
1 59 
1 60 
1 61 
1 62 
1 63 
1 64 
1 65 
1 66 
1 67 
1 68 
1 69 

POINT_DATA 70
FIELD FieldData 7
id 1 70 int
44 732 1464 837 912 1986 1606 936 895 
1371 663 720 467 208 1438 1782 385 1157 
595 2267 398 2166 1751 2117 2149 1929 2782 
2509 2454 2873 2996 2710 2790 3102 2640 2566 
3057 2252 3510 3206 3209 3228 3475 3932 4179 
4006 4181 3841 3364 4052 3265 4362 4280 3857 
3770 3909 3724 5377 4989 4708 4482 5353 5397 
4796 5509 5103 5420 5050 5402 4610 
type 1 70 int
2 2 2 2 2 2 2 2 2 
2 2 2 2 2 2 2 2 2 
2 2 2 2 2 2 2 2 2 
2 2 2 2 2 2 2 2 2 
2 2 2 2 2 2 2 2 2 
2 2 2 2 2 2 2 2 2 
2 2 2 2 2 2 2 2 2 
2 2 2 2 2 2 2 
i 3 70 int
0 0 0 0 0 0 0 0 0 
0 0 0 0 0 0 0 0 0 
0 0 0 0 0 0 0 0 0 
0 0 0 0 0 0 0 0 0 
0 0 0 0 0 0 0 0 0 
0 0 0 0 0 0 0 0 0 
0 0 0 0 0 0 0 0 0 
0 0 0 0 0 0 0 0 0 
0 0 0 0 0 0 0 0 0 
0 0 0 0 0 0 0 0 0 
0 0 0 0 0 0 0 0 0 
0 0 0 0 0 0 0 0 0 
0 0 0 0 0 0 0 0 0 
0 0 0 0 0 0 0 0 0 
0 0 0 0 0 0 0 0 0 
0 0 0 0 0 0 0 0 0 
0 0 0 0 0 0 0 0 0 
0 0 0 0 0 0 0 0 0 
0 0 0 0 0 0 0 0 0 
0 0 0 0 0 0 0 0 0 
0 0 0 0 0 0 0 0 0 
0 0 0 0 0 0 0 0 0 
0 0 0 0 0 0 0 0 0 
0 0 0 
v 3 70 double
1.5156464411e-07 -1.4474881731e-07 8.4686260827e-08 4.9680652841e-08 -9.6369493423e-08 1.1547100571e-07 -8.8344840072e-08 5.6209115119e-08 1.2555011993e-07 
-5.5976690134e-07 -1.3115939422e-07 2.1453351349e-07 -8.0060086698e-07 -3.9389010425e-07 3.7505157138e-07 1.4505230011e-07 -7.2053902893e-08 1.8150485561e-07 
1.0449265578e-08 -6.5165412018e-08 -3.6740782419e-08 -6.1805386782e-07 4.6402841148e-08 2.9509510941e-07 5.5280590543e-08 -1.0736638199e-06 2.7988372536e-07 
-1.0512801748e-06 -1.9105862669e-07 -1.6384524849e-07 2.808878072e-08 -2.0935317797e-07 -5.3502269377e-08 -1.3301436508e-07 2.5929711612e-08 -1.0379301361e-06 
8.4515540681e-07 1.3355070016e-06 -9.5704902645e-07 -8.8382611861e-07 9.2189517973e-07 1.3105566191e-06 7.9269493528e-07 4.8862790074e-07 -1.1522696189e-07 
4.3675157506e-07 -4.4788932442e-08 7.5077551757e-08 7.5712173505e-07 1.123462067e-07 -2.2723551098e-06 -4.4800189495e-07 1.859199557e-07 -9.4339592822e-09 
4.3083483208e-08 -8.6677511335e-07 -4.5703187975e-07 1.9420753867e-07 -3.287959457e-07 -7.3473835798e-09 6.4569004124e-07 1.5845165265e-06 -5.0267149257e-09 
2.7785730663e-07 -2.108192815e-07 1.7899982192e-08 -3.9655529886e-08 -7.2369569955e-07 -2.8358447189e-07 3.7153664668e-07 -6.6558210705e-08 3.7043674153e-07 
7.6805622352e-08 1.6605676829e-07 -2.7325482147e-08 -6.8054261497e-08 -2.1918771004e-07 -1.126437242e-07 7.6798096751e-08 5.2997845694e-08 1.2488625056e-07 
-2.4442966348e-08 -5.9906201275e-08 -3.2853620795e-08 5.3623853659e-08 -1.4198449042e-08 3.6676943567e-08 -4.4572604242e-07 5.4838720451e-08 -8.7709205294e-08 
2.2592140222e-07 1.3574941828e-08 -1.1235847208e-07 -6.4114553555e-08 -7.5996589335e-07 -1.044984503e-06 7.2813785283e-07 -3.546173149e-07 2.8876014747e-07 
3.0945543554e-07 3.1885175168e-07 8.8636851188e-08 1.6772597453e-07 1.2322958259e-07 -1.3636372037e-07 -1.1238810468e-07 1.594002161e-07 1.2725233323e-07 
-1.5212756732e-07 8.8004761473e-09 5.5348675292e-08 -1.4593598737e-07 -1.5013293779e-07 2.6136981271e-07 -3.5051155373e-08 9.1311302788e-08 1.0918067811e-07 
-2.2828974834e-07 4.9461525168e-07 -1.3297584731e-07 -9.6515272571e-08 2.0578900314e-07 -1.3406363312e-07 2.2578359553e-07 6.852259614e-09 9.111301564e-08 
2.3735751669e-07 -1.7936701562e-07 5.9433301874e-08 -4.2759074918e-08 1.4143011647e-07 3.0960913387e-08 -1.395175827e-07 1.7369343908e-07 4.2468405615e-08 
4.3339165421e-08 -6.4425369472e-08 1.4976591308e-08 6.394044866e-09 -8.0126045645e-08 1.494149476e-07 -2.6855496449e-07 1.387119929e-07 1.3628262269e-07 
3.4913809676e-07 -1.0162638175e-07 4.8033071078e-09 -4.1525198585e-07 -2.0770291386e-07 2.4195792102e-07 -1.9864666954e-07 1.8099637622e-08 2.5592421959e-07 
-2.4750901557e-08 -1.175633739e-07 4.8586080474e-08 2.192327363e-08 -6.1373229991e-08 -1.7349710479e-08 -1.5748698836e-07 1.0289746158e-07 -2.407587887e-07 
8.6545737945e-07 -3.7397720057e-07 8.7814194951e-07 -1.5561821021e-07 5.3066353776e-08 1.533852496e-07 -3.6598908138e-08 -4.9340532185e-08 -3.2721476809e-08 
-6.9188780396e-08 8.2782590298e-08 3.3108993592e-08 -2.4931823547e-08 -1.2269535323e-07 7.208484394e-08 1.0837186522e-07 7.5646872549e-08 1.1614884526e-07 
-1.8105491738e-09 -9.1664451909e-08 7.6963670076e-08 1.1530769581e-07 -1.887959117e-07 9.5818467673e-08 1.1826776243e-07 3.2154384247e-07 -2.4946616194e-07 
7.5960463689e-08 6.1888151012e-08 -1.682285521e-08 1.073565941e-08 -2.0224239529e-07 2.3438635055e-07 -1.4376525468e-07 1.5778325984e-08 3.7610484558e-07 
-4.4500253878e-08 -2.1809311548e-08 1.8044328523e-07 1.9316268736e-07 1.041016454e-08 -2.423744361e-08 4.3366790887e-07 -8.1193471631e-08 -3.3416711489e-07 
-8.548916732e-08 -3.1190774023e-08 -1.117942873e-07 
f 3 70 double
-0.00027327353644 0.00012509466761 0.00010309850316 0.00029461278065 0.00026653979165 0.00028027422705 6.9690454347e-05 -0.00011934273396 -0.00039240482674 
-0.00011469559278 -5.6182522854e-06 9.0382477034e-05 -0.0001493325019 1.5090238874e-05 0.00011728770068 0.00021718051133 0.00017642275232 -9.1817532815e-05 
-0.00010870244008 6.5781136429e-05 0.00011683569034 -4.6736404466e-06 -0.00011823281887 0.00013970477273 2.5753138713e-05 9.153655364e-05 -0.00040023064687 
0.00051653589327 -6.5598985484e-05 0.00020423887795 -4.9103091913e-05 0.00033015404678 4.507978248e-05 0.00023458697339 -0.00037880396387 0.00044670255599 
-8.0470226713e-05 8.1133167726e-05 -5.9730000899e-05 -0.00028115984243 0.00027681409621 -0.00035821003684 -0.00032096077893 5.0657614186e-05 6.7208845611e-05 
0.00015986471905 6.2269610202e-05 -0.00014960456473 0.00028659999801 -0.00059140477827 0.00038537710447 0.00071023121287 0.00015050195029 -4.5767220948e-05 
-0.00016518275171 -0.00041425318387 -0.00038063099492 2.682078527e-05 -9.4221909661e-05 -7.7827676363e-05 -0.0001662012956 -0.00032535789401 0.00020007952479 
-6.514119969e-06 0.00035399243531 -0.00023870959202 0.00022298897796 -0.00024705582782 -0.00021925492718 -0.0001469134614 2.2801586902e-05 -0.00012654471976 
-1.3125267235e-05 -0.00020805471046 -2.07475441e-07 -8.5589265528e-05 -0.00031776314586 0.0001261967207 -3.7983055732e-05 -0.00014296307086 4.9133502484e-06 
-4.4115342158e-05 2.1005959985e-05 -0.00012036514853 -6.777838655e-05 -2.1426462117e-05 -5.2466826953e-05 0.00012869130577 -0.00013338891812 -0.00010835627637 
-0.00010584542409 -0.00010275538921 -2.2655627579e-05 -0.00024510530185 -0.00010677097293 -0.0004289857519 -0.00024124935075 -8.8694466665e-05 -1.6306531772e-05 
-0.00044475388685 0.00013005117884 1.7128728465e-06 -4.4538496594e-05 -4.8408128528e-05 6.8780735006e-05 1.2303122882e-05 7.7170817031e-05 -1.5903661141e-05 
-0.00029748741034 -4.6566721511e-05 -1.2592034106e-05 0.00015576247542 0.00022523017377 0.000165404433 -1.4283529105e-05 -6.8854062965e-06 -8.9287805129e-05 
-3.0957784853e-05 -0.00013840756186 4.2281564091e-05 5.499123765e-05 4.4830412694e-06 3.8548381404e-06 0.00017884613212 -0.00018268057784 1.8887306472e-05 
9.3483509187e-05 7.7813881051e-05 -1.5832808438e-05 1.224888217e-07 2.9212215636e-05 -2.3171314007e-05 2.8269911485e-06 0.00011137757014 2.0752879658e-05 
-2.8510475238e-05 5.4380058371e-05 -1.9491660993e-05 3.1322419109e-05 2.9254783429e-05 -2.0341781113e-05 8.5372861798e-06 -1.6528068248e-05 3.8146743717e-05 
2.5345644475e-05 -5.1894766785e-05 -8.8137484547e-05 4.5962076122e-05 -3.6519247073e-05 8.3244595703e-06 5.8713445899e-05 1.4423180823e-05 -3.1415677654e-05 
4.4114192523e-06 7.4630441044e-06 8.0739806478e-06 -6.4709308141e-05 4.4113161033e-05 4.5952267724e-05 -5.3938138049e-05 0.00012966784139 -3.8789225121e-05 
6.0224727156e-05 1.2254386799e-05 0.00010463040654 -0.0002077528473 5.5942237306e-05 8.2218335936e-05 6.8546362982e-06 1.2355801062e-05 -2.0914252355e-05 
2.9538570179e-05 5.0452508674e-06 9.8232901166e-06 -1.1364356194e-05 -3.0689764452e-05 3.0463778885e-07 -0.00012909537928 -5.946117811e-05 -1.4616405495e-05 
6.7634540016e-06 -7.5476989305e-06 6.0532897574e-05 -2.336244496e-05 -2.7813121215e-05 1.0548783008e-05 -7.2607453582e-05 -8.9347837611e-05 -1.4215070143e-05 
-6.7781246481e-05 8.9888283515e-05 4.4636204902e-05 7.1252761898e-07 8.6446144718e-06 1.3046975174e-05 1.481858962e-05 -1.1827813793e-05 1.1953721648e-05 
-5.4762281724e-05 -5.8542799637e-05 -2.2647860015e-05 -6.8932315529e-05 -9.0439326598e-06 -5.2291705447e-06 9.4866705659e-05 -4.6383955088e-05 -1.2518221262e-05 
3.666632029e-05 -2.5044236712e-05 -1.5758719405e-06 
radius 1 70 double
0.005 0.005 0.005 0.005 0.005 0.005 0.005 0.005 0.005 
0.005 0.005 0.005 0.005 0.005 0.005 0.005 0.005 0.005 
0.005 0.005 0.005 0.005 0.005 0.005 0.005 0.005 0.005 
0.005 0.005 0.005 0.005 0.005 0.005 0.005 0.005 0.005 
0.005 0.005 0.005 0.005 0.005 0.005 0.005 0.005 0.005 
0.005 0.005 0.005 0.005 0.005 0.005 0.005 0.005 0.005 
0.005 0.005 0.005 0.005 0.005 0.005 0.005 0.005 0.005 
0.005 0.005 0.005 0.005 0.005 0.005 0.005 
omega 3 70 double
9.1102028955e-05 -6.1022576025e-05 -2.6753975394e-05 1.116365458e-05 -7.4830280895e-06 -3.4574313705e-05 -4.4186650021e-05 7.1774960793e-05 2.7989128602e-06 
-8.6159059219e-06 0.00084505238696 -1.1663296129e-05 2.2802407768e-05 -0.00079062355194 3.8581039548e-07 -1.4732855361e-05 -5.253599776e-06 -1.9031024104e-06 
-3.3127005471e-05 2.2160838514e-05 3.8448742177e-05 -0.00015095230037 0.00026432628076 -1.1143413114e-05 -0.00026643614123 9.5332756449e-05 -0.00047778525872 
-3.6938592093e-05 0.00012168275018 -0.00034000219741 7.7225137374e-05 1.8289302682e-05 -0.00019442872121 0.00050167582051 4.5184889021e-05 -1.345490101e-05 
-0.00046524738493 0.00042867328941 0.00020178357201 -0.00073463604498 0.00046630089847 0.00022667896078 -0.00030123923381 -0.00053384360254 -0.00027262971788 
3.5602889315e-05 -0.00016389815999 -7.7051881253e-05 0.00027332351108 -0.00068351034264 -0.00021427021659 5.1687984741e-05 0.00031280205094 0.00021745508066 
-0.00079005397072 0.00023366098799 -9.4124307139e-05 -5.5719417046e-05 0.00011069932483 -5.2590016195e-05 0.0001901513744 -0.00022630160509 -0.00017485686477 
-5.5006447191e-05 3.4006215355e-05 -0.00018639946149 -3.4329243788e-05 3.2144007228e-06 -0.0001911460881 -3.9160040032e-05 -2.5200433042e-05 -0.00012638837965 
1.1268603538e-05 7.9463797916e-06 -5.522682327e-05 -1.3594799537e-05 1.2746979633e-05 -1.6144818761e-05 9.8282046996e-06 3.0606886874e-05 7.2456531313e-05 
1.9203768379e-05 1.9813196926e-05 2.1788570225e-06 8.047211485e-06 -3.2189630654e-05 1.7201548548e-05 2.4641206103e-06 0.00014399749835 9.6392233713e-05 
-1.0118785163e-05 -4.0311118561e-05 -2.2610085738e-05 -0.000190304633 0.00028894735083 -0.00020137402151 3.8150204583e-05 0.00033911467463 -0.00039638812811 
2.726551995e-05 -4.5252626628e-06 2.0984383807e-05 8.9328432531e-07 3.4246258127e-05 -2.0015264677e-05 -6.3459081144e-05 -0.00011047876442 0.00013311972283 
5.7459352567e-06 3.1396349233e-06 -2.8162632801e-05 -1.180241815e-05 -2.8390966227e-05 -4.7627029841e-05 1.5697209591e-05 -1.9427275369e-05 -3.0467002065e-05 
-2.3443082298e-05 -7.1184784419e-05 -6.8145052562e-06 5.5091221099e-05 1.1549190995e-05 5.1669601458e-05 -3.6675972009e-05 0.00011009422965 3.1789818082e-05 
-5.9287104509e-05 -4.0126873627e-05 8.3053627466e-05 2.581095749e-06 -5.0094153958e-05 6.1595988758e-05 4.2566560976e-05 2.7873860412e-05 5.7838058072e-05 
-8.5020653625e-05 -5.2364464908e-05 6.8363665993e-05 -8.9823970868e-06 -1.2386337261e-05 -8.5902393459e-06 -9.4179084968e-05 -1.0966796308e-05 -4.3140429366e-05 
0.00016700400196 3.1891145211e-05 -0.0001741484286 2.5553536602e-05 -6.2234532764e-05 -0.00024314842667 -0.00019439601639 8.3233731447e-05 -0.00011656244134 
1.0151555906e-05 -2.6940467793e-05 4.0224935788e-05 -5.2840439128e-05 9.583603553e-06 8.4454378744e-05 3.2686042149e-06 2.0102789026e-05 2.6231530175e-05 
6.6448613907e-05 -4.3434774336e-05 -1.69812269e-05 -4.0180005092e-05 -7.0554586855e-05 -6.5664114823e-05 3.6251076388e-05 1.610489054e-05 6.1672726033e-05 
-2.2749184722e-05 -6.4770765348e-06 2.1205292453e-05 -1.4258480648e-05 -4.3808377792e-07 -8.4126966647e-06 5.895638632e-05 -0.00011593789664 6.7447325793e-05 
4.1400479097e-05 -3.0583872916e-05 2.1821539384e-05 -3.8928057426e-06 -6.4721220241e-05 -2.3030592891e-05 0.00015664558276 -8.7928601865e-05 -0.00014965803287 
-7.8161831723e-05 -4.9024743048e-05 -3.8249590035e-05 -7.4809264348e-06 9.0667696754e-06 -3.489605543e-07 -8.4233133773e-05 7.3179510329e-05 -4.2364019079e-05 
9.7170596897e-06 -1.8422521034e-05 -2.0029555407e-05 8.2365080695e-06 4.4861079817e-05 -6.2585906819e-06 -5.076358729e-05 -8.1229082599e-05 -9.0055893978e-05 
-1.3041437532e-05 -6.3446445211e-06 3.9493334614e-06 
