# vtk DataFile Version 4.2
Generated by LIGGGHTS
ASCII
DATASET POLYDATA
POINTS 70 float
-0.0115785 -0.0172099 0.0149829 -0.0107344 -0.00946601 0.0165677 -0.00291064 -0.0151317 0.0186468 
0.00403823 -0.0156431 0.0146102 0.00562913 -0.0111088 0.0183891 0.012328 -0.0146599 0.0154015 
-0.0122336 -0.0024292 0.0197485 -0.000675064 -0.0065907 0.0170424 0.0153992 -0.00786148 0.0157994 
0.0106685 -0.00250572 0.0166659 0.0212019 -0.00360869 0.0196705 -5.77463e-05 0.000327294 0.0144271 
-0.0122643 0.0111078 0.0196399 -0.00241192 0.0163343 0.0138834 0.00604006 0.0114788 0.0194872 
-0.0117883 0.0181994 0.0165697 0.00376705 0.0211862 0.016305 0.0137433 0.0167618 0.0191157 
-0.00831026 -0.0179841 0.0204642 -0.0110354 -0.0179892 0.0283732 -0.00358149 -0.0208225 0.0280903 
0.0106216 -0.0175548 0.0282862 -0.00963301 -0.0105533 0.0260701 -0.015884 -0.00909409 0.0214494 
0.00489257 -0.0108786 0.0260371 0.0119806 -0.011957 0.0231392 0.0173478 -0.0098943 0.0214254 
-0.021443 -0.00397268 0.0215358 -0.00426863 -0.00794729 0.0246823 0.00291149 -0.00434985 0.0237404 
0.0121098 -0.00441102 0.0245661 0.0169828 -0.000965925 0.0252197 -0.00411686 0.00123831 0.0273626 
0.00435106 0.00337422 0.0223538 -0.00444997 0.015458 0.0214114 0.0012156 0.01356 0.0246354 
-0.00902781 0.0198997 0.025324 0.00206311 0.021794 0.0268539 -0.0128565 -0.017684 0.0349787 
0.00310949 -0.019726 0.031035 -0.0177895 -0.0128182 0.0297755 -0.0181753 -0.0117654 0.0358142 
-0.00599741 -0.0142434 0.0333054 -0.00475171 -0.00885226 0.0356538 0.000127063 -0.0145037 0.0310277 
0.00644603 -0.0148609 0.0362603 0.00145521 -0.00897294 0.0364511 0.0174608 -0.0130286 0.032105 
-0.0198946 -0.0022825 0.0285886 -0.0148159 -0.00534225 0.0299336 0.00809337 -0.00737887 0.0330552 
0.0145157 -0.00369368 0.0354744 0.0214397 -0.00191561 0.0322641 -0.0179712 0.00686247 0.0328839 
-0.011953 0.00103436 0.0286766 -0.0118448 0.0072413 0.0327126 -0.00164439 0.00278951 0.0337687 
0.00632265 0.00130669 0.0324258 0.0188488 0.00630005 0.0317941 -0.00775694 0.014148 0.0305921 
0.00337303 0.00860391 0.0314128 0.0156906 0.0149824 0.0314289 0.0110024 0.00794716 0.0312166 
0.00859308 0.0179751 0.0279042 0.0134066 -0.0165635 0.0372182 -0.00964614 -0.0144837 0.039117 
0.0123534 -0.00967284 0.0405312 0.0177773 -0.0119091 0.0424005 -0.0174436 -0.00568502 0.0393463 
-0.00978271 -0.00370331 0.0371448 
VERTICES 70 140
1 0 
1 1 
1 2 
1 3 
1 4 
1 5 
1 6 
1 7 
1 8 
1 9 
1 10 
1 11 
1 12 
1 13 
1 14 
1 15 
1 16 
1 17 
1 18 
1 19 
1 20 
1 21 
1 22 
1 23 
1 24 
1 25 
1 26 
1 27 
1 28 
1 29 
1 30 
1 31 
1 32 
1 33 
1 34 
1 35 
1 36 
1 37 
1 38 
1 39 
1 40 
1 41 
1 42 
1 43 
1 44 
1 45 
1 46 
1 47 
1 48 
1 49 
1 50 
1 51 
1 52 
1 53 
1 54 
1 55 
1 56 
1 57 
1 58 
1 59 
1 60 
1 61 
1 62 
1 63 
1 64 
1 65 
1 66 
1 67 
1 68 
1 69 

POINT_DATA 70
FIELD FieldData 7
id 1 70 int
3793 2813 2582 2132 5024 4085 2889 942 2654 
3936 2726 1762 468 1446 2282 4735 1796 4318 
665 3295 724 1380 3387 3117 1166 4507 5417 
5432 901 2163 5438 3755 2182 1943 4832 3884 
4210 596 2801 4635 3015 3867 1617 385 842 
4035 398 2469 3250 4394 3532 3500 5455 3230 
736 3076 5141 5080 1477 3233 2268 44 914 
4213 5547 5388 2526 1999 209 3959 
type 1 70 int
2 2 2 2 2 2 2 2 2 
2 2 2 2 2 2 2 2 2 
2 2 2 2 2 2 2 2 2 
2 2 2 2 2 2 2 2 2 
2 2 2 2 2 2 2 2 2 
2 2 2 2 2 2 2 2 2 
2 2 2 2 2 2 2 2 2 
2 2 2 2 2 2 2 
i 3 70 int
0 0 0 0 0 0 0 0 0 
0 0 0 0 0 0 0 0 0 
0 0 0 0 0 0 0 0 0 
0 0 0 0 0 0 0 0 0 
0 0 0 0 0 0 0 0 0 
0 0 0 0 0 0 0 0 0 
0 0 0 0 0 0 0 0 0 
0 0 0 0 0 0 0 0 0 
0 0 0 0 0 0 0 0 0 
0 0 0 0 0 0 0 0 0 
0 0 0 0 0 0 0 0 0 
0 0 0 0 0 0 0 0 0 
0 0 0 0 0 0 0 0 0 
0 0 0 0 0 0 0 0 0 
0 0 0 0 0 0 0 0 0 
0 0 0 0 0 0 0 0 0 
0 0 0 0 0 0 0 0 0 
0 0 0 0 0 0 0 0 0 
0 0 0 0 0 0 0 0 0 
0 0 0 0 0 0 0 0 0 
0 0 0 0 0 0 0 0 0 
0 0 0 0 0 0 0 0 0 
0 0 0 0 0 0 0 0 0 
0 0 0 
v 3 70 double
0.037204529903 -0.031789156973 -0.19046020436 0.01709543778 -0.047190063113 -0.18243370133 0.015636848171 -0.021450764265 -0.16982619803 
0.001911216425 -0.0046918774693 -0.20697689621 0.0099725681903 -0.020471913168 -0.18258428049 -0.0084556244576 -0.022385193032 -0.19033907002 
0.005777528698 -0.047078405248 -0.19258027747 -0.0030411538959 -0.035742524032 -0.1903709828 -0.0021424676678 -0.024704596091 -0.1839784084 
-0.00076829691565 -0.028845266519 -0.19069076515 -0.0021565860084 -0.042849088632 -0.19317049544 -0.0033214625485 -0.040852109716 -0.20336421714 
-0.03747533657 -0.049279678594 -0.24682490513 -0.04034466864 -0.018550647217 -0.23721293017 0.010689011213 -0.025272256201 -0.248742689 
-0.061117927203 -0.041195300283 -0.2384584924 0.011301635721 -0.0096364257093 -0.26637355918 0.032916558473 -0.030083038706 -0.2573070698 
0.027678237506 -0.032311126191 -0.16797116281 0.021948737509 -0.01979755286 -0.12151158316 0.029197451354 -0.0095454573502 -0.13437988364 
-0.015463449324 -0.0052320574674 -0.12982580929 0.024517973498 -0.032546048262 -0.15820796429 0.026125175082 -0.055266814392 -0.18068238315 
-0.0030065416625 -0.025838094362 -0.14585802891 -0.0085187955338 -0.034985952738 -0.16653539903 -0.013728771872 -0.026470498722 -0.17303412892 
0.014045686093 -0.075708366819 -0.18416862559 0.021544016805 -0.033114126821 -0.16194932833 0.0049042760781 -0.033748497537 -0.18179151257 
-0.0043947168855 -0.037117616214 -0.17220476846 0.014014198514 -0.056362404791 -0.17422867699 -0.0096335298762 -0.053789427449 -0.20764177467 
-0.00062480385911 -0.034030737576 -0.21337665726 -0.017647028543 -0.027895269489 -0.26929533054 -0.0029827421493 -0.023383491295 -0.26602109746 
-0.026984276578 -0.018182559318 -0.27956821969 0.0047612779756 -0.0019189703073 -0.3129798431 0.049781686605 -0.038105971263 -0.10019824931 
-0.0025383082539 0.00011859569846 -0.1239305128 0.026285598576 -0.044611489227 -0.13789842484 0.045132384629 -0.086004261376 -0.13761044371 
0.039895572885 -0.03311713266 -0.12680445076 0.013685594692 -0.033492718275 -0.11629849178 0.0011404750818 0.014700417721 -0.12410093847 
-0.016859589486 -0.051526985088 -0.065607383619 0.0095732015888 -0.024923140196 -0.089298161747 -0.059221188276 -0.07653176767 -0.12439342403 
0.0096861937111 -0.060351138821 -0.17523502236 0.021812263322 -0.057659826116 -0.16103936958 -0.0012507734493 -0.068254003919 -0.14655009066 
0.0020132025878 -0.10611737953 -0.12814399042 -0.013379557809 -0.13219904451 -0.13003945696 -0.033926652284 -0.078770758602 -0.23345308977 
-0.0034684510828 -0.05993782657 -0.20112392076 -0.026357328199 -0.049711638065 -0.24134357407 0.021675875061 -0.097997833781 -0.22198862279 
0.016610286599 -0.072615267324 -0.19414975418 0.042752327265 -0.1017529682 -0.26469004581 -0.027853514379 -0.053064074805 -0.30875597011 
0.0080269840586 -0.070643564275 -0.2774129451 0.042958524263 -0.069107375943 -0.29704423171 0.036401492681 -0.066616289264 -0.26098484196 
0.020743015705 -0.03364125771 -0.28475177199 -0.041239935492 -0.0786685194 -0.080934564512 0.052492060379 -0.050419973342 -0.086056024573 
-0.054406714404 -0.088460886901 -0.068948276375 -0.079925191859 -0.08894708396 -0.066574731112 0.0052152712639 -0.11961155929 -0.115036798 
-0.01270444404 -0.091512952869 -0.1338611809 
f 3 70 double
0.0010705241358 0.00027055863102 -0.010401702776 -3.051549176e-06 -3.7968670838e-05 -0.0098879239199 0.00017760309187 0.00043725944912 -0.009774196464 
-0.00027826125445 0.00012990806983 -0.010127340891 0.00025064795073 -5.3081332272e-05 -0.010001005053 -0.00041404028325 -0.00048537246801 -0.010015028339 
-7.4157288317e-05 1.22808017e-05 -0.010092283252 0 0 -0.0098744152677 0.0021871029599 0.00097145750499 -0.0096672943821 
0 0 -0.0098744152677 0.0012993113282 -0.00059143966516 -0.0087703241897 0 0 -0.0098744152677 
0 0 -0.0098744152677 0 0 -0.0098744152677 -0.00044799906919 -0.00042275070761 -0.0091533030541 
0 0 -0.0098744152677 -0.0017096259268 -0.0050940197445 -0.015165199305 -0.00015909551403 0.00010307798329 -0.0099905831213 
0.00041344766827 -6.2210253617e-05 -0.010149472287 0.00013329799328 1.1763931005e-05 -0.0099035773287 -0.0058227453159 -0.00065674705804 -0.012331522985 
-0.0052165985003 0.00088775847415 -0.008231533744 9.2819698959e-05 -0.0014147284821 -0.0092106991953 -0.00020963612353 -0.00011297878557 -0.0099634469416 
0 0 -0.0098744152677 -0.00066594764205 0.00062206367581 -0.0095223536026 0.0015382739506 -0.00054525538722 -0.0095810003291 
6.0008532201e-05 0.0071736633054 -0.01001977747 1.0969833067e-07 7.8146382478e-08 -0.0098744233965 -0.00052415851201 0.00077186359771 -0.0093460014713 
-9.0638997854e-05 0.00024706959663 -0.0097581360677 0 0 -0.0098744152677 0.0011896875057 0.00058041635112 -0.0080758630626 
-0.0013903139284 -0.0036027475793 -0.016046335905 0 0 -0.0098744152677 0 0 -0.0098744152677 
-0.00084280226091 -0.0015754661275 -0.01028374139 0 0 -0.0098744152677 -0.000837104718 -0.0018073846357 -0.0095694692894 
8.8122827029e-05 -2.2761233679e-05 -0.0098628315654 -0.0011922214838 0.00074928554846 -0.0097703245761 -0.00044642933062 -0.0028267697907 -0.011321011511 
-0.00097743804383 -7.743928644e-05 -0.0093796958742 0 0 -0.0098744152677 0.0011327558853 -7.5585159402e-05 -0.009137873753 
0 0 -0.0098744152677 0 0 -0.0098744152677 0.0085028599044 0.0034195405475 -0.011650925746 
-0.00026879551979 -0.0018697095706 -0.008802570859 0 0 -0.0098744152677 0 0 -0.0098744152677 
0 0 -0.0098744152677 0 0 -0.0098744152677 -1.1049931746e-06 -2.3827182275e-06 -0.0098670285065 
-3.5137343779e-05 0.00028744110074 -0.0096271872818 0 0 -0.0098744152677 0 0 -0.0098744152677 
0 0 -0.0098744152677 0 0 -0.0098744152677 0 0 -0.0098744152677 
0 0 -0.0098744152677 0 0 -0.0098744152677 5.327938739e-05 0.0024564456299 -0.0088348606854 
0 0 -0.0098744152677 0.0078780767236 -4.2229815858e-05 -0.0087260006502 0.0093820206837 0.0020292839926 -0.0052707118814 
0 0 -0.0098744152677 0 0 -0.0098744152677 0 0 -0.0098744152677 
0 0 -0.0098744152677 
radius 1 70 double
0.003 0.003 0.003 0.003 0.003 0.003 0.003 0.003 0.003 
0.003 0.003 0.003 0.003 0.003 0.003 0.003 0.003 0.003 
0.003 0.003 0.003 0.003 0.003 0.003 0.003 0.003 0.003 
0.003 0.003 0.003 0.003 0.003 0.003 0.003 0.003 0.003 
0.003 0.003 0.003 0.003 0.003 0.003 0.003 0.003 0.003 
0.003 0.003 0.003 0.003 0.003 0.003 0.003 0.003 0.003 
0.003 0.003 0.003 0.003 0.003 0.003 0.003 0.003 0.003 
0.003 0.003 0.003 0.003 0.003 0.003 0.003 
omega 3 70 double
-1.107832245 0.51508264249 1.6671031666 -1.3309348522 0.82231506249 1.8420892993 1.9550401521 1.1958540832 1.2513313427 
4.2759272277 0.59240208812 -1.89776631 -0.38005900866 -3.2516793064 -1.5116558839 1.0333025158 1.1366511333 -1.8208729805 
-1.6821621981 0.1710768913 3.667854286 -0.52252328276 3.4164565761 0.89265737157 0.95390546127 0.84181379675 -0.76896512799 
-1.9875360026 -1.6452306264 -0.032807795367 1.7907339471 -0.34680232072 -2.9852641429 -1.7151928338 0.49482323164 1.6256483938 
-2.0457514155 -2.3970852812 5.6355782639 -0.82068699606 1.0654745822 -0.14795956869 -2.8506116864 -0.76196967817 -1.8923208105 
0.13121288229 0.72100240948 1.9389708301 1.1262752894 -0.46334424141 -0.22000071796 1.3603132139 2.0098484421 -0.69839630165 
2.7093935328 -1.0302375391 0.36337389341 0.43913034068 -2.0224603991 3.4187476626 4.8402552088 0.95719295878 1.788425288 
2.0350089541 -2.9561353896 -0.84550460485 -1.1481893594 -0.68269555697 2.977574097 -1.6982556561 -1.4242682888 0.24578215681 
0.84554979712 0.5940799182 0.051405243596 -0.12486986738 0.68908554878 1.1188430418 -1.452009148 1.2249357864 0.95432495817 
-0.13682619613 0.28265990611 2.9927510108 -1.3158433541 2.7815564992 1.0513842932 -2.7230607543 1.3072809772 1.3525039439 
-1.0028612429 -0.52234887979 -2.6815594984 3.7362859754 3.6887858691 -6.5896902937 2.3545643569 0.5151814929 3.8294619678 
-2.6266867534 0.98797388 0.15558408223 -3.6157438901 0.81344480099 3.1887032235 -3.0469092559 2.3596689026 -0.92779606612 
-2.6434122559 0.57851578614 -0.75224235852 -5.802841188 -3.9515050168 -0.33903157836 3.8190444542 5.8886345759 7.8259417486 
8.9662449417 -7.2310893675 -0.26221382441 8.7725475645 2.4159997918 0.80301718444 6.6047881225 2.8598434628 2.3437056026 
3.3440056848 4.8680363419 4.403955069 -0.6305215913 -8.1356947396 4.0469707033 -5.0682988026 -1.136955198 -1.791298326 
-5.1126074262 -0.85861058546 -7.8149977643 2.2625754418 -4.2582319747 -6.6883106736 2.008594147 1.2101626822 -4.8486173409 
-3.2657098803 1.291778387 0.059457310284 -3.845422816 -2.990726737 1.9009671491 2.0314001863 -2.864372415 -1.5889067835 
7.0446327632 3.7637766656 -5.3225251201 4.5715107983 -0.35384132305 -2.2809922888 2.5813417914 12.773937935 9.974294982 
-1.5561008672 1.4450353566 0.68938261682 6.5512332316 -10.733958885 -5.0989407572 -14.314530405 -0.30686678259 -3.6171680964 
-3.0927270923 -0.97260086014 5.2161529444 -5.5493711007 -1.0954560532 -3.4805776137 5.3490275871 -0.30308039135 4.0256216391 
5.4644010022 5.5431786639 1.1483780091 -17.662069843 6.1360895779 8.5471336885 3.9218694695 5.1306071623 2.4408551574 
1.7848814146 -0.90339857186 -1.1307067016 0.33355077875 10.33497791 5.6782197842 0.38798531057 -5.2409047891 -0.34518859878 
8.1201883872 -14.210148012 2.7655586732 2.4656279875 -1.6895168768 -2.7434721695 4.6011126393 -2.2949476553 -0.54599546059 
9.3205995803 5.7127594648 16.625206171 
