# vtk DataFile Version 4.2
Generated by LIGGGHTS
ASCII
DATASET POLYDATA
POINTS 70 float
0.0114581 -0.0368894 0.00699838 -0.0237986 -0.0238458 0.00699828 -0.00516478 -0.0202765 0.00953845 
0.0278628 -0.0211398 0.0135785 0.0230261 -0.0153722 0.00699752 -0.0253441 -0.00911908 0.0113724 
-0.0187622 -0.00161635 0.0107676 -0.00540934 -0.000824611 0.0069993 0.0045111 -0.00742059 0.00934088 
0.0159819 -0.000463851 0.0109253 0.0119743 0.00781084 0.0069976 0.0247776 0.00517861 0.00975104 
-0.0327818 0.0126216 0.00699878 -0.0248283 0.0178785 0.0100133 -0.000589488 0.0181855 0.0102347 
0.00562292 0.011265 0.0139045 -0.0125072 0.0218876 0.00749382 0.00288389 0.0293428 0.00699795 
0.0229398 0.0220761 0.0070533 -0.000836415 -0.0222524 0.0217332 0.0205449 -0.00875754 0.0144138 
-0.00820969 0.00387825 0.0164056 -0.0114136 0.0133337 0.0169576 0.0101142 0.0160929 0.0215669 
0.0225476 0.010684 0.0232497 0.0057422 0.0299437 0.0204631 -0.0141535 -0.0327213 0.0297117 
-0.000932095 -0.0397253 0.0283781 -0.00426073 -0.0305304 0.0304676 -0.0203286 -0.0203268 0.0274441 
-0.00721645 -0.018164 0.0282577 0.00504079 -0.0176016 0.0283518 0.019833 -0.0173874 0.0279802 
0.0294059 -0.0112395 0.0311967 -0.00674141 -0.00769605 0.0261014 0.0291985 -0.00143261 0.0292522 
-0.0127277 0.00477301 0.0347275 -0.00474817 0.00179301 0.0286245 0.0109787 0.0038892 0.0330456 
-0.012138 0.0145033 0.032501 0.0040476 0.0289293 0.0322747 0.0115002 0.0244725 0.0273158 
0.0295522 0.021592 0.0316808 0.00282281 -0.0325029 0.0374722 -0.0125618 -0.0252659 0.0410811 
0.0107596 -0.0251496 0.041906 -0.0216844 -0.0136966 0.0449292 0.00295226 -0.0199709 0.0378388 
0.0380504 -0.0114132 0.036744 -0.0161152 -0.00371844 0.0393055 -0.000240087 -0.00253142 0.0366106 
0.0163072 -0.000789571 0.0443757 0.0206867 -0.00931641 0.0414084 -0.0315248 0.00143338 0.0398353 
-0.0193531 0.0218709 0.0395089 -0.006833 0.0267618 0.0404402 0.0116872 0.0258019 0.0379173 
-0.0090512 -0.0234547 0.0502674 0.020305 -0.0299045 0.0510236 -0.033638 -0.0136575 0.0531292 
0.0289081 -0.0133596 0.0475458 -0.0282449 -0.001882 0.0510298 -0.00557575 -0.00708143 0.0460092 
-0.0208779 0.00686567 0.0466713 -0.0126155 0.00283972 0.0506102 -0.0020702 0.00309101 0.0460998 
0.00615957 0.000137387 0.051779 0.0273787 0.00968743 0.0508261 -0.00966207 0.0205185 0.0524101 
4.56629e-05 0.0204071 0.0471149 
VERTICES 70 140
1 0 
1 1 
1 2 
1 3 
1 4 
1 5 
1 6 
1 7 
1 8 
1 9 
1 10 
1 11 
1 12 
1 13 
1 14 
1 15 
1 16 
1 17 
1 18 
1 19 
1 20 
1 21 
1 22 
1 23 
1 24 
1 25 
1 26 
1 27 
1 28 
1 29 
1 30 
1 31 
1 32 
1 33 
1 34 
1 35 
1 36 
1 37 
1 38 
1 39 
1 40 
1 41 
1 42 
1 43 
1 44 
1 45 
1 46 
1 47 
1 48 
1 49 
1 50 
1 51 
1 52 
1 53 
1 54 
1 55 
1 56 
1 57 
1 58 
1 59 
1 60 
1 61 
1 62 
1 63 
1 64 
1 65 
1 66 
1 67 
1 68 
1 69 

POINT_DATA 70
FIELD FieldData 7
id 1 70 int
44 732 1464 837 912 1986 1606 936 895 
1371 663 720 467 208 1438 1782 385 1157 
595 2267 398 2166 1751 2117 2149 1929 2782 
2509 2454 2873 2996 2710 2790 3102 2640 2566 
3057 2252 3510 3206 3209 3228 3475 3932 4179 
4006 4181 3841 3364 4052 3265 4362 4280 3857 
3770 3909 3724 5377 4989 4708 4482 5353 5397 
4796 5509 5103 5420 5050 5402 4610 
type 1 70 int
2 2 2 2 2 2 2 2 2 
2 2 2 2 2 2 2 2 2 
2 2 2 2 2 2 2 2 2 
2 2 2 2 2 2 2 2 2 
2 2 2 2 2 2 2 2 2 
2 2 2 2 2 2 2 2 2 
2 2 2 2 2 2 2 2 2 
2 2 2 2 2 2 2 
i 3 70 int
0 0 0 0 0 0 0 0 0 
0 0 0 0 0 0 0 0 0 
0 0 0 0 0 0 0 0 0 
0 0 0 0 0 0 0 0 0 
0 0 0 0 0 0 0 0 0 
0 0 0 0 0 0 0 0 0 
0 0 0 0 0 0 0 0 0 
0 0 0 0 0 0 0 0 0 
0 0 0 0 0 0 0 0 0 
0 0 0 0 0 0 0 0 0 
0 0 0 0 0 0 0 0 0 
0 0 0 0 0 0 0 0 0 
0 0 0 0 0 0 0 0 0 
0 0 0 0 0 0 0 0 0 
0 0 0 0 0 0 0 0 0 
0 0 0 0 0 0 0 0 0 
0 0 0 0 0 0 0 0 0 
0 0 0 0 0 0 0 0 0 
0 0 0 0 0 0 0 0 0 
0 0 0 0 0 0 0 0 0 
0 0 0 0 0 0 0 0 0 
0 0 0 0 0 0 0 0 0 
0 0 0 0 0 0 0 0 0 
0 0 0 
v 3 70 double
-3.4005486778e-07 3.1513950623e-07 1.2334261439e-07 8.9210932788e-08 1.6103333183e-07 -1.1815395463e-07 -7.2717376947e-08 -1.3498634489e-07 -2.0104163837e-07 
1.0609088276e-07 -6.4939766659e-08 -9.851054459e-07 5.2999836508e-07 2.0736767443e-08 -3.0532713466e-07 -9.544653776e-08 -1.3974055378e-07 -2.775905598e-07 
-6.0166389472e-08 6.4360753639e-08 -1.5760520361e-08 3.7692741365e-07 -2.9097530734e-07 -6.9921381931e-07 -1.0556769354e-06 -9.7280937657e-07 8.4610824626e-07 
-3.4778447422e-07 -6.7888534297e-08 2.9242588384e-07 1.7417019694e-07 -8.9410138885e-08 -1.5458839393e-07 4.7341931183e-07 -2.6589545021e-07 1.6083096623e-06 
-3.2457502872e-07 -1.5001213497e-06 1.0244507233e-06 7.3340945488e-07 -3.7894080633e-07 -1.2064512465e-06 -9.0597867993e-08 -2.774863599e-07 1.3525230419e-07 
-1.263445354e-07 9.384591987e-08 -1.7267458035e-07 -1.3951131499e-06 -1.9727148056e-07 2.1985647685e-06 6.1636434577e-07 -1.0179485092e-07 -4.0224929214e-07 
1.2775044101e-07 -5.4110019391e-07 -8.6808281914e-07 -6.1016735568e-08 -2.5193510813e-07 1.0442072124e-07 5.1696723795e-07 -1.6388762323e-07 1.1582505049e-07 
-3.7527973581e-08 -1.3474989587e-07 -1.3439240976e-07 3.2935973499e-08 6.8058556473e-07 2.5987814146e-07 2.7504982847e-07 -4.0788515406e-08 -1.5955192316e-07 
3.1859252613e-07 -3.2624476043e-07 2.078298708e-07 -1.3360401483e-08 -1.7384557276e-08 1.8064181226e-07 -2.0952684451e-07 2.3861700342e-08 -4.3774265891e-08 
-1.0113542647e-08 1.985692132e-07 -5.3550923784e-09 -5.9062426354e-08 -2.1815102401e-08 1.3470746407e-07 4.3285837041e-07 -1.2724640749e-07 -2.4510880648e-07 
-1.4460589739e-07 2.3681152454e-07 2.7430224824e-07 7.2394775728e-07 2.4234235967e-07 2.6204987013e-07 1.1215892818e-06 -7.4579158834e-08 -5.1041596843e-07 
-9.3551343606e-07 4.8697812479e-07 -1.0847285488e-08 -3.8952244317e-07 8.8226591762e-08 3.5722937167e-08 1.0503030984e-07 -3.4867567025e-07 -1.3480000034e-07 
-4.2875613609e-08 -1.0372620439e-07 -6.4210082633e-09 1.5017997721e-07 -1.5289209897e-07 -4.8784440497e-07 1.9924329543e-07 -9.8227019716e-08 -5.1870585051e-08 
3.1518841638e-07 -3.7083492135e-07 5.7443487616e-07 2.763102581e-08 -3.8794478675e-09 2.8260529296e-08 3.3402410239e-07 -4.7205680328e-07 8.2006535864e-08 
7.1040023003e-08 -5.1700167317e-08 -6.6765247541e-09 1.1821234225e-07 -7.1913670142e-08 6.4569251883e-08 4.7006977867e-07 2.7642887982e-07 2.1857088695e-08 
2.8725714256e-07 -9.6017034451e-08 1.3941078849e-07 2.160672869e-07 1.2698167805e-07 -4.586256324e-08 -7.0684247734e-07 4.972141683e-08 2.4653791843e-07 
-1.4010490747e-07 -1.9375226702e-07 -4.9817983346e-07 6.3711162678e-08 -2.7325419052e-07 -7.5453229967e-08 1.3625820792e-07 5.9813111393e-08 -1.6566368909e-08 
1.1577223137e-07 -1.3191948411e-07 -3.7736530928e-08 1.2030634872e-07 -1.44011438e-08 -2.3244582992e-08 -9.1277303195e-08 1.1588599055e-07 -2.5514863227e-09 
-6.4801950584e-07 4.1316115075e-07 -1.233068235e-06 -3.7385821611e-07 1.2308595357e-07 -2.1159443184e-07 -4.4576595701e-08 1.994941587e-07 7.9919597793e-08 
2.6470102225e-07 -5.9579034465e-08 6.2002158389e-08 2.0157884217e-07 8.5196371529e-08 -5.212363172e-08 3.8370469131e-08 -5.4467568058e-08 7.4491599911e-08 
1.2273342863e-07 -5.3992521156e-08 -9.096395589e-08 -8.5059447342e-08 2.8010840006e-07 9.0703971527e-08 1.3603351707e-07 2.6547469317e-07 -2.6494233688e-08 
2.1254230581e-08 -1.2227350585e-07 -7.9963115594e-08 5.9649301057e-08 -7.4899190816e-08 -1.7954546888e-07 -1.2767340078e-07 -1.5654726458e-07 1.2323126839e-07 
-2.5540110835e-08 8.3552499834e-08 3.9849266956e-08 -2.4779427784e-08 -2.1727410477e-09 9.2283837824e-08 2.8399848062e-07 -9.2003006571e-08 4.2462118173e-07 
1.1819294973e-07 -1.0458107932e-07 -1.1765024391e-08 
f 3 70 double
-0.00018757538275 4.3841693558e-05 6.2798441778e-05 0.00028498881144 0.00025735270765 0.00027012969033 8.3231669099e-05 -3.6568530462e-05 -0.00030803157744 
-9.6045077609e-05 5.1369291477e-05 0.00031005564495 4.198854924e-05 -3.9838008283e-05 0.0001242851436 9.3406759336e-05 0.00013401241928 -8.1426035095e-05 
-0.0001352338098 4.9384998585e-05 0.00017535825274 7.3142016163e-05 -0.00013590776322 -0.00020625387523 -9.3972423413e-05 5.0315491559e-05 -0.00069774570239 
0.00041036160964 -1.5135559845e-05 8.7427941213e-05 6.9436265375e-06 0.00028954228129 -9.3272548806e-05 2.9196375513e-05 -0.00024300494192 -0.0001450183468 
-0.00011768966207 7.4855019e-05 -0.00012474843227 -0.00014812396413 0.00020374966982 -0.00032307111284 0.00017057078567 -0.00028179799927 0.00013636085707 
0.00029234060924 0.00011902175319 -4.7568347659e-05 0.00032761992767 -0.0006557304403 0.00035692730214 0.00064646864238 0.00014512122368 2.7366147951e-05 
-0.00010025502835 -0.00030553294582 -0.00048960640396 -1.5909132753e-05 -0.00015979868109 -0.00011223993751 -0.00021226335985 -0.00035765723282 8.8026088473e-05 
-3.4951490757e-05 0.00040159465036 -0.00021207936703 0.00019485125757 -5.3523781319e-05 -0.00018712227246 -0.00028087553823 4.2911321911e-05 -9.2733183648e-05 
-4.0914576697e-05 -0.0002134272863 -3.4308408932e-06 -8.3074333904e-05 -0.00028395424862 7.3747651385e-05 4.5726450916e-05 -9.310690002e-05 6.8406417334e-05 
-4.2978772302e-05 2.1629574357e-05 -0.00013289922606 -7.042759321e-05 1.257736764e-05 -5.6010565476e-05 0.00018703153547 -0.00014271866897 -1.0596671981e-05 
-0.00010048682662 -8.8951441388e-05 -1.8037873694e-07 3.505405853e-05 0.00014938452834 3.1979966368e-05 -0.00018134850419 -2.6610785042e-06 -0.00016778364843 
-1.8497237014e-05 -0.00013248444412 -0.0001500162716 -3.2137121596e-05 -1.2605050671e-05 2.7185893563e-05 3.5942427076e-05 -1.6490025166e-06 8.6817337484e-06 
-0.00028972272922 -5.9537853786e-05 -2.8333053439e-05 0.00017367523323 0.00025030292011 0.00015798348671 1.3094369747e-05 -2.1196877829e-05 -8.5556417778e-05 
-5.0411496416e-05 -0.00011829439541 4.3034587566e-05 5.8392985498e-05 2.0276003733e-05 -1.2724750974e-05 0.00017516184283 -6.7639426249e-05 2.5735620948e-05 
8.9833789264e-05 6.6442265614e-05 -3.401837745e-05 1.4149903404e-05 1.3796436988e-05 -3.1979715828e-05 -7.3445802265e-05 -3.8110519085e-06 -6.5180874998e-05 
-4.2337249634e-05 4.7675832177e-05 1.9577422489e-05 3.5917005046e-05 3.1671883945e-05 -4.0386111605e-05 8.2749064594e-06 -4.6463875523e-06 2.8949599124e-05 
9.8568229883e-06 -0.00013687644195 -9.0862623288e-05 4.1844764891e-06 -0.00012558862273 2.6176043135e-05 5.5100542401e-05 6.2415254145e-05 1.3735629618e-05 
7.6334669731e-06 1.4865527034e-06 1.1378212588e-05 -7.2955525621e-05 6.7093210577e-05 5.8400357113e-05 3.6673906047e-07 7.5954393053e-05 4.1031409689e-05 
-7.6667175348e-07 2.7603799899e-06 6.630917686e-05 -4.6795588193e-05 3.0161911402e-05 7.5040150876e-05 -1.309885642e-05 3.5565775839e-05 -3.9162436003e-05 
2.8931171848e-05 -7.4835275668e-07 7.631907764e-06 -1.1243562441e-05 -1.94666528e-05 3.0570853186e-06 7.2779193545e-05 9.7154552745e-06 6.8232840534e-06 
-8.3079656718e-06 -2.015632768e-05 6.1126757982e-05 1.5677422247e-06 -3.4515040976e-05 4.438055602e-06 2.9968563607e-06 -1.4815274223e-05 -7.9146080469e-05 
-7.5619376467e-05 5.5999402706e-05 2.884878807e-05 3.9648399244e-06 -7.8848294864e-06 2.4555597863e-05 -4.9245921394e-06 -3.4405207526e-05 5.457977349e-05 
-4.4648868551e-05 -5.260380617e-05 -2.2354983016e-05 -7.2583141561e-05 -6.9136741962e-06 -2.0885356383e-05 -1.2486719661e-05 -4.3558710235e-05 3.3998371609e-07 
2.6173467473e-05 -4.9213469115e-06 1.8264880154e-05 
radius 1 70 double
0.005 0.005 0.005 0.005 0.005 0.005 0.005 0.005 0.005 
0.005 0.005 0.005 0.005 0.005 0.005 0.005 0.005 0.005 
0.005 0.005 0.005 0.005 0.005 0.005 0.005 0.005 0.005 
0.005 0.005 0.005 0.005 0.005 0.005 0.005 0.005 0.005 
0.005 0.005 0.005 0.005 0.005 0.005 0.005 0.005 0.005 
0.005 0.005 0.005 0.005 0.005 0.005 0.005 0.005 0.005 
0.005 0.005 0.005 0.005 0.005 0.005 0.005 0.005 0.005 
0.005 0.005 0.005 0.005 0.005 0.005 0.005 
omega 3 70 double
-0.00021418630051 6.5860465432e-05 0.0001740428644 -3.4137980064e-05 2.2859555193e-05 1.7169508725e-05 4.1014969089e-05 -3.7287970702e-05 1.7784506916e-05 
-2.3285537022e-05 -1.4811633927e-05 1.9478470681e-05 -5.5888736585e-05 0.00041176824382 -0.00013328059073 5.3092041741e-06 1.8526372547e-05 -4.1752386071e-05 
2.0407580264e-06 -2.8611815673e-05 4.0870610747e-05 7.2172505952e-05 -0.00016971349222 0.00012770250213 0.00080554870691 -0.0010433827542 -0.00017207981021 
7.1440887024e-05 -0.00029483679422 -0.00010974120625 1.9016733142e-05 -2.6791983155e-05 -0.00028255445732 -0.00070265836166 -0.00012096470716 0.00028128705771 
0.00051294399835 -0.00048865893811 -0.00032495907395 0.00074917324318 -0.00029194034152 -0.00030639834867 0.00016705295105 4.1426297578e-05 0.0001759818168 
6.8514008539e-05 -9.7451039434e-05 6.7573184258e-06 -3.4974591835e-05 0.00074992256981 9.5552987492e-06 -4.921394344e-05 -9.3964364586e-06 -0.00035431067209 
-0.00039873625147 1.2400920547e-05 -0.0001509912209 4.3827407039e-05 -3.2036160633e-05 -2.2437349178e-06 -0.00019446593461 2.0336341331e-05 -0.00060243090135 
7.8582901153e-05 5.3339242555e-05 0.00016409220211 2.3945466128e-06 -6.9928174274e-05 0.00016734548712 -4.3776321083e-05 -0.00011798791879 -3.2393703988e-05 
-3.1936163443e-05 2.8022052251e-05 -5.8240187588e-06 -0.00018538167443 -1.9828296111e-05 1.3371900465e-05 -1.2282127925e-05 -8.9489215607e-05 3.2187858938e-06 
-2.2997185663e-07 2.6554384847e-05 1.3210170391e-05 -2.6537246317e-05 2.7011027197e-05 -3.331625509e-05 2.7466710541e-05 3.5155096422e-05 -0.00014192061033 
1.9858590182e-06 6.1305357564e-05 -6.8661822581e-07 0.00011131565235 -0.00023922205648 6.4386674033e-05 -0.00014089405919 -8.4788027774e-05 -0.00010982076335 
7.2392409171e-05 0.00047775521068 -0.0001737272241 2.4052183682e-05 -3.4729182667e-05 1.3240655068e-05 0.00017347152675 4.131767301e-05 4.524043372e-05 
2.8657988482e-06 4.4921397827e-05 -2.1030007761e-05 3.1505589743e-05 1.8732859171e-06 -8.0856445082e-06 -8.9466522884e-06 -7.3660073168e-05 -3.2346386741e-05 
8.4635102573e-05 0.00012011212115 -5.057706101e-05 1.2432736161e-05 9.0307104939e-06 3.7834843197e-05 -0.00017248137815 3.4230351923e-06 6.5321430837e-05 
-7.8774814451e-05 -8.1325790402e-05 9.6130644526e-05 6.0217641242e-06 8.288107039e-06 -7.4396546401e-05 2.8617211624e-05 9.2784149467e-06 -7.2249272329e-05 
8.5443849056e-06 -1.029254343e-05 -6.562154033e-05 4.3979866711e-05 2.1131127842e-05 -2.1813215665e-05 6.7515844754e-05 -3.9483356081e-05 1.2044699558e-05 
-0.0001974612347 -6.2483803321e-05 0.00012826612541 -1.0908766116e-05 -3.763977632e-05 -0.00011460352558 -0.00014781429222 -2.3464161255e-05 -9.1472245024e-05 
-1.0316582942e-05 1.7909762717e-05 -1.2782148496e-05 -3.1591822924e-06 -2.9078942552e-05 -6.3451478666e-06 0.00014825485403 -1.4705461028e-05 -0.00017925342901 
-0.00022713124539 0.00013456971251 1.118986237e-05 -7.6471927965e-05 -0.00022959903629 -0.00014520676428 -3.9695857906e-05 6.2214272222e-05 3.9979312644e-05 
5.7650849203e-05 1.6610010494e-05 -5.963154831e-05 1.0764333923e-05 3.0051342795e-05 4.4617379686e-06 -2.3305600927e-05 -2.518480373e-05 -0.00010623521341 
-1.5329542664e-05 -1.7227176881e-05 -3.9377866412e-05 4.6974063265e-05 -5.2166244739e-05 -1.810138329e-05 -2.511003738e-06 -8.67631256e-05 -1.8228749083e-05 
7.1942491537e-05 6.4532173523e-05 6.0690868764e-05 -2.0835984827e-05 -2.8279172129e-05 8.2603314847e-06 -9.0485088202e-05 2.7650397913e-05 -4.4342844297e-06 
-2.964584111e-05 -1.0640889854e-05 2.4483237053e-05 2.8290859325e-05 -1.864794276e-05 3.3684321967e-06 -2.2052143013e-06 -0.00018589336652 -4.5942851151e-05 
1.3236348741e-05 -4.9462717776e-05 2.2385163581e-05 
