# vtk DataFile Version 4.2
Generated by LIGGGHTS
ASCII
DATASET POLYDATA
POINTS 70 float
-0.00365999 -0.0176364 0.0106528 -0.0144012 -0.0110992 0.00847941 0.00131519 -0.0124265 0.00707943 
0.0131708 -0.0146847 0.00930912 -0.0103399 -0.00556095 0.0114321 -0.00174695 -0.00558687 0.0103019 
0.0127547 -0.00409999 0.00956981 -0.00960677 0.000497919 0.0102414 0.00887845 0.000684726 0.0109723 
0.00077826 0.0192093 0.00971261 -0.0134777 -0.0172206 0.0125433 -0.00753179 -0.0106032 0.0132227 
-0.00367125 -0.0150509 0.0174242 0.00382503 -0.0163329 0.0152029 0.0178286 -0.0123821 0.0155455 
-0.0199757 -0.00278786 0.0158595 -0.0147342 -0.0067951 0.0184646 0.00511979 -0.00725335 0.0138776 
0.0123657 -0.00406217 0.017819 0.0206945 -0.00567076 0.0119761 -0.0133808 0.00296707 0.0189471 
0.00151167 0.00109707 0.0163374 0.018459 0.000571314 0.0173644 -0.0147491 0.0132918 0.0125588 
-0.011069 0.014627 0.0197048 -0.00800059 0.0086661 0.0156402 -0.00340816 0.0122611 0.0142292 
0.00236045 0.0136177 0.0151814 0.011498 0.0120793 0.014562 -0.00663953 0.0200934 0.0121139 
0.00537938 0.0201995 0.0166747 0.012115 0.0178768 0.0131376 -0.00825 -0.018999 0.0196672 
-0.00203216 -0.0187197 0.0248282 0.00648646 -0.0184904 0.0255899 0.0131593 -0.0170696 0.0221026 
-0.0162967 -0.0145754 0.020046 -0.0108573 -0.0146149 0.0254266 0.00782211 -0.00880838 0.0221019 
0.00181077 -0.0120097 0.0221022 0.0127407 -0.010792 0.0255664 0.0200651 -0.00877115 0.0247385 
-0.0204306 -0.00743484 0.0210544 -0.0150094 -0.00460521 0.0268812 -0.00636048 -0.00784782 0.0230118 
-0.00012572 -0.00321997 0.0217059 -0.0080274 7.37927e-05 0.0243907 0.00671058 -0.00074092 0.0256808 
0.000748459 0.00696173 0.0232889 0.0142313 0.00524343 0.0242651 0.021538 0.00416325 0.0215333 
-0.0175528 0.00997717 0.026634 -0.00863059 0.0119352 0.0245974 0.00378037 0.0133294 0.0240437 
-0.00292706 0.0184203 0.0201952 -0.0080201 0.0204062 0.0275152 0.00313454 0.0216342 0.0238138 
0.00946881 0.018024 0.0252883 -0.0179258 -0.0107258 0.0285755 -0.0121198 -0.000178795 0.0317068 
0.01496 -0.00193583 0.0278556 -0.0126106 0.0080905 0.0296439 -0.00591411 0.0078134 0.0306026 
-0.00174216 0.00284557 0.0306199 0.0076765 0.00550889 0.0285085 0.0216621 0.00125978 0.0288392 
-0.0141992 0.0159815 0.0318369 -0.00237778 0.0146766 0.030385 0.00631229 0.0129186 0.0317298 
0.0122471 0.0134943 0.0303395 
VERTICES 70 140
1 0 
1 1 
1 2 
1 3 
1 4 
1 5 
1 6 
1 7 
1 8 
1 9 
1 10 
1 11 
1 12 
1 13 
1 14 
1 15 
1 16 
1 17 
1 18 
1 19 
1 20 
1 21 
1 22 
1 23 
1 24 
1 25 
1 26 
1 27 
1 28 
1 29 
1 30 
1 31 
1 32 
1 33 
1 34 
1 35 
1 36 
1 37 
1 38 
1 39 
1 40 
1 41 
1 42 
1 43 
1 44 
1 45 
1 46 
1 47 
1 48 
1 49 
1 50 
1 51 
1 52 
1 53 
1 54 
1 55 
1 56 
1 57 
1 58 
1 59 
1 60 
1 61 
1 62 
1 63 
1 64 
1 65 
1 66 
1 67 
1 68 
1 69 

POINT_DATA 70
FIELD FieldData 7
id 1 70 int
2889 209 1943 1477 5388 842 5547 3959 2526 
2282 3867 736 1762 3500 2268 3230 3295 4035 
5417 596 724 2582 4085 3233 3076 385 2182 
5080 4507 468 4318 44 5432 3936 5455 1999 
2801 3250 3532 2163 2469 2726 3793 4394 1617 
942 3387 2813 901 2132 914 4832 5141 1380 
1446 4735 1796 4213 3015 665 3755 5024 4635 
3117 5438 2654 4210 398 1166 3884 
type 1 70 int
2 2 2 2 2 2 2 2 2 
2 2 2 2 2 2 2 2 2 
2 2 2 2 2 2 2 2 2 
2 2 2 2 2 2 2 2 2 
2 2 2 2 2 2 2 2 2 
2 2 2 2 2 2 2 2 2 
2 2 2 2 2 2 2 2 2 
2 2 2 2 2 2 2 
i 3 70 int
0 0 0 0 0 0 0 0 0 
0 0 0 0 0 0 0 0 0 
0 0 0 0 0 0 0 0 0 
0 0 0 0 0 0 0 0 0 
0 0 0 0 0 0 0 0 0 
0 0 0 0 0 0 0 0 0 
0 0 0 0 0 0 0 0 0 
0 0 0 0 0 0 0 0 0 
0 0 0 0 0 0 0 0 0 
0 0 0 0 0 0 0 0 0 
0 0 0 0 0 0 0 0 0 
0 0 0 0 0 0 0 0 0 
0 0 0 0 0 0 0 0 0 
0 0 0 0 0 0 0 0 0 
0 0 0 0 0 0 0 0 0 
0 0 0 0 0 0 0 0 0 
0 0 0 0 0 0 0 0 0 
0 0 0 0 0 0 0 0 0 
0 0 0 0 0 0 0 0 0 
0 0 0 0 0 0 0 0 0 
0 0 0 0 0 0 0 0 0 
0 0 0 0 0 0 0 0 0 
0 0 0 0 0 0 0 0 0 
0 0 0 
v 3 70 double
-0.028074444805 0.017334588559 -0.43987127367 -0.043995950511 0.053072929648 -0.41493787559 -0.01426649828 0.032786030519 -0.42140704667 
0.025672188917 0.030105458033 -0.44773624959 -0.024325904154 0.04347164516 -0.40608274164 -0.017056563866 0.036316704876 -0.41670803994 
0.014280761866 0.049748557349 -0.40861346769 -0.0082121223313 0.040596702127 -0.39523046242 -0.0027374961664 0.044443481952 -0.40564952986 
-0.0018283354602 0.0084531819671 -0.3847493692 -0.053018362606 0.036521919528 -0.43012228365 -0.028388186181 0.029631447565 -0.43099964186 
-0.020404564381 0.019521547389 -0.45900551229 -0.0025788011615 0.012137234089 -0.45588621101 0.033776726937 0.039255189638 -0.44942742422 
-0.02020902829 0.069797869779 -0.40352502789 -0.027842403507 0.054366828765 -0.40812835421 0.0024761215937 0.032812837133 -0.44396366742 
0.016136387841 0.043943308509 -0.41995944828 0.027557673962 0.073970848035 -0.40687336624 -0.010020584263 0.047010902203 -0.38070628303 
-0.0021516544085 0.040193392302 -0.40473495657 0.0073836669805 0.059705603088 -0.39036656619 0.016913968258 0.048542311495 -0.37527312806 
0.0044717604176 0.030908264429 -0.34560999873 -0.015038914969 0.02837931503 -0.36968568397 -0.011086064701 0.021002631436 -0.37251194212 
-0.0096261311206 0.015510893656 -0.3660986799 -0.019935298463 0.031173688494 -0.38669870172 -0.00044380832963 0.0069018559447 -0.36837290902 
-0.02255640916 0.017493823843 -0.34984852675 -0.029641828198 0.035027816259 -0.37917405949 -0.031891413087 0.01929444282 -0.46274147021 
0.0067450491424 0.025146020911 -0.48948502769 0.012522009267 0.013726781787 -0.50282108996 0.030580560145 0.023061618679 -0.47166271678 
-0.042761654993 0.052710841582 -0.43581503847 -0.027877254 0.033798447055 -0.46556397774 -0.00093063465917 0.034034993156 -0.46169407825 
-0.0011086449646 0.038221019014 -0.47923158947 0.013074557555 0.03162972763 -0.46949930564 0.012347900241 0.049764734032 -0.43368372356 
-0.022407086879 0.070384554428 -0.40226710069 -0.025541229952 0.07172712166 -0.39962064317 -0.027249856884 0.050696881978 -0.44694182711 
-0.0072805735806 0.045488286129 -0.41532033428 -0.0082902133478 0.056689468315 -0.39167900574 0.0077357020947 0.067058820661 -0.42368826761 
-0.010958173304 0.034657278763 -0.36024989052 -0.0092841129694 0.060292832362 -0.37504565946 -0.009123321887 0.066484164684 -0.38012725379 
0.021422882901 0.044667675356 -0.32254204939 0.0080390493278 0.039007765651 -0.33406091412 -0.007518375441 0.018545668535 -0.34292367243 
-0.010798550849 0.002969898455 -0.34801523271 0.0082331530235 3.9643934814e-05 -0.29122639691 -0.021785813917 0.0014840854448 -0.32949949659 
-0.013693750371 0.015991677385 -0.32735101701 -0.025389144454 0.049196476936 -0.42674559511 -0.025597096697 0.084617772331 -0.38271882728 
0.015901101786 0.042296155697 -0.41067124202 0.00087992957512 0.042715075573 -0.32191884774 -0.005977977159 0.065095529178 -0.3232910369 
0.020801305435 0.072203484656 -0.37139596966 -0.0067700921232 0.070366887713 -0.37141997091 0.00068089579024 0.074353833661 -0.38103781906 
0.021780962215 0.035022715831 -0.2699284352 0.012897445128 0.043969499989 -0.29430594398 -0.010231316211 0.066965012961 -0.31104393994 
-0.023762214088 0.041260604475 -0.30309463046 
f 3 70 double
0.00055092554866 -0.00077098009694 -0.0095006942794 0.0012303125189 0.00044035366369 -0.010068555224 0 0 -0.0098744152677 
0 0 -0.0098744152677 0.00023442664723 -0.0006257379753 -0.0099356847189 0 0 -0.0098744152677 
6.9619010273e-07 -5.5159843235e-06 -0.0098775194809 -4.5655322667e-05 3.8006032229e-05 -0.010232434931 0 0 -0.0098744152677 
-0.0005347185507 -1.8188375178e-05 -0.010341804472 0 0 -0.0098744152677 0 0 -0.0098744152677 
0 0 -0.0098744152677 0 0 -0.0098744152677 0 0 -0.0098744152677 
-5.9922116587e-05 -0.00034042756506 -0.0096588303016 0.00026260475232 -0.0005533813588 -0.0081687077007 0 0 -0.0098744152677 
0 0 -0.0098744152677 -0.00050715083964 -0.00020357297511 -0.010423956225 0.00053111828399 -0.00018832183247 -0.0097499532555 
0 0 -0.0098744152677 -0.0026083466913 0.0013373040175 -0.011122718832 -0.0010678901768 0.0016739375854 -0.010291096185 
8.8482930156e-05 7.8091911985e-05 -0.0098562690029 0.00010159758909 9.6503974509e-05 -0.0098902187686 -8.6241370052e-05 -0.00048997824393 -0.0098218039852 
-8.2513479411e-05 -0.00015199632942 -0.0099045519937 0.00071475152842 -0.0001125697494 -0.009939929738 0.0014947829942 0.00097748399811 -0.010279442258 
-0.0003152718906 -0.00010562561961 -0.009811565892 0.0004065823887 -0.0022458864379 -0.0080523384229 0 0 -0.0098744152677 
0 0 -0.0098744152677 -0.0010307114151 -0.0004299283862 -0.0075471459501 0 0 -0.0098744152677 
0 0 -0.0098744152677 0 0 -0.0098744152677 0 0 -0.0098744152677 
0 0 -0.0098744152677 0 0 -0.0098744152677 0 0 -0.0098744152677 
0.00055264815024 -0.0010353103506 -0.0093764756974 0 0 -0.0098744152677 0 0 -0.0098744152677 
-2.6388267931e-05 -2.3415063247e-05 -0.0098628616977 -0.00012029095446 -0.00070469109891 -0.0096581437152 0 0 -0.0098744152677 
-0.0002479994816 -0.0023688788783 -0.010160882509 -0.0012901226059 -0.0016532063483 -0.0093525203806 0 0 -0.0098744152677 
0 0 -0.0098744152677 -0.00031391746053 -0.00067926785811 -0.009509021677 -0.0007109488537 -9.2232568559e-05 -0.015742833543 
-0.0018765155537 0.00061109777314 -0.010056478179 0 0 -0.0098744152677 -0.0020202897224 0.0020685951681 -0.0088399137808 
0.00082835187965 -0.00088108744882 -0.0088631097194 0 0 -0.0098744152677 0 0 -0.0098744152677 
0 0 -0.0098744152677 0 0 -0.0098744152677 0 0 -0.0098744152677 
0 0 -0.0098744152677 0 0 -0.0098744152677 0 0 -0.0098744152677 
0 0 -0.0098744152677 0 0 -0.0098744152677 0.0042612921391 -0.0024837562533 -0.0096637430199 
0 0 -0.0098744152677 
radius 1 70 double
0.003 0.003 0.003 0.003 0.003 0.003 0.003 0.003 0.003 
0.003 0.003 0.003 0.003 0.003 0.003 0.003 0.003 0.003 
0.003 0.003 0.003 0.003 0.003 0.003 0.003 0.003 0.003 
0.003 0.003 0.003 0.003 0.003 0.003 0.003 0.003 0.003 
0.003 0.003 0.003 0.003 0.003 0.003 0.003 0.003 0.003 
0.003 0.003 0.003 0.003 0.003 0.003 0.003 0.003 0.003 
0.003 0.003 0.003 0.003 0.003 0.003 0.003 0.003 0.003 
0.003 0.003 0.003 0.003 0.003 0.003 0.003 
omega 3 70 double
0.21262927949 6.0130605026 -3.9733774875 1.6853099687 0.59151067276 -2.882845317 2.95159201 7.115089655 0.86199481775 
1.31193179 -2.0245014314 -0.79950213457 2.7504752651 1.8572484985 -2.3942760175 -0.49865286753 0.1738449293 0.0059645148043 
-0.38958703711 -1.0167349952 1.9807267968 1.0705184328 -0.25564782848 -2.5541385098 0.31241713023 1.462363912 2.6626092389 
0.7510284844 -0.74248110577 0.33734061467 2.0396516237 0.48486463743 -2.093761858 3.7667326739 4.1070520878 -3.0487656717 
0.97848150866 -3.3888982003 -1.4307380054 0.24229439892 -0.48783109305 -0.85216605227 2.4866133037 -1.6983343986 3.512904887 
1.1251389929 1.6985884679 -3.6530257289 0.10910786083 0.27876483072 -2.7281544962 2.8895804053 1.1500709586 -2.7410337447 
2.4374995926 -1.2550278769 0.35283252414 0.32996107606 -1.114515232 2.8914942437 0.75594647506 0.70577392406 0.5309326554 
3.2207148161 -0.18024620766 0.5019406817 0.82637960458 -0.32774942723 4.0530661371 0.92949295917 2.2413541634 -2.1337566158 
-3.6287200702 0.34454754772 -1.9848046078 1.3224113549 1.0163550636 -1.0483615235 -2.2978675571 -1.3508094503 -1.978074258 
1.7611023624 -0.87860730753 0.1023430703 0.42974766919 2.1258393699 0.65528151246 2.599297609 -1.1351251264 -0.54316453676 
1.5282655216 -0.63921168381 0.21489445552 2.5410216461 2.9935205953 1.9068601839 3.4615324621 -2.6444811989 -0.76844187223 
-4.232705948 1.7083255385 3.3640051363 -0.14257691245 -3.1596269969 1.6542450103 -1.9719970073 0.02806751398 -1.383840875 
1.6204143328 1.0460155567 -1.8057623736 5.771701609 4.2936973515 -2.6885442657 -1.171127336 3.7991707326 -6.3675329878 
-4.1982091036 3.9181853832 -1.8509156141 1.4113864243 1.9191762791 0.44158197646 1.9917471127 -1.6040429041 1.8320475096 
0.50309143021 1.517614157 -4.4892211742 -0.13342075852 -4.4811037106 0.62808188158 1.1806170632 0.90040074486 1.4743875708 
-0.23619259079 2.8618525852 -2.2295434907 3.0876727938 -0.10871151459 -2.4243865537 -3.8008396973 -4.0766441311 2.8206519491 
-1.281656501 2.4439127473 -3.520585466 -3.6056153408 0.57934596711 2.7033353284 -1.1507786971 -1.1543350276 2.3430445966 
2.7668069618 -0.084132662264 -1.5446207443 -2.4641397291 1.030427216 -1.6688910177 1.3597156535 3.2187802423 -0.29232973938 
0.39789195632 1.0005596513 0.69414176335 0.20255500968 2.0670192884 1.6868102097 0.78621837623 0.42614416731 0.35920713133 
-0.75780850681 -3.744222063 3.3947693903 15.70814654 4.0353978371 -2.8542164697 6.9721107456 -5.9282566663 3.9406266649 
4.3726748917 -7.2332404159 7.4588806718 2.7715717754 5.7556917515 -2.3327283751 10.642610426 9.12764054 11.554145542 
9.6624107059 -5.1050322377 1.9439090232 10.803801591 0.074090540034 -3.2032336736 6.1781998325 -4.933189753 4.0334620101 
6.2266339719 -4.4430647323 -2.6085553741 -6.1188208274 3.155186702 0.21511062322 -6.8791043628 -5.4804939067 0.21995910289 
-9.0262426908 -1.291078076 -1.4429505197 
