# vtk DataFile Version 4.2
Generated by LIGGGHTS
ASCII
DATASET POLYDATA
POINTS 70 float
0.0133839 0.0135797 0.0141749 -0.00222626 -0.0168145 0.0184302 0.00654656 -0.0187451 0.0153565 
-0.0200348 -0.00898023 0.0221695 -0.0142368 -0.0110473 0.0172391 -0.005866 -0.0101347 0.0218372 
0.00156955 -0.00951798 0.0175066 0.0109952 -0.0136762 0.0199429 -0.0114888 0.00750285 0.0192076 
-0.00280517 0.00389692 0.021817 0.00673678 -0.000251646 0.0199072 0.0129928 0.00448509 0.0178533 
0.0199352 0.00123346 0.0175895 -0.014855 0.0125145 0.0188146 -0.00755406 0.0129817 0.0148033 
-0.000812666 0.0133834 0.0181212 0.00459089 0.00886021 0.0144296 0.00790545 0.00955784 0.0194135 
0.0166456 0.0112084 0.0186181 -0.0107611 0.0188091 0.0195455 0.00501612 0.01888 0.0165953 
0.0117841 0.0167483 0.0208777 -0.00804626 -0.0183213 0.0307051 0.00189277 -0.0195597 0.0249543 
0.00890052 -0.0200182 0.0239197 -0.0166998 -0.0141507 0.0276785 -0.00864434 -0.0120657 0.0310908 
0.00439611 -0.0109962 0.0274396 0.0133241 -0.00940755 0.0248273 -0.0167962 -0.000601237 0.0262864 
-0.011828 -0.00677797 0.0237661 -0.00384204 -0.0033175 0.0247336 0.00802989 -0.00664857 0.0254406 
0.0193865 -0.000776906 0.0286283 -0.00677319 0.00678048 0.0256451 0.00460289 0.00494501 0.0274117 
0.0203923 0.006608 0.024444 -0.0161284 0.0111606 0.0296246 -0.00980348 0.0150866 0.0260832 
-0.00148787 0.0128514 0.0278534 0.0038509 0.0125306 0.0244885 0.00736841 0.0139031 0.0292243 
0.0128379 0.00983744 0.0251713 -0.00402227 0.0212259 0.0224714 0.00727134 0.0184393 0.0247846 
-0.000174483 0.0188538 0.028977 0.011098 0.0182364 0.0312931 0.00260454 -0.0217476 0.0332517 
-0.0186694 -0.00989298 0.0334512 0.00707458 -0.0152116 0.0323587 0.014391 -0.0153914 0.034474 
-0.0217552 -0.00278554 0.0333145 -0.0122943 -0.00303813 0.0348428 -0.00688451 -0.00141576 0.0318542 
0.0056997 -0.00622057 0.0333477 0.0119372 -0.00251772 0.0332618 0.0211557 -0.00352354 0.0359651 
-0.019945 0.00306376 0.0369408 -0.0120848 0.0035241 0.0340762 -0.00465559 0.0069088 0.0342563 
9.40382e-05 -0.000298524 0.034782 0.00741649 0.00262512 0.0334583 0.0136516 0.00556781 0.0317749 
-0.00602614 0.0204419 0.0305012 -0.0191462 0.0105913 0.036595 -0.00767345 0.0143009 0.0335451 
0.00761606 0.0102166 0.0342512 0.000827582 0.00894964 0.0318918 0.0131246 0.0158446 0.0364343 
0.0198271 0.00816207 0.0346852 
VERTICES 70 140
1 0 
1 1 
1 2 
1 3 
1 4 
1 5 
1 6 
1 7 
1 8 
1 9 
1 10 
1 11 
1 12 
1 13 
1 14 
1 15 
1 16 
1 17 
1 18 
1 19 
1 20 
1 21 
1 22 
1 23 
1 24 
1 25 
1 26 
1 27 
1 28 
1 29 
1 30 
1 31 
1 32 
1 33 
1 34 
1 35 
1 36 
1 37 
1 38 
1 39 
1 40 
1 41 
1 42 
1 43 
1 44 
1 45 
1 46 
1 47 
1 48 
1 49 
1 50 
1 51 
1 52 
1 53 
1 54 
1 55 
1 56 
1 57 
1 58 
1 59 
1 60 
1 61 
1 62 
1 63 
1 64 
1 65 
1 66 
1 67 
1 68 
1 69 

POINT_DATA 70
FIELD FieldData 7
id 1 70 int
2726 5417 1477 3387 3295 724 3959 5388 2282 
2654 3936 2268 4213 596 4394 5455 4318 5141 
4735 3233 1943 842 2182 4085 4507 2801 3076 
1617 1380 1762 3867 1166 942 3117 1446 914 
44 4035 4832 468 209 2163 736 2889 3230 
3250 4635 1999 2526 5438 3755 5432 398 2582 
5547 3884 1796 2813 901 5024 385 5080 2132 
4210 3793 665 3015 3532 2469 3500 
type 1 70 int
2 2 2 2 2 2 2 2 2 
2 2 2 2 2 2 2 2 2 
2 2 2 2 2 2 2 2 2 
2 2 2 2 2 2 2 2 2 
2 2 2 2 2 2 2 2 2 
2 2 2 2 2 2 2 2 2 
2 2 2 2 2 2 2 2 2 
2 2 2 2 2 2 2 
i 3 70 int
0 0 0 0 0 0 0 0 0 
0 0 0 0 0 0 0 0 0 
0 0 0 0 0 0 0 0 0 
0 0 0 0 0 0 0 0 0 
0 0 0 0 0 0 0 0 0 
0 0 0 0 0 0 0 0 0 
0 0 0 0 0 0 0 0 0 
0 0 0 0 0 0 0 0 0 
0 0 0 0 0 0 0 0 0 
0 0 0 0 0 0 0 0 0 
0 0 0 0 0 0 0 0 0 
0 0 0 0 0 0 0 0 0 
0 0 0 0 0 0 0 0 0 
0 0 0 0 0 0 0 0 0 
0 0 0 0 0 0 0 0 0 
0 0 0 0 0 0 0 0 0 
0 0 0 0 0 0 0 0 0 
0 0 0 0 0 0 0 0 0 
0 0 0 0 0 0 0 0 0 
0 0 0 0 0 0 0 0 0 
0 0 0 0 0 0 0 0 0 
0 0 0 0 0 0 0 0 0 
0 0 0 0 0 0 0 0 0 
0 0 0 
v 3 70 double
0.045139926473 -0.076025017777 0.200152397 -0.012676911517 -0.015349057059 0.27969281901 -0.034687738329 -0.043909752846 0.24995978183 
0.029583868854 -0.080325739633 0.27076819713 0.020430623747 -0.04636485421 0.24323353844 0.0057800067344 -0.039633719149 0.28596009807 
-0.014357506124 -0.031669603089 0.24772606067 -0.04036396207 -0.049910040604 0.25250177203 -0.042190380059 -0.066710801889 0.20891213968 
-0.029267810653 -0.045976364033 0.20666464755 -0.0054217418388 -0.059111901972 0.20981017273 0.012184394509 -0.071763109947 0.21326988303 
0.00034900032379 -0.10249974308 0.21631219553 -0.081093987355 -0.085031815501 0.20272105862 -0.064745276508 -0.054877544387 0.19388073092 
-0.050447413042 -0.051851071025 0.17638189766 -0.011942356415 -0.057749627143 0.21634649071 0.017443410567 -0.05549233968 0.20032521928 
0.051702964688 -0.081106647634 0.18446915632 -0.11083806878 -0.062367916828 0.19397573056 -0.050246384341 -0.0015584574783 0.22403623255 
0.043520415622 -0.044727294427 0.18730579811 0.0085803006433 -0.0071794915545 0.37368559174 -0.03647878577 -0.022655834592 0.32397485971 
-0.049162994547 -0.028298172281 0.31072648839 0.042827701649 -0.04591379999 0.32699180082 -0.0015911632841 -0.038253071354 0.35185485437 
-0.024520445176 -0.028456099075 0.2898339882 -0.026065621966 -0.06651762435 0.25127143231 0.0018423608668 -0.086878016158 0.26191739579 
0.0081045691766 -0.0479879656 0.26899005706 -0.010037861169 -0.037401111728 0.25423215587 -0.016280318109 -0.043149964233 0.25669415616 
0.0051578432515 -0.099478312502 0.23212849504 -0.025922702833 -0.040215984251 0.20235401381 -0.0170449938 -0.054276261328 0.17183048139 
0.036759408143 -0.097651236415 0.2144491181 -0.057615233738 -0.08948741239 0.21930777864 -0.086398064939 -0.060080939492 0.17226223689 
-0.035719299691 -0.013502162377 0.13417901813 -0.0075686190386 -0.036014359802 0.16108681662 0.039605130754 -0.013864127012 0.13171819363 
0.035771081827 -0.069217088206 0.18170661151 -0.073890232164 -0.015720544379 0.11278984142 0.024680894031 -0.03027372767 0.13210101409 
-0.038290322136 -0.0090447108056 0.1177323307 0.027198415066 -0.04794565011 0.12418177569 -0.02777236398 0.010353060742 0.38749460186 
0.041068383209 -0.1218913984 0.37946364713 -0.044834831822 -0.046995646584 0.33183465403 -0.057364527081 -0.063789225935 0.34020745568 
0.074083395092 -0.13592954516 0.3093967471 5.2707581925e-05 -0.11216669225 0.32511539965 0.0003434850743 -0.088711691389 0.28259518864 
-0.017874599454 -0.086800432726 0.279768706 -0.0092453208182 -0.12400812997 0.25215650908 0.0029650435323 -0.12826154552 0.26489012144 
-0.0125304906 -0.17546561672 0.24856563775 -0.035192672451 -0.10441618078 0.2290892745 0.011683973767 -0.086040906128 0.15180536903 
0.018319000052 -0.099054723987 0.23740307795 0.0069118912215 -0.08990850567 0.16802602244 0.013501052969 -0.096207739172 0.1690185595 
-0.059495894912 -0.026673487025 0.099471245341 -0.044217249452 -0.19807030413 0.20544316989 -0.057089925357 -0.055160474835 0.14615834377 
-0.0010344481812 -0.04588442218 0.10882211007 -0.053586881487 -0.053604893433 0.15746879335 0.013585855073 -0.069826804846 0.1316053784 
0.028393154124 -0.075427163983 0.15854104509 
f 3 70 double
0 0 -0.0098744152677 -0.0018759083257 0.0025950432834 -0.020635396907 0.0018086083878 -0.0022848636496 -0.010716772029 
-0.00037168024169 0.00084587789006 -0.0098800491261 -0.0034246686012 0.0015168376855 -0.0097748769071 0.00073581072284 0.0034122101145 -0.0057701299951 
-0.0024784861578 0.0015726312727 -0.011088066355 -0.00016261268439 0.0020018572136 -0.010275228801 0.0010724405094 -0.00018301829235 -0.011735047831 
-0.00078314568054 0.0010036655178 -0.010281541255 1.1048726757e-05 -0.000994985019 -0.01747061696 -0.0044461665112 0.0025587703437 -0.0099364318581 
0.0021380820633 -0.0019593505407 -0.0091228021626 0.0010233668821 0.00094209735091 -0.010059974264 -0.00092998393483 -0.00052419000063 -0.011022983501 
8.3945064904e-05 -0.00023631962229 -0.01008522442 -1.0494330848e-05 0.0013416744996 -0.011943065673 0 0 -0.0098744152677 
0 0 -0.0098744152677 0 0 -0.0098744152677 0 0 -0.0098744152677 
-0.00015083399839 -0.00024542452639 -0.010092936059 -0.0051776263412 5.536765109e-05 -0.0099753598835 0.0035439198969 -0.0015718893366 -0.0093883088715 
-0.002020606126 -0.0054986327004 -0.014367608457 0.0069952688064 -0.0013622995693 -0.016704209662 -0.0013453784478 0.00036063830356 -0.010277068854 
0.0015203130916 0.00014795805604 -0.0073389119009 -9.4084931179e-06 0.00045770030759 -0.010902208625 0.0031164617152 0.0057437550286 -0.0080660198692 
-0.0014577283205 -0.0017211888147 -0.011846288638 -0.0026342158741 0.00048929872597 -0.010059019103 3.5476859003e-05 0.00034079623398 -0.0098019470416 
0.00087482674815 0.0051852490769 -0.008843088901 0.0010938771911 -0.0052416540391 -0.014211017912 0.0074411311149 -0.0025268424439 0.0015673116795 
0.00020862905513 0.00075673771755 -0.0091925188153 0.00098904128252 0.0041752045703 -0.008757652048 0.00019022696952 -0.0016704339961 -0.0060333764791 
0.0053878604621 -0.00074272197238 -0.00086617223318 0 0 -0.0098744152677 0 0 -0.0098744152677 
0.0068979330116 -0.011751424565 -0.044112381418 0 0 -0.0098744152677 0 0 -0.0098744152677 
0 0 -0.0098744152677 -0.006552456644 0.002070856205 -0.0070930224667 0.0094942199331 -0.0020645160967 -0.0060215922807 
1.896019732e-06 1.3007079687e-05 -0.0098616174905 0 0 -0.0098744152677 0 0 -0.0098744152677 
-0.044381945037 -0.022394828789 -0.029761605468 0 0 -0.0098744152677 -0.0013265335027 -0.00047038066391 -0.010143782944 
0 0 -0.0098744152677 0 0 -0.0098744152677 0 0 -0.0098744152677 
0.0036652680246 0.01314892162 -0.0028366017724 2.4610453363e-05 1.5398033972e-05 -0.0097285972637 0 0 -0.0098744152677 
0 0 -0.0098744152677 -0.0029758828803 0.0019366425159 -0.0095062063408 0 0 -0.0098744152677 
0 0 -0.0098744152677 0 0 -0.0098744152677 0 0 -0.0098744152677 
0 0 -0.0098744152677 0 0 -0.0098744152677 0 0 -0.0098744152677 
0 0 -0.0098744152677 
radius 1 70 double
0.003 0.003 0.003 0.003 0.003 0.003 0.003 0.003 0.003 
0.003 0.003 0.003 0.003 0.003 0.003 0.003 0.003 0.003 
0.003 0.003 0.003 0.003 0.003 0.003 0.003 0.003 0.003 
0.003 0.003 0.003 0.003 0.003 0.003 0.003 0.003 0.003 
0.003 0.003 0.003 0.003 0.003 0.003 0.003 0.003 0.003 
0.003 0.003 0.003 0.003 0.003 0.003 0.003 0.003 0.003 
0.003 0.003 0.003 0.003 0.003 0.003 0.003 0.003 0.003 
0.003 0.003 0.003 0.003 0.003 0.003 0.003 
omega 3 70 double
2.2679140065 1.3517121989 4.6895774463 -2.5403872935 3.2477228906 -3.1711121869 -1.1397677485 1.0226810037 2.7638071009 
-3.7888388828 -0.26646918539 4.8296419276 -1.3316712195 -0.7188441769 2.7625912793 -4.7476945509 4.0726217049 3.6675808692 
-2.7402846854 -0.35995636853 0.38951421051 1.8052444227 0.74080382452 -5.0619282627 -1.9354328654 0.98509697907 6.9159526256 
-4.673433074 3.4059784032 -0.053827491655 -0.25163095348 -0.64675791996 0.68149687804 -3.1411447579 -1.4261618415 -4.7157163751 
1.3153105032 2.2170124071 -0.96314154217 -0.29602229093 -0.40402012238 4.416709366 -2.7758921328 -0.32252595005 0.93787037081 
-1.4112302591 1.7441068383 -0.70737191537 -3.4438726723 0.8787010624 3.0830705323 0.75385586073 2.0598531545 -6.9375396709 
-2.4551404096 -3.4925689872 -6.2807886539 1.5489989091 6.3267181379 3.2294735978 30.741296285 -30.196458296 -11.297173754 
-5.709063574 -0.71704211238 0.058412978677 0.11368483067 2.9454661351 3.7010279466 1.8716698553 -0.34468513407 -3.0113553331 
-4.2693779147 0.8061570809 -1.0895815211 -4.6369468604 -0.94216845133 1.8538730468 0.82139500022 -7.6082169719 0.90241357685 
-1.1605126282 4.7786223212 -2.5115937024 -3.6480346557 1.5055953805 -2.9020492672 -1.2350794516 -5.1678093155 5.3631178499 
-4.9787488489 2.4903745829 2.9332571203 -5.648737735 -2.2910976247 0.07622126735 -5.1568577924 4.0526546914 -2.7975963273 
-0.6236159545 1.1192835229 -2.0518527338 -1.0325875959 2.8483883461 -2.2491732419 -6.3818881983 -9.8229567189 -4.2489602006 
-5.1184569609 -3.6577587425 -5.8487438182 -9.279010609 5.988762636 -2.431676471 -0.61924204407 -3.5270116028 3.624863655 
4.3704195143 9.2610500273 1.7657550972 -6.5269198967 8.3874176778 0.17376243793 -6.9663485147 11.086722896 -0.87945871884 
-3.1185786571 -1.3983245911 -0.52866057504 -6.9865441134 2.6073766757 -0.2622605159 -0.99664558864 -13.869342493 9.4435956824 
1.8852648472 -4.4675591442 8.2725099009 -3.6549664747 -2.3644105341 2.1130845736 -4.9325316568 -1.6488019007 -0.39096231602 
-6.3233766619 18.205986574 11.374104829 1.5826429121 -1.4773275546 -7.5885649613 -3.4600337377 -5.4668415189 -3.1186612951 
0.90112785724 2.7502744773 2.4451108388 -5.9914690595 1.1732751847 9.3927650907 3.1258507078 -2.1658823903 -0.94926736938 
-12.708800044 -1.2882173955 -1.0807398289 6.2179986489 -3.2701446449 -11.945633012 -6.5430154292 -0.2216497843 8.471226017 
0.85446434123 17.895445446 21.265181122 -4.4905359887 18.874755228 15.124572948 -28.632480965 3.9335090664 14.715979225 
9.2337657656 -3.1952416536 -5.2710720495 -25.255794426 -16.312992193 2.7638876247 -1.9879753004 5.5623950441 -3.8999755289 
2.0836146649 -1.0767343227 6.4579016748 35.665635278 -34.101243831 16.807482741 0.96444891716 19.093525353 16.532963917 
-6.5232477503 7.9320278044 17.499182542 5.3215320311 -8.7490924617 -5.1239879314 9.6862038073 -4.2317726227 -7.3426345295 
-10.855490261 -1.776143773 6.4268243585 
