# vtk DataFile Version 4.2
Generated by LIGGGHTS
ASCII
DATASET POLYDATA
POINTS 70 float
0.00365542 -0.0168796 0.016377 -0.00884008 -0.0156528 0.0160227 -0.00342888 -0.0116562 0.0192655 
0.0124652 -0.0139895 0.0167045 -0.00822363 -0.00448477 0.0195464 0.0027794 -0.00654696 0.0182457 
0.0104876 -0.00833706 0.017098 -0.0101121 0.0042327 0.0163872 0.00864761 0.00720649 0.017604 
-0.0162314 0.00963827 0.017484 -0.00631748 0.0111086 0.013775 -0.000312171 0.0153411 0.0149113 
0.00824625 0.0128464 0.0155386 -0.0135875 0.0168549 0.0153509 -0.00749368 0.0194542 0.0177045 
0.0134054 0.0172673 0.0195721 -0.00375698 -0.0199938 0.0226441 0.00280778 -0.0217174 0.0268539 
0.00975166 -0.0171837 0.0245641 -0.0167823 -0.0139982 0.0265061 -0.0128145 -0.0166811 0.0226792 
-0.0135389 -0.00911641 0.0231753 0.00416371 -0.0117444 0.0252121 0.0134122 -0.00947147 0.0276455 
0.0170742 -0.0136652 0.0252892 -0.020119 -0.000841509 0.0259498 -0.000159178 -0.00250486 0.0262954 
-0.00493992 -0.00815357 0.0289024 0.0048338 -0.00674988 0.0284699 0.0168113 -0.00270539 0.021583 
0.0207531 -0.00694809 0.0269977 -0.0071658 0.00381415 0.0229964 0.000202067 0.00602821 0.0249325 
0.00995324 0.00466948 0.0271107 -0.0180706 0.011655 0.0245135 -0.00832923 0.012324 0.0224845 
-0.0129163 0.0158477 0.0279257 0.00482109 0.0121313 0.028742 0.00961072 0.0126739 0.0244934 
0.0185221 0.0114852 0.0230949 -0.000446029 0.017098 0.0241584 0.00488839 0.0204205 0.0220419 
-0.00459222 -0.0213672 0.0301938 0.00451087 -0.0170195 0.0353319 0.0115949 -0.0185093 0.0326595 
-0.00868157 -0.0147717 0.0301132 -0.00133599 -0.0144584 0.0318116 0.0097657 -0.0131374 0.0348924 
0.0169588 -0.0138938 0.0353782 -0.0210769 -0.00522713 0.0327907 -0.0134827 -0.00502478 0.031023 
-0.00546815 -0.00512991 0.0358618 0.00236675 -0.0014248 0.0337976 0.015621 -0.00646402 0.0356262 
0.0110296 -0.000906853 0.0294069 -0.0194038 0.00495087 0.0317403 -0.0134017 0.00713096 0.0292724 
-0.00672463 0.000983155 0.0322404 0.0137512 0.00381715 0.0356805 0.019561 0.0050566 0.0308844 
-0.0029914 0.0128399 0.0297431 0.0087373 0.0102969 0.035173 0.013741 0.0162479 0.0312384 
0.00482144 0.0205252 0.0298341 -0.0098886 -0.0194507 0.0380996 -0.0107991 -0.0128041 0.0397035 
-0.00372549 -0.0167729 0.03846 0.00229944 -0.0119011 0.0390661 0.012145 -0.0110973 0.0405584 
0.00645951 -0.00749489 0.0385778 
VERTICES 70 140
1 0 
1 1 
1 2 
1 3 
1 4 
1 5 
1 6 
1 7 
1 8 
1 9 
1 10 
1 11 
1 12 
1 13 
1 14 
1 15 
1 16 
1 17 
1 18 
1 19 
1 20 
1 21 
1 22 
1 23 
1 24 
1 25 
1 26 
1 27 
1 28 
1 29 
1 30 
1 31 
1 32 
1 33 
1 34 
1 35 
1 36 
1 37 
1 38 
1 39 
1 40 
1 41 
1 42 
1 43 
1 44 
1 45 
1 46 
1 47 
1 48 
1 49 
1 50 
1 51 
1 52 
1 53 
1 54 
1 55 
1 56 
1 57 
1 58 
1 59 
1 60 
1 61 
1 62 
1 63 
1 64 
1 65 
1 66 
1 67 
1 68 
1 69 

POINT_DATA 70
FIELD FieldData 7
id 1 70 int
724 3936 3250 4213 1617 2813 1166 4635 5455 
5024 385 4507 3884 4832 3233 4318 3015 3230 
2132 1943 2801 1762 5438 1477 2268 665 942 
842 4035 1999 2726 2889 2163 3532 4735 3076 
4210 398 1380 1796 2282 44 5432 3959 2654 
3295 3387 3755 914 3867 209 736 5547 4085 
5417 1446 3117 3500 901 596 2182 5141 5080 
468 3793 5388 4394 2582 2526 2469 
type 1 70 int
2 2 2 2 2 2 2 2 2 
2 2 2 2 2 2 2 2 2 
2 2 2 2 2 2 2 2 2 
2 2 2 2 2 2 2 2 2 
2 2 2 2 2 2 2 2 2 
2 2 2 2 2 2 2 2 2 
2 2 2 2 2 2 2 2 2 
2 2 2 2 2 2 2 
i 3 70 int
0 0 0 0 0 0 0 0 0 
0 0 0 0 0 0 0 0 0 
0 0 0 0 0 0 0 0 0 
0 0 0 0 0 0 0 0 0 
0 0 0 0 0 0 0 0 0 
0 0 0 0 0 0 0 0 0 
0 0 0 0 0 0 0 0 0 
0 0 0 0 0 0 0 0 0 
0 0 0 0 0 0 0 0 0 
0 0 0 0 0 0 0 0 0 
0 0 0 0 0 0 0 0 0 
0 0 0 0 0 0 0 0 0 
0 0 0 0 0 0 0 0 0 
0 0 0 0 0 0 0 0 0 
0 0 0 0 0 0 0 0 0 
0 0 0 0 0 0 0 0 0 
0 0 0 0 0 0 0 0 0 
0 0 0 0 0 0 0 0 0 
0 0 0 0 0 0 0 0 0 
0 0 0 0 0 0 0 0 0 
0 0 0 0 0 0 0 0 0 
0 0 0 0 0 0 0 0 0 
0 0 0 0 0 0 0 0 0 
0 0 0 
v 3 70 double
0.024610487719 -0.0099924647922 -0.19216121023 0.032004079994 -0.029894921224 -0.20931435388 0.022944580352 -0.020354039335 -0.18801168108 
-0.001904253411 -0.018279739327 -0.18124210487 0.011198325056 -0.037446164049 -0.21186970513 -1.4557126257e-05 -0.021145705938 -0.18511940805 
0.0089180977241 -0.014801491277 -0.18501493069 -0.0050664090314 -0.042162483511 -0.2308958895 0.028369935413 -0.035531236832 -0.21824772619 
-0.017951596011 -0.048092573221 -0.24716127449 0.0047465160139 -0.034350979172 -0.23065153027 0.027061705797 -0.021730782389 -0.2413255483 
0.039654882443 -0.039798703362 -0.21968708072 -0.021592625159 -0.025328609303 -0.23320634057 0.0061435270926 -0.0096693227743 -0.25874094116 
0.05790634619 -0.041525911328 -0.23270499361 0.033549806269 -0.012852198527 -0.16851379174 0.028976126193 0.00098881503616 -0.15383612326 
0.0022680774771 -0.0069271239292 -0.15329551704 0.062011386387 -0.059452619179 -0.17872158061 0.047275678742 -0.044072546135 -0.18758038312 
0.024494884399 -0.048500520094 -0.20157141076 0.0015438488156 -0.019858689683 -0.15148013947 -0.015516658343 -0.026580470937 -0.12459205075 
-0.019686075636 -0.027836022772 -0.14732068863 0.00095726610992 -0.074505007046 -0.23843464827 -0.0038004570435 -0.039867531877 -0.19329793947 
0.011344428634 -0.041234507358 -0.17307732255 -0.00041637420949 -0.027171218652 -0.14214798759 -0.0081863171443 -0.058989297459 -0.18598794995 
-0.015745643732 -0.039860955138 -0.14247948132 0.0052616606946 -0.040808931758 -0.23644874028 0.011640979309 -0.037549715852 -0.24645484647 
0.027414396674 -0.046508011344 -0.20751657447 -0.024298529006 -0.038649404537 -0.25497842663 0.0043742052629 -0.02674911495 -0.27027830091 
-0.0051860825329 -0.024463922419 -0.29778435901 0.036110857799 -0.023615986551 -0.26663306195 0.04440460305 -0.036026046923 -0.23124459058 
0.041312658527 -0.067216287701 -0.20945745802 0.029424472555 -0.013683945633 -0.26543523105 0.041962531104 -0.016381386311 -0.27658959295 
0.03200288635 -0.011920919511 -0.12765301746 0.0061721172348 -0.049775466005 -0.086721092701 -0.0071436083367 -0.027090444847 -0.12378113691 
0.018231282057 -0.031169573293 -0.14008466857 0.018553309421 -0.024237112451 -0.12055877208 -0.0020780156509 -0.015982389799 -0.08674743465 
-0.01536620241 -0.023464779047 -0.093457770559 0.016676960932 -0.11385447277 -0.21633939292 0.02219415697 -0.067333064073 -0.18588645952 
0.023927742516 -0.090080237949 -0.15019580885 0.024469164926 -0.087911158454 -0.18369620598 -0.012960364589 -0.037670556738 -0.091475446078 
0.010581267123 -0.022426619252 -0.15423548448 -0.018909272336 -0.08398345324 -0.26366666998 -0.022767521014 -0.052142475343 -0.26988489224 
0.0068829625966 -0.092696143985 -0.22566422572 0.040801644659 -0.086754499403 -0.17667713598 0.027814900328 -0.083176215125 -0.1915402485 
0.029519663763 -0.033126313272 -0.27990519938 0.066496561466 -0.07916931872 -0.24581878062 0.059996630685 -0.050559890158 -0.24731598215 
0.050795488196 -0.017277406417 -0.27925261793 0.085100393443 -0.061082664546 -0.08795633431 0.046037316867 -0.085088633085 -0.10821633181 
0.0032713939426 -0.089503728793 -0.066512465579 0.015208003867 -0.08784295545 -0.062612771452 -0.012862899209 -0.096726903453 -0.059759436268 
0.012451104402 -0.05068646616 -0.078485411402 
f 3 70 double
-0.0027117135106 -0.0025926357362 -0.010077119886 0.00042571503109 -0.00021256837618 -0.009719620315 0.00074306551168 -0.00017756218476 -0.0096708504494 
-0.00012865950714 0.0016392655128 -0.0095886504067 0 0 -0.0098744152677 0.00070969650945 -0.0019655204305 -0.0099779553472 
-0.00078518644674 -0.0042453672787 -0.011274747564 0 0 -0.0098744152677 -8.5867390641e-05 0.00020010507154 -0.0099700600441 
0.00073245600862 -0.00082868762869 -0.010021237603 0 0 -0.0098744152677 0 0 -0.0098744152677 
0 0 -0.0098744152677 0 0 -0.0098744152677 0 0 -0.0098744152677 
-0.0011863131192 -6.7821602978e-05 -0.0088391454043 0.00013796416443 0.00044215839056 -0.0098941420928 0.00078491767381 0.00084821611286 -0.010628590369 
0.00095330596285 -0.0013778217988 -0.0097738300106 -0.00061142323552 -0.0055009757773 -0.012581321503 0.00084771865401 -0.00087554446468 -0.010247150095 
0 0 -0.0098744152677 -0.0010903637055 0.00064123580644 -0.009574924887 4.3474006228e-05 0.00013127450002 -0.0097137214686 
0.0027681597496 0.0014352121963 -0.0080802905652 0.00035437976013 0.00028398950312 -0.0088996546738 -0.00020938118731 0.00040333174045 -0.0094842626629 
-2.5885637312e-05 1.9748804764e-05 -0.0098566989549 0.0044663987078 -0.032251224735 -0.030592570065 2.6966098993e-05 5.5232984906e-06 -0.0098711478166 
-0.0013380602657 -0.00076966433706 -0.0096901933133 -0.00092225370367 -0.0029295336073 -0.013818028953 2.0625375418e-06 -0.0095154714331 -0.010253252369 
0 0 -0.0098744152677 -0.0005639127153 0.00067807590566 -0.0080671854039 0 0 -0.0098744152677 
0.0001948910634 5.6779416659e-05 -0.009442074988 0 0 -0.0098744152677 -0.00017394656271 -0.00012736933149 -0.0099045592768 
0.00010269276765 0.00019605981848 -0.0099904894492 1.9342851473e-05 5.452384577e-05 -0.0099477266555 0.00025017859659 0.0013804904588 -0.0093300842444 
-0.0027659054762 0.0034125965897 -0.0084641773311 -9.8781101538e-05 0.0080600459388 -0.0051974852984 -0.0015681321321 0.00038560730978 -0.0070763107766 
0 0 -0.0098744152677 0.00611314944 0.0036890691032 -0.01096048809 0 0 -0.0098744152677 
-2.6551069302e-05 5.5064504464e-06 -0.0098498624976 0 0 -0.0098744152677 0 0 -0.0098744152677 
0 0 -0.0098744152677 0 0 -0.0098744152677 0 0 -0.0098744152677 
-0.00010291200558 1.6343647276e-05 -0.0099005678294 0 0 -0.0098744152677 0 0 -0.0098744152677 
-0.0018428291646 0.0038470155241 -0.0075621362817 0.0002053679077 -0.00040706315237 -0.0098600961513 -0.00051191412521 0.0001915692802 -0.0099396602146 
0 0 -0.0098744152677 0 0 -0.0098744152677 -0.0042226982793 0.00088016001503 -0.0075278144134 
-0.00055871669602 0.0010089758598 -0.0068387129439 0 0 -0.0098744152677 2.3146127707e-06 3.4655067768e-05 -0.0098364414556 
0 0 -0.0098744152677 0 0 -0.0098744152677 0 0 -0.0098744152677 
-0.0028960716867 0.0070322649624 -0.0068102714924 
radius 1 70 double
0.003 0.003 0.003 0.003 0.003 0.003 0.003 0.003 0.003 
0.003 0.003 0.003 0.003 0.003 0.003 0.003 0.003 0.003 
0.003 0.003 0.003 0.003 0.003 0.003 0.003 0.003 0.003 
0.003 0.003 0.003 0.003 0.003 0.003 0.003 0.003 0.003 
0.003 0.003 0.003 0.003 0.003 0.003 0.003 0.003 0.003 
0.003 0.003 0.003 0.003 0.003 0.003 0.003 0.003 0.003 
0.003 0.003 0.003 0.003 0.003 0.003 0.003 0.003 0.003 
0.003 0.003 0.003 0.003 0.003 0.003 0.003 
omega 3 70 double
1.3251090431 0.43539700932 0.94429130553 0.40136201998 -0.14050546348 3.2968066806 1.1486951468 -0.53693345274 -0.44413540293 
-1.7138855846 5.4637613996 -3.1829695466 -2.2795261595 -1.0058813606 2.7709670779 -0.69239769778 -1.3004700442 1.2534995494 
-0.88451917449 -0.60423580995 0.055800522945 0.66565722283 2.2139640622 -0.43853284988 0.37913372202 -0.88668152987 -1.4662728141 
-2.6589270283 0.32765753883 0.76966980269 -6.3123781313 0.36486367681 -0.41508817696 -4.136679417 1.2231516264 -4.5285727915 
-2.4039707451 1.066529058 -3.5422843521 -1.9342935383 -0.076273791046 -0.091772102705 -1.6857832706 -1.349344261 2.2337192216 
-0.071031706858 1.423566239 -2.4721348832 -1.2463972115 -0.033602583304 -1.0275742831 -1.6070742445 0.41028663073 0.71730375445 
1.4926953801 5.9736134506 2.6465888502 -0.81829822603 0.64309239107 4.3452962868 -1.1863780766 1.1872016465 6.258136981 
-0.91924309032 0.019271967542 1.5407389117 2.2895273631 -3.5951184383 -3.3616806191 0.053650786603 5.3389054436 -0.74664320275 
4.1423972846 -0.56749824552 -0.8327721575 1.434628534 -0.38990134077 2.6267684573 -0.8401415818 -1.5761648242 3.3792958235 
1.2721631501 3.8322801935 5.5530279427 0.51197970856 -6.177639409 -1.4695527835 -1.669324402 0.26214993964 -3.1866255016 
-4.2891414386 -1.0240936835 -3.1812296213 -1.4100776408 0.98881125004 6.102772464 -7.3291125128 2.9478075429 -0.21730820737 
-5.168291703 -3.0517042821 1.0999577764 -2.5407699501 1.307689983 3.7251688296 2.5645794719 -0.40920830427 -1.2112279058 
-3.0215460583 3.4356458838 2.0978105005 1.2963827399 0.94389390667 6.7564482658 -2.9310371703 -3.38883088 -4.4801185152 
0.81031367864 0.666164599 -2.6679144121 1.9898622926 0.64262021536 -1.1493312341 0.089994800689 1.8920891319 -0.45896885956 
6.0194469651 3.409388533 1.0849250712 -8.6231978806 2.815577856 6.4140650762 3.9284302327 -7.7620673116 2.77958679 
-6.3058058143 -5.3477499564 1.0520425965 3.9822046934 -0.65961845358 0.053082699844 11.311554201 2.8190501425 -8.6420291714 
-4.2220229337 -3.6880528938 -1.1406659309 6.8419085988 -3.6401794136 8.0210075116 -0.090443429384 2.9856080449 7.0358884925 
5.5810810765 3.3193062353 -9.6936379096 -2.7542031891 4.6468819212 4.6535113594 13.67714732 0.23743926434 4.524864002 
0.79717132815 -4.709550283 -3.0225559645 6.4503922975 1.6553607817 -0.22029445782 3.9521359231 -4.4084215613 -1.9741919479 
-1.7143578578 -7.2492364017 -1.7838024047 -7.0582603289 0.031409789348 1.6465418425 1.7263939567 0.80181550553 -6.6666554578 
-3.2908019231 -2.6294674741 -2.5616449414 6.4777532342 4.91510985 -2.9694884658 0.12970043873 -5.0449530064 5.8347192282 
-3.1646783698 -1.2594309451 -2.4067115076 7.1437727671 4.5703724849 10.598327933 21.985591016 19.344705715 6.2185084514 
7.1464218185 -1.1863018072 -10.177449751 6.5013122134 21.398819449 7.1990144926 7.5761643096 -4.866439605 -3.4991438334 
-0.51616026283 -0.17998216742 -1.0168567019 
