# vtk DataFile Version 4.2
Generated by LIGGGHTS
ASCII
DATASET POLYDATA
POINTS 70 float
-0.00523173 -0.0188779 0.0120364 0.000451817 -0.0204451 0.0106234 0.00637228 -0.01664 0.00914574 
-0.0159194 -0.0129135 0.00918379 -0.00203077 -0.00969323 0.00925996 0.00972952 -0.0115412 0.0108465 
-0.020215 -0.00527261 0.011591 -0.015178 0.000202629 0.0112811 -0.0031499 -0.000887855 0.0131298 
0.0060582 -0.00743592 0.0133507 0.0194637 -0.000330898 0.0141704 0.00125081 0.00550198 0.0129012 
0.0098481 0.00390516 0.00963265 0.0186129 0.00735447 0.00969232 -0.0115596 0.0142167 0.0140901 
-0.000746464 0.0143448 0.00801778 0.0116316 0.0154398 0.00800649 0.0109543 0.0106104 0.0130936 
-0.00231705 0.0185848 0.0119995 0.00351992 0.0183749 0.0137378 0.00597154 -0.02085 0.015485 
-0.0181918 -0.0120973 0.0176369 -0.0115639 -0.00836009 0.0146781 -0.00576936 -0.0102761 0.0163746 
0.00286087 -0.0140952 0.0180269 0.0125773 -0.01533 0.0202648 -0.0205594 -0.00394423 0.0185936 
-0.00862447 -0.00068534 0.0155977 0.00739711 -0.00759475 0.0221525 0.0016762 -0.00298146 0.0202051 
-0.0216438 0.00133981 0.0159685 -0.0186899 0.00643715 0.0204184 0.00562682 0.00583942 0.0194588 
0.0111025 0.0011386 0.0184108 -0.013755 0.0128353 0.0195591 -0.00185001 0.0102435 0.0148795 
-0.00631434 0.0155771 0.0203805 0.00501763 0.013936 0.0204415 0.0126063 0.0113592 0.020963 
0.0187308 0.0112136 0.0166134 -0.00293018 0.0216977 0.0190951 0.01314 0.017465 0.016447 
0.00233518 -0.0196286 0.024241 0.00956055 -0.0192475 0.0284567 -0.0199212 -0.00910656 0.0280779 
-0.00926894 -0.012315 0.0251062 -0.00110208 -0.0127411 0.025881 0.00455976 -0.0132151 0.0294173 
0.0188755 -0.0110925 0.0291736 -0.0137896 -0.00407682 0.0219 -0.0136929 -0.00685654 0.0288056 
-0.0072149 3.90778e-06 0.0279385 -0.00169973 -0.0052282 0.0262675 0.0147938 -0.00767727 0.0236719 
0.00887463 -0.00657179 0.0298384 -0.0144537 0.00245039 0.0249617 -0.00492526 0.00820455 0.0233423 
-0.000268429 0.00376187 0.0251251 0.00618103 0.00174135 0.0245272 0.0108678 0.000763972 0.0282766 
0.020473 0.0018933 0.0251628 -0.0152761 0.00948083 0.0280876 0.0178322 0.0108999 0.0242103 
-0.00935468 0.0196363 0.0238977 0.00231583 -0.0216241 0.0303748 -0.0165688 -0.0131294 0.0318025 
-0.0084445 -0.0117401 0.0331139 -0.000955601 -0.0125324 0.0333122 0.0121019 -0.0138958 0.0321587 
-0.0166199 -0.00484714 0.0351521 
VERTICES 70 140
1 0 
1 1 
1 2 
1 3 
1 4 
1 5 
1 6 
1 7 
1 8 
1 9 
1 10 
1 11 
1 12 
1 13 
1 14 
1 15 
1 16 
1 17 
1 18 
1 19 
1 20 
1 21 
1 22 
1 23 
1 24 
1 25 
1 26 
1 27 
1 28 
1 29 
1 30 
1 31 
1 32 
1 33 
1 34 
1 35 
1 36 
1 37 
1 38 
1 39 
1 40 
1 41 
1 42 
1 43 
1 44 
1 45 
1 46 
1 47 
1 48 
1 49 
1 50 
1 51 
1 52 
1 53 
1 54 
1 55 
1 56 
1 57 
1 58 
1 59 
1 60 
1 61 
1 62 
1 63 
1 64 
1 65 
1 66 
1 67 
1 68 
1 69 

POINT_DATA 70
FIELD FieldData 7
id 1 70 int
5417 1477 5388 3295 3959 1380 5432 1762 1166 
942 3117 2654 3936 4213 4035 2282 4318 2268 
596 4394 4507 3387 3867 724 1617 1796 2813 
2582 3884 3015 3793 665 914 2132 4210 1446 
4832 5455 5141 44 3233 2726 4085 3755 2801 
3076 5080 5438 4635 901 398 468 3532 2469 
5547 5024 209 2163 736 842 4735 3250 1943 
2889 1999 2182 385 3230 3500 2526 
type 1 70 int
2 2 2 2 2 2 2 2 2 
2 2 2 2 2 2 2 2 2 
2 2 2 2 2 2 2 2 2 
2 2 2 2 2 2 2 2 2 
2 2 2 2 2 2 2 2 2 
2 2 2 2 2 2 2 2 2 
2 2 2 2 2 2 2 2 2 
2 2 2 2 2 2 2 
i 3 70 int
0 0 0 0 0 0 0 0 0 
0 0 0 0 0 0 0 0 0 
0 0 0 0 0 0 0 0 0 
0 0 0 0 0 0 0 0 0 
0 0 0 0 0 0 0 0 0 
0 0 0 0 0 0 0 0 0 
0 0 0 0 0 0 0 0 0 
0 0 0 0 0 0 0 0 0 
0 0 0 0 0 0 0 0 0 
0 0 0 0 0 0 0 0 0 
0 0 0 0 0 0 0 0 0 
0 0 0 0 0 0 0 0 0 
0 0 0 0 0 0 0 0 0 
0 0 0 0 0 0 0 0 0 
0 0 0 0 0 0 0 0 0 
0 0 0 0 0 0 0 0 0 
0 0 0 0 0 0 0 0 0 
0 0 0 0 0 0 0 0 0 
0 0 0 0 0 0 0 0 0 
0 0 0 0 0 0 0 0 0 
0 0 0 0 0 0 0 0 0 
0 0 0 0 0 0 0 0 0 
0 0 0 0 0 0 0 0 0 
0 0 0 
v 3 70 double
0.067775556814 0.030048549647 0.25658976512 0.09155329614 0.021308627956 0.30872691682 0.080545906054 0.034712218728 0.3424739002 
-0.049885737172 0.071956200411 0.3542287628 0.014387812938 0.067483483348 0.36442987067 0.089750998494 0.069867447774 0.32047694617 
-0.065343026798 0.13447124883 0.34854234808 -0.0075434715327 0.10097427419 0.36580622773 0.044655129872 0.054773751208 0.36111004561 
0.061101111679 0.065701314198 0.37317943416 0.021535408358 0.10347347315 0.40160077916 0.013609949544 0.053630967265 0.39092506598 
0.0055478069586 0.070478567395 0.40104959429 -0.026540740399 0.08912876271 0.40692476087 0.060899394524 0.071231341693 0.41608528189 
0.0099276161743 0.032649149251 0.41617461402 -0.028374099658 0.040226343803 0.40254838003 -0.0092691189217 0.053187719618 0.43837606288 
0.007426078844 0.037846575321 0.44184042855 -0.0078127687412 0.016709178033 0.42846261499 0.073347584689 0.030852025797 0.28199440641 
-0.055079648299 0.096185473077 0.21993832883 -0.0097737646784 0.074044436879 0.262407685 0.023326321304 0.075113004813 0.2732336125 
0.050355808933 0.035134149551 0.27363475161 0.12056602514 0.092638558151 0.26206062648 0.0028219474596 0.1320605691 0.27864498054 
0.0047616804365 0.075978619183 0.35105791386 0.14284787446 0.11978364131 0.29544316283 0.11022304907 0.166017912 0.31669507276 
-0.022905969129 0.17140427408 0.34194425441 0.066120710401 0.1704972877 0.34803699805 0.037829209154 0.1279454909 0.41123343227 
0.028892149313 0.15287680486 0.40280735433 0.10543086042 0.13380608173 0.4450292639 0.0077896178184 0.039073450258 0.41277051995 
0.071500674668 0.064667427696 0.46082928037 -0.023140794462 0.078705111084 0.46590269233 -0.02058401592 0.050368210718 0.4460045235 
-0.045953133765 0.081099861841 0.48041719527 0.068085131437 0.026405444662 0.47326296133 -0.049947612468 0.020821235445 0.42093188019 
0.024314622563 0.062021492345 0.17041220081 0.063729142887 0.084521748629 0.067078490973 0.0066204608632 0.11290292875 0.11190712182 
0.043368118454 0.07135811416 0.12499648524 0.030266802232 0.10287141408 0.12777871181 0.13839763074 0.068904836921 0.164676491 
0.10522253923 0.15047223696 0.21270611163 0.0023659822791 0.13793211387 0.21444582568 0.027028086685 0.058117671061 0.060372835865 
0.15390516094 0.18279863833 0.32616659136 0.044131791347 0.10081017633 0.28262750957 0.086792835345 0.18545827372 0.27628125215 
0.019377931344 0.14401444486 0.27826318519 0.094942503824 0.12891858492 0.28657162641 0.10867173405 0.18563076862 0.47580184354 
0.080418518801 0.14209190924 0.44318717194 0.031602552081 0.16042423183 0.44041529884 0.018696204339 0.18130650345 0.43459331212 
-0.010603623728 0.2443995499 0.4385368956 0.18187331938 0.09336704228 0.44740189058 -0.0061023764742 0.18075515932 0.52841381728 
0.20789334867 0.085359122973 0.49245006808 -0.019142012447 0.021925260349 0.097313099858 -0.015305686102 0.072959369082 0.069825820893 
-0.01934854278 0.096538371737 0.035944413007 -0.0049389922062 0.15939491096 0.033116035418 0.056239845813 0.1676912541 0.12573834661 
-0.092949763523 0.091011242436 0.079374795811 
f 3 70 double
-0.043563530753 -0.032413525064 0.0072225996619 0.0083542992843 -0.013143517027 0.011231400221 -0.015363882629 0.0058093701121 -0.0057150195558 
-0.016417555981 -0.014375733553 0.0084935026131 0.0044487382292 0.001606625721 0.042153295834 -0.034787508648 -0.0084191936694 0.066303315941 
0.008316944937 -0.023815416703 0.046058073102 -0.0077614762623 -0.035814352793 0.037967943153 -0.10230757488 -0.039184763258 0.099873429433 
-0.010570031808 -0.011764016992 0.016487375349 -0.0024350257871 -0.017771276302 0.0019169433345 -0.034829419287 -0.0040855895042 0.00785547505 
-0.00058137287467 -0.014270142641 0.022207566606 -0.0058438292343 -0.023787173748 -0.0085214002874 0.033954783137 0.030875917922 -0.0087299338615 
0.045946788921 -0.0090405088658 0.025288146554 0.0031388393372 0.018049471765 0.009003967781 -0.011680380763 0.0036455469344 -0.018771791236 
-0.010191701373 -0.0058530020807 -0.0039300915177 0.012385783616 -0.038738021658 0.0065397361589 0.005122851665 -0.048613339707 0.049019992687 
-0.0029529104692 0.0037904277331 -0.017685098433 -0.0030374632058 -0.0077027081662 0.010546670399 -0.017023464702 -0.025420796081 0.002027989906 
-0.0021432902216 -0.012066076335 0.04566189957 -0.010620253415 -0.020458932863 0.016350538481 0.0061332667349 -0.027280948881 -0.034522279113 
0.11980754193 -0.038539228006 -0.027254037985 -0.036489845395 -0.0066134433657 0.026372870436 0.014507768034 -0.042320436167 0.045344999521 
-0.0059800567494 -0.070774290137 0.061442991705 -0.02238022526 -0.011101526805 0.019926888494 0.0051735034832 0.012398109078 0.0022023267351 
-0.0091660158544 -0.00045931520208 0.0053536901832 -0.011274604363 -0.016460476944 0.0092041278708 -0.015213682392 -0.04069312945 0.0034133758611 
-0.034186658389 0.023710744626 -0.013284397196 -0.044769968646 -0.046568759084 0.011480032457 -0.026170485633 0.017662700777 0.0055417095152 
-0.054159766121 -0.032263973313 -0.015720618139 -0.049892404532 0.077545981738 -0.077721642448 0.032351990183 -0.031084222098 0.015599419772 
0.0087580920827 -0.0018499770901 -0.0064300481105 0.0080213926412 -0.0081236143172 0.0046295622564 -0.00031118421385 -0.001054265007 -0.010269767357 
0 0 -0.0098744152677 -0.010485321542 0.0030044638027 0.003063800147 0.00315264044 -0.0042529706875 -0.00023099060596 
-0.00092952468444 0.0037957677484 0.0030098160023 -0.060482509873 -0.031342749702 0.064721630644 -0.0062784956777 -0.026345285191 0.046487604589 
-0.0023451381058 -0.0013306827288 -0.0083314612061 -0.039998920836 -0.020207438499 0.067555028742 -0.019439671827 0.022149087558 0.01621628133 
-0.0051295225323 -0.0023865396391 -0.0056594528248 -0.00020399959245 -0.0012080737753 0.0094679393127 -0.032604170054 -0.015706847366 0.034771937401 
-0.0078675772316 -0.020135639649 0.020868618387 0.01549120314 0.012723314817 -0.010477150534 0 0 -0.0098744152677 
0.0049072242407 9.0165322439e-05 -0.0072037267299 0 0 -0.0098744152677 -0.01149394824 -0.012296078038 -0.0084953311218 
-0.1254749478 0.0042162008645 -0.050225077321 0.027897694367 0.016038673342 1.3024009222e-05 0 0 -0.0098744152677 
0 0 -0.0098744152677 0.014055418449 0.045699240656 -0.04478354687 0 0 -0.0098744152677 
0.010495471236 0.0028192048377 -0.014017547795 
radius 1 70 double
0.003 0.003 0.003 0.003 0.003 0.003 0.003 0.003 0.003 
0.003 0.003 0.003 0.003 0.003 0.003 0.003 0.003 0.003 
0.003 0.003 0.003 0.003 0.003 0.003 0.003 0.003 0.003 
0.003 0.003 0.003 0.003 0.003 0.003 0.003 0.003 0.003 
0.003 0.003 0.003 0.003 0.003 0.003 0.003 0.003 0.003 
0.003 0.003 0.003 0.003 0.003 0.003 0.003 0.003 0.003 
0.003 0.003 0.003 0.003 0.003 0.003 0.003 0.003 0.003 
0.003 0.003 0.003 0.003 0.003 0.003 0.003 
omega 3 70 double
1.70243282 -3.9749542762 0.6030867828 7.7250968013 -4.7709207564 -6.4677883002 -0.19676303776 -7.5242798289 1.934343595 
8.4845659629 -2.1386991609 -7.2742840532 5.4150549152 -6.229688425 4.4994739317 9.8341928776 -16.18275306 8.018353653 
5.7169205714 -8.2071595378 -13.56013935 1.777662355 -5.7940545813 -8.537580615 -0.34875239364 -6.4553343269 5.0830055323 
3.1104667186 12.121779686 -6.7439920877 -1.2229945993 -0.72797695052 4.8804045495 -1.5330530212 7.4873713042 2.2147155766 
-0.34176065269 4.1123303091 0.56620234381 -4.3074491541 -0.093620309665 5.5417680973 -2.1027800466 6.4815388489 -8.4837271313 
4.178990194 -7.1316663745 -1.3836858433 2.7212118377 -4.2899522593 4.5502669686 -10.515919519 3.5031596056 -1.364600961 
-0.98163979842 -0.13826476005 -0.54968640324 0.59327362421 -3.2962617794 -7.9374669642 -5.7235766314 7.9723454086 13.808499538 
-0.37051665516 2.9127826431 -4.3274674574 5.9203179183 -15.755491089 -14.274050862 -12.254062277 -9.4500809323 -6.1860810205 
6.2121517345 4.5590286771 13.016675733 -7.0760608924 9.4655942867 2.1262623504 8.3962321296 13.627782289 -3.9124822867 
-0.43728436531 6.6332988309 -4.7605299841 3.5945510754 -3.05631553 -4.09616841 6.9858206174 -6.6325969171 -7.7391002948 
13.222502786 0.30514117515 1.3904332401 8.8080680166 -5.7112046492 -5.5867947982 16.835372876 -14.470853599 4.5168618304 
3.124064917 10.009567521 -8.046814853 -0.2429181879 1.8805703142 -3.4067625405 3.1462891922 -0.31449196172 3.2845174286 
-1.9431455619 3.9870988942 9.8853143482 0.99758223266 15.100214507 7.2120939063 -3.7902640887 -6.4727786845 -13.914929153 
-13.918711161 -1.1566417859 5.876869996 6.8440206763 8.3766946022 -16.598241602 6.1306305795 3.1057747364 -1.2703128105 
16.092938081 5.9878460967 -7.6713105416 0.52113867304 2.9789454205 1.7041218232 -20.613253221 -3.9649436062 -19.317122205 
8.5058281147 -5.9123823256 -17.714542258 -0.4603826125 -2.5769440074 -1.7679365823 13.714427159 8.5603406953 -15.745745158 
15.554937943 -16.559109451 18.175446666 -18.441389465 26.304692768 -1.2115828709 -7.5857174783 -23.987277222 18.415283156 
-8.0451062742 23.889228442 -3.1159354535 14.309591215 -26.660031141 6.809149714 10.964740228 11.605729526 20.13247892 
9.6997702056 28.17897054 -0.68718875763 0.60222177096 5.2564853743 7.8978705005 -33.544596733 16.880673282 -0.33416687611 
39.984157304 -11.054476879 -1.9149349818 -1.6262906633 -51.447767312 -12.893007363 50.359470525 141.20713305 -21.917646528 
-0.58719577998 -1.6457196618 -16.055878798 28.97584754 -20.69008304 -14.420599182 -30.095978258 -15.634786429 46.39258366 
0.63379036233 24.960836746 -1.9588842128 35.725220055 21.982090532 -2.84372135 3.5494170984 -25.975183984 7.1637852475 
-34.077940252 26.995589794 -25.115299045 -6.6373659944 -27.622776174 22.299182342 -68.396373499 17.875929097 -22.443186527 
26.932106921 -12.499852558 22.242383838 
