# vtk DataFile Version 4.2
Generated by LIGGGHTS
ASCII
DATASET POLYDATA
POINTS 70 float
-0.00586497 -0.0167774 0.0100326 0.00296153 -0.0176344 0.0113076 -0.0146113 -0.00900029 0.00697207 
-0.00198274 -0.0148418 0.00537518 -0.00114744 -0.00853769 0.00883455 -0.0209634 -0.00585854 0.00908963 
-0.00186478 -0.000140508 0.00911361 -0.00723306 -0.00419039 0.011215 0.00871412 -0.00722805 0.010602 
-0.0194532 0.00377563 0.00846953 0.0189151 0.00487436 0.011391 0.00767191 0.0113485 0.0107188 
0.0151491 0.0118992 0.0105524 -0.00278597 -0.0212774 0.0156063 0.0106736 -0.0189428 0.012889 
-0.0181788 -0.011796 0.0144378 -0.00903093 -0.0118035 0.0123602 0.00232132 -0.00882589 0.0158395 
0.0118803 -0.0113564 0.0138339 0.0176452 -0.0128662 0.0147504 -0.0127448 -0.00668439 0.0154789 
0.00367677 -0.00152301 0.0145601 -0.0217523 0.00129833 0.0159854 -0.0127342 0.00124868 0.0116186 
-0.00903092 0.00764659 0.0137811 -8.86781e-05 0.0068053 0.0157797 0.00771356 0.00437323 0.0173527 
0.0123911 0.00814513 0.0176242 -0.0171788 0.00994524 0.0159916 0.0076422 0.0144226 0.0175497 
-0.00297072 0.0176133 0.011965 0.00282637 0.0191607 0.0120255 0.0132466 0.0173866 0.0121425 
-0.00488063 -0.0183075 0.0204523 0.00602573 -0.0208498 0.0230267 -0.00725373 -0.00870861 0.0218323 
0.00168637 -0.0160865 0.0202125 0.00776906 -0.00887156 0.0263768 0.00985443 -0.011851 0.020409 
0.0181184 -0.00869536 0.0237497 -0.0209507 -0.00563946 0.0199846 0.000131007 -0.002872 0.0234621 
0.013584 -0.00516358 0.0219762 0.00887676 -0.00227893 0.0271427 -0.021259 0.00493664 0.0237423 
-0.0112796 0.000220221 0.0228257 -0.0123324 0.00833979 0.0246531 -0.00446291 0.00434812 0.0246814 
0.02028 0.0082582 0.0209431 0.0182361 0.00201715 0.026379 -0.00169143 0.0149758 0.0198665 
0.00582229 0.00902632 0.0264332 0.0164705 0.0143906 0.0200372 -0.00608451 0.0198316 0.0278453 
0.0023439 0.0217519 0.0244772 0.00880626 0.0179418 0.0267025 0.0139483 -0.0166855 0.0279941 
0.0194731 -0.00776233 0.0319661 0.00675755 0.00412912 0.0326169 0.013106 0.00617035 0.0361357 
-0.0174314 0.0131522 0.0285893 -0.00105001 0.00948571 0.0293539 0.00468151 0.0139879 0.0322711 
0.0124982 0.00932267 0.0283511 0.0158142 0.0126417 0.0321924 0.00196891 0.0202429 0.0348127 
0.0204061 0.00229036 0.0371836 0.00801019 0.0198152 0.0370343 -0.00200167 0.0161955 0.0374312 
0.0195031 0.00939433 0.03828 
VERTICES 70 140
1 0 
1 1 
1 2 
1 3 
1 4 
1 5 
1 6 
1 7 
1 8 
1 9 
1 10 
1 11 
1 12 
1 13 
1 14 
1 15 
1 16 
1 17 
1 18 
1 19 
1 20 
1 21 
1 22 
1 23 
1 24 
1 25 
1 26 
1 27 
1 28 
1 29 
1 30 
1 31 
1 32 
1 33 
1 34 
1 35 
1 36 
1 37 
1 38 
1 39 
1 40 
1 41 
1 42 
1 43 
1 44 
1 45 
1 46 
1 47 
1 48 
1 49 
1 50 
1 51 
1 52 
1 53 
1 54 
1 55 
1 56 
1 57 
1 58 
1 59 
1 60 
1 61 
1 62 
1 63 
1 64 
1 65 
1 66 
1 67 
1 68 
1 69 

POINT_DATA 70
FIELD FieldData 7
id 1 70 int
5388 1796 1762 1380 942 3793 1166 2582 2469 
665 3117 2654 3936 1477 3755 5432 3959 3884 
3500 4635 901 3015 2801 5024 2526 468 736 
2132 2182 1446 4210 4035 2282 5417 4507 724 
1617 5080 5438 1999 2813 3532 5547 842 3295 
3867 398 385 4213 4735 4832 2163 4318 2889 
3233 596 4085 1943 3230 5141 3387 3076 5455 
914 2268 209 44 4394 3250 2726 
type 1 70 int
2 2 2 2 2 2 2 2 2 
2 2 2 2 2 2 2 2 2 
2 2 2 2 2 2 2 2 2 
2 2 2 2 2 2 2 2 2 
2 2 2 2 2 2 2 2 2 
2 2 2 2 2 2 2 2 2 
2 2 2 2 2 2 2 2 2 
2 2 2 2 2 2 2 
i 3 70 int
0 0 0 0 0 0 0 0 0 
0 0 0 0 0 0 0 0 0 
0 0 0 0 0 0 0 0 0 
0 0 0 0 0 0 0 0 0 
0 0 0 0 0 0 0 0 0 
0 0 0 0 0 0 0 0 0 
0 0 0 0 0 0 0 0 0 
0 0 0 0 0 0 0 0 0 
0 0 0 0 0 0 0 0 0 
0 0 0 0 0 0 0 0 0 
0 0 0 0 0 0 0 0 0 
0 0 0 0 0 0 0 0 0 
0 0 0 0 0 0 0 0 0 
0 0 0 0 0 0 0 0 0 
0 0 0 0 0 0 0 0 0 
0 0 0 0 0 0 0 0 0 
0 0 0 0 0 0 0 0 0 
0 0 0 0 0 0 0 0 0 
0 0 0 0 0 0 0 0 0 
0 0 0 0 0 0 0 0 0 
0 0 0 0 0 0 0 0 0 
0 0 0 0 0 0 0 0 0 
0 0 0 0 0 0 0 0 0 
0 0 0 
v 3 70 double
0.042175196291 -0.0070253425673 -0.45934796951 0.076195655179 0.005513825561 -0.44976662067 0.01315468033 0.0096696352503 -0.45585990274 
0.055618727527 0.012508896061 -0.45085873464 0.03265113746 0.021963028475 -0.42251642646 -0.0019024941409 0.032077280185 -0.47221624538 
0.021139289947 0.03177972099 -0.40955745811 0.023174755709 0.021155662131 -0.42841593832 0.037283822634 0.027762811691 -0.40673281747 
0.013794872133 0.073307853725 -0.42046287295 0.0030471201645 0.017291752548 -0.38898463378 0.0043204446294 0.012586579419 -0.37970460453 
-0.0011449579397 0.0039651433349 -0.38088867248 0.05688338275 -0.0063509853433 -0.46742091367 0.069830769188 0.04378846875 -0.41357341019 
0.0008967384387 -0.0057465316028 -0.49103006697 0.033867572897 0.0015240294856 -0.46382075402 0.038892644352 0.0073294702131 -0.42454933572 
0.049070566567 0.03846909962 -0.40396950203 0.0440028082 0.063153746252 -0.38901269622 0.0045310837949 -0.0018575282488 -0.47140930841 
0.016827534719 0.015466034522 -0.41011436844 0.0032251701469 0.060492236094 -0.45525739534 0.010864751873 0.039612823232 -0.42551733948 
0.020960119252 0.032772659051 -0.4070706239 0.01547336454 0.021423839383 -0.39030415523 0.00052928969854 0.01441407833 -0.3713260663 
0.0061451601778 0.013870406644 -0.36428256321 0.027211523905 0.058724803444 -0.40518818352 0.0051555754926 0.0097962092352 -0.35822500099 
0.034113575022 0.012770249523 -0.38621224907 0.035075911469 0.011065551499 -0.38047028611 -0.022439336 0.018069074603 -0.36454941014 
0.032898671078 0.001009130921 -0.47800227228 0.079359036297 0.014901057055 -0.43973018192 0.036654286922 0.014552957077 -0.47579371 
0.052380660186 -0.00065677392075 -0.4504693629 0.067691189979 0.0639180933 -0.40736406225 0.046884850678 0.033299500294 -0.40168237725 
0.022190001319 0.0558459439 -0.36053384491 -0.0080869276691 0.04117567689 -0.49883688245 0.043994849472 0.047755648581 -0.41348119504 
0.024203752906 0.046918478561 -0.38515716109 0.044732654312 0.071931938756 -0.37269169609 0.022535592983 0.070427293992 -0.44355697285 
0.027792739904 0.042233953621 -0.46289584971 0.041018864788 0.043282982273 -0.40705667882 0.031378162008 0.043688861339 -0.39787251416 
-0.0082511849352 0.023637000084 -0.34537728663 0.0091876765107 0.050091341672 -0.32187596794 0.016857889088 0.017922029325 -0.35673389537 
0.011679313038 0.018115707732 -0.33873834112 -0.0155667241 0.015260036445 -0.34916641325 0.040478908314 0.019093785354 -0.31602860612 
0.023833493426 -0.0014504367638 -0.33927123377 0.01905102978 -0.0021282752835 -0.32262292483 0.074254277716 0.049316735348 -0.37459475136 
0.063020093143 0.085966920134 -0.33715390997 0.043151566902 0.051484587014 -0.31366575642 0.015683660817 0.064132970974 -0.27023864033 
0.050112326239 0.063123350301 -0.40354839008 0.025803950085 0.051592272724 -0.33326735456 0.038025435547 0.0094863067621 -0.30204593021 
0.010891792635 0.017611677045 -0.31426331091 -0.0087842416293 0.015209028797 -0.29139724724 0.07825572515 0.026080188057 -0.28853949998 
0.008899873291 0.09683542995 -0.25678182616 0.056231106999 -0.013351204187 -0.24323591967 0.047603566136 0.039514794889 -0.2621621402 
-0.02312286497 0.09629709244 -0.22702284038 
f 3 70 double
0 0 -0.0098744152677 -0.00034241774063 0.00047860467851 -0.0096800806244 0 0 -0.0098744152677 
0 0 -0.0098744152677 0 0 -0.0098744152677 0.00051877340928 -0.0012339442155 -0.012038601864 
0 0 -0.0098744152677 0 0 -0.0098744152677 -4.206420372e-05 0.00014101264144 -0.0099290147238 
-0.00033986048618 -0.00079906594211 -0.010081412872 -7.9612862119e-05 0.00026378981333 -0.010008241482 0 0 -0.0098744152677 
0 0 -0.0098744152677 0 0 -0.0098744152677 0 0 -0.0098744152677 
0 0 -0.0098744152677 0 0 -0.0098744152677 0 0 -0.0098744152677 
1.5024808841e-06 -3.8547695488e-06 -0.0098760589877 0 0 -0.0098744152677 0 0 -0.0098744152677 
-2.0746864382e-06 0.00034834362581 -0.0098332393891 -1.2156850369e-05 -6.3005446911e-05 -0.0096713075878 0 0 -0.0098744152677 
0 0 -0.0098744152677 4.4560704016e-05 -5.6840969282e-05 -0.0099012857185 0 0 -0.0098744152677 
-0.0008639424521 -0.00025923492635 -0.009806512507 0.00034318958304 0.00056883796717 -0.011011406152 0.0012681136022 -0.00086531640456 -0.011226397172 
0 0 -0.0098744152677 0.0013530694417 -0.00032574858025 -0.010246952617 0 0 -0.0098744152677 
0 0 -0.0098744152677 0.0016338832763 0.0018282952597 -0.01047563357 0 0 -0.0098744152677 
0 0 -0.0098744152677 0 0 -0.0098744152677 0.001462767585 -0.0011123892187 -0.0083718511203 
6.9832071397e-06 0.00012432564497 -0.0099061710915 0 0 -0.0098744152677 0 0 -0.0098744152677 
-0.0003338679909 -0.0019110947632 -0.0098474627642 -0.0024318892772 -0.0043851706629 -0.0096888140781 0 0 -0.0098744152677 
0 0 -0.0098744152677 0 0 -0.0098744152677 0 0 -0.0098744152677 
0.00015978184997 -0.00024788130568 -0.0098290362838 3.1525405964e-05 -0.00010467814493 -0.0098965217768 0.0011353263601 0.0014489191914 -0.011004484393 
0.00035975246633 -4.8713298902e-05 -0.010036342555 -0.00059395812111 0.00087333383495 -0.010288648963 0 0 -0.0098744152677 
0 0 -0.0098744152677 -0.0010218734123 -0.0018140173459 -0.0089290710911 0 0 -0.0098744152677 
0 0 -0.0098744152677 0 0 -0.0098744152677 0 0 -0.0098744152677 
0 0 -0.0098744152677 0 0 -0.0098744152677 -0.0053918581495 0.0045795266873 -0.0053667918968 
-0.0026440438381 0.0029266856021 -0.011350393457 0 0 -0.0098744152677 0.00015487569871 0.00023027654643 -0.0096410075538 
0 0 -0.0098744152677 0 0 -0.0098744152677 0 0 -0.0098744152677 
0 0 -0.0098744152677 
radius 1 70 double
0.003 0.003 0.003 0.003 0.003 0.003 0.003 0.003 0.003 
0.003 0.003 0.003 0.003 0.003 0.003 0.003 0.003 0.003 
0.003 0.003 0.003 0.003 0.003 0.003 0.003 0.003 0.003 
0.003 0.003 0.003 0.003 0.003 0.003 0.003 0.003 0.003 
0.003 0.003 0.003 0.003 0.003 0.003 0.003 0.003 0.003 
0.003 0.003 0.003 0.003 0.003 0.003 0.003 0.003 0.003 
0.003 0.003 0.003 0.003 0.003 0.003 0.003 0.003 0.003 
0.003 0.003 0.003 0.003 0.003 0.003 0.003 
omega 3 70 double
1.4299376076 -5.5738931283 0.6570072056 0.70846412204 -3.8708034447 5.1882794252 -4.1508438998 1.0462461154 -0.57147457283 
4.0173527561 0.56219945076 0.66561921484 0.74788943992 0.76392248737 2.2352140147 -0.32339174305 0.44378633656 1.0882373068 
3.1423787698 -0.50282277049 0.80216101697 2.6664847475 -0.42823853529 -0.40237100137 0.71012545642 -1.4934767856 3.7717946005 
1.6483354251 3.1641482189 -3.2022309832 3.9378276769 -3.0192089237 0.83319772967 1.4467308948 0.18018135555 3.2878784695 
3.5873853963 -0.41441724586 3.7226369304 -3.5280116981 -2.3275611295 1.8424115409 1.2357452664 -3.1668975078 3.0659629437 
0.31408506957 -2.1194427469 1.2771506999 1.2238504561 -3.1446778099 -3.0067271317 1.8377689209 1.7369561225 2.0592773296 
1.2150095813 -0.69611655809 3.9567911013 1.0043062217 -1.1383783232 1.9286598811 5.8501116136 6.794189182 -1.1357479469 
1.430778114 0.3614142577 2.0904431461 4.3193229605 -2.2821166593 -0.84103443693 5.7639630783 0.059828826386 -2.1354126851 
1.8063804642 -0.23021652828 -2.7445337918 2.2103994285 -2.7828646761 0.90486066519 2.3359662558 -1.5035730334 -0.68808560756 
-0.85596934946 -0.416862035 -0.75739297562 0.10810743392 -0.46215723244 -3.1658969893 2.241780135 3.7336208016 0.0023389671353 
1.3414187079 -0.1390518129 -0.85056837459 0.45964142455 -1.0144603446 0.079785506846 3.5691757015 -0.081877869031 3.8544965922 
-4.1043550889 -2.6626161761 3.3717264826 -6.805072709 -5.1845715073 14.473079332 1.2529966429 -3.6807448141 -9.566441726 
1.6993503729 -5.4978672267 -2.8111781899 -2.9341847309 10.207232126 -12.631013377 0.34133632656 -0.53213174026 1.3145825762 
-2.4860575508 0.16869812353 5.6403499327 7.2081066793 0.66605900836 9.5492431346 0.70147251827 1.2570282029 3.6921465881 
-5.9272130829 -1.2442525534 -3.7049028078 4.144905699 2.6312088202 0.076268526848 6.0657354436 -0.52025015258 -6.8727286134 
3.4369726248 3.8370780737 -10.074078167 -0.98177183689 0.79464046107 -7.4769776059 9.0173554119 -7.3426765001 -0.073237819549 
-0.2660531303 -0.18687627098 1.0576033205 0.6167408852 1.47960054 2.01670865 -1.3128107276 1.2391801634 -2.4148030492 
-4.0395671484 -2.5404897589 -7.3274807553 1.7337106159 -0.041653683614 1.1518145037 0.73085789445 4.1155640005 -5.4237025089 
-0.48952196092 0.22044434152 -1.3681991142 4.2311453895 -1.1800518072 -3.3506098644 0.91447443065 1.0741071494 4.857480395 
-0.63818781113 2.4661893259 11.844109459 -0.89201889477 -11.891086263 13.300653354 4.2687692347 4.3870510241 -3.3970919238 
6.582737711 -3.3710749101 -2.1291978989 3.4579033277 4.1403353636 -0.23728763436 -2.9591919356 -0.11050757295 -8.3747246886 
-1.1442247823 -3.5447209053 -0.13927706402 4.1547548147 -3.2942292893 1.648076975 -1.6193303839 9.9015726561 -6.5841545101 
5.0670787969 -0.98386701374 -3.3485082612 -2.4109843049 -6.0584117851 -4.1872820398 -12.511131682 -18.34290172 6.2891312594 
-11.654793041 -7.2188858387 -0.21746830855 
