# vtk DataFile Version 4.2
Generated by LIGGGHTS
ASCII
DATASET POLYDATA
POINTS 70 float
0.0114581 -0.0368894 0.00699838 -0.0237986 -0.0238458 0.00699828 -0.00516478 -0.0202765 0.00953845 
0.0278628 -0.0211398 0.0135785 0.0230261 -0.0153722 0.00699752 -0.0253441 -0.00911908 0.0113724 
-0.0187622 -0.00161635 0.0107676 -0.00540934 -0.000824611 0.0069993 0.0045111 -0.00742059 0.00934088 
0.0159819 -0.000463851 0.0109253 0.0119743 0.00781084 0.0069976 0.0247776 0.00517861 0.00975104 
-0.0327818 0.0126216 0.00699878 -0.0248283 0.0178785 0.0100133 -0.000589488 0.0181855 0.0102347 
0.00562292 0.011265 0.0139045 -0.0125072 0.0218876 0.00749382 0.00288389 0.0293428 0.00699795 
0.0229398 0.0220761 0.0070533 -0.000836415 -0.0222524 0.0217332 0.0205449 -0.00875754 0.0144138 
-0.00820969 0.00387825 0.0164056 -0.0114136 0.0133337 0.0169576 0.0101142 0.0160929 0.0215669 
0.0225476 0.010684 0.0232497 0.0057422 0.0299437 0.0204631 -0.0141535 -0.0327213 0.0297117 
-0.000932095 -0.0397253 0.0283781 -0.00426073 -0.0305304 0.0304676 -0.0203286 -0.0203268 0.0274441 
-0.00721645 -0.018164 0.0282577 0.00504079 -0.0176016 0.0283518 0.019833 -0.0173874 0.0279802 
0.0294059 -0.0112395 0.0311967 -0.00674141 -0.00769605 0.0261014 0.0291985 -0.00143261 0.0292522 
-0.0127277 0.00477301 0.0347275 -0.00474817 0.00179301 0.0286245 0.0109787 0.0038892 0.0330456 
-0.012138 0.0145033 0.032501 0.0040476 0.0289293 0.0322747 0.0115002 0.0244725 0.0273158 
0.0295522 0.021592 0.0316808 0.00282281 -0.0325029 0.0374722 -0.0125618 -0.0252659 0.0410811 
0.0107596 -0.0251496 0.041906 -0.0216844 -0.0136966 0.0449292 0.00295226 -0.0199709 0.0378388 
0.0380504 -0.0114132 0.036744 -0.0161152 -0.00371844 0.0393055 -0.000240087 -0.00253142 0.0366106 
0.0163072 -0.00078957 0.0443757 0.0206867 -0.00931641 0.0414084 -0.0315248 0.00143338 0.0398353 
-0.0193531 0.0218709 0.0395089 -0.006833 0.0267618 0.0404402 0.0116872 0.0258019 0.0379173 
-0.0090512 -0.0234547 0.0502674 0.020305 -0.0299045 0.0510236 -0.033638 -0.0136575 0.0531292 
0.0289081 -0.0133596 0.0475458 -0.0282449 -0.001882 0.0510298 -0.00557575 -0.00708143 0.0460092 
-0.0208779 0.00686567 0.0466713 -0.0126155 0.00283972 0.0506102 -0.0020702 0.00309101 0.0460998 
0.00615957 0.000137387 0.051779 0.0273787 0.00968743 0.0508261 -0.00966207 0.0205185 0.0524101 
4.56628e-05 0.0204071 0.0471149 
VERTICES 70 140
1 0 
1 1 
1 2 
1 3 
1 4 
1 5 
1 6 
1 7 
1 8 
1 9 
1 10 
1 11 
1 12 
1 13 
1 14 
1 15 
1 16 
1 17 
1 18 
1 19 
1 20 
1 21 
1 22 
1 23 
1 24 
1 25 
1 26 
1 27 
1 28 
1 29 
1 30 
1 31 
1 32 
1 33 
1 34 
1 35 
1 36 
1 37 
1 38 
1 39 
1 40 
1 41 
1 42 
1 43 
1 44 
1 45 
1 46 
1 47 
1 48 
1 49 
1 50 
1 51 
1 52 
1 53 
1 54 
1 55 
1 56 
1 57 
1 58 
1 59 
1 60 
1 61 
1 62 
1 63 
1 64 
1 65 
1 66 
1 67 
1 68 
1 69 

POINT_DATA 70
FIELD FieldData 7
id 1 70 int
44 732 1464 837 912 1986 1606 936 895 
1371 663 720 467 208 1438 1782 385 1157 
595 2267 398 2166 1751 2117 2149 1929 2782 
2509 2454 2873 2996 2710 2790 3102 2640 2566 
3057 2252 3510 3206 3209 3228 3475 3932 4179 
4006 4181 3841 3364 4052 3265 4362 4280 3857 
3770 3909 3724 5377 4989 4708 4482 5353 5397 
4796 5509 5103 5420 5050 5402 4610 
type 1 70 int
2 2 2 2 2 2 2 2 2 
2 2 2 2 2 2 2 2 2 
2 2 2 2 2 2 2 2 2 
2 2 2 2 2 2 2 2 2 
2 2 2 2 2 2 2 2 2 
2 2 2 2 2 2 2 2 2 
2 2 2 2 2 2 2 2 2 
2 2 2 2 2 2 2 
i 3 70 int
0 0 0 0 0 0 0 0 0 
0 0 0 0 0 0 0 0 0 
0 0 0 0 0 0 0 0 0 
0 0 0 0 0 0 0 0 0 
0 0 0 0 0 0 0 0 0 
0 0 0 0 0 0 0 0 0 
0 0 0 0 0 0 0 0 0 
0 0 0 0 0 0 0 0 0 
0 0 0 0 0 0 0 0 0 
0 0 0 0 0 0 0 0 0 
0 0 0 0 0 0 0 0 0 
0 0 0 0 0 0 0 0 0 
0 0 0 0 0 0 0 0 0 
0 0 0 0 0 0 0 0 0 
0 0 0 0 0 0 0 0 0 
0 0 0 0 0 0 0 0 0 
0 0 0 0 0 0 0 0 0 
0 0 0 0 0 0 0 0 0 
0 0 0 0 0 0 0 0 0 
0 0 0 0 0 0 0 0 0 
0 0 0 0 0 0 0 0 0 
0 0 0 0 0 0 0 0 0 
0 0 0 0 0 0 0 0 0 
0 0 0 
v 3 70 double
-1.9480877396e-07 3.9277375227e-07 -9.3998232631e-08 1.8781952619e-08 -7.632390801e-08 6.0404289394e-08 -1.2981061336e-07 -1.0878477437e-08 1.9486360547e-08 
2.3748207128e-07 -4.0042593444e-07 -3.2106589523e-07 -5.997979443e-07 2.7146693593e-07 -1.7672462572e-08 -1.2466275058e-07 7.9424145095e-08 2.0484660401e-08 
-6.8883960796e-08 -1.5670597833e-07 -9.6659003297e-08 3.6330060428e-07 -2.4628355514e-07 -6.3594460807e-07 -2.9914992406e-07 1.4779247916e-07 -6.9601540365e-07 
3.7851483207e-07 8.5081920096e-08 -1.2489282612e-07 8.9271395187e-09 1.5769833282e-07 -2.1692609847e-07 -5.2021052949e-07 2.7137856709e-07 -1.3558900297e-06 
7.5804005075e-07 1.6645575421e-06 -1.2529012632e-06 -6.159759911e-07 1.1601503826e-06 8.2029782753e-07 -5.2468246591e-07 4.8561643173e-07 1.3338838977e-07 
1.7190258609e-07 2.5896441743e-07 3.2624187957e-07 1.2935721115e-06 -5.367683581e-07 -2.0835331021e-06 -1.139465998e-06 4.5293888974e-07 3.3445125492e-07 
5.724588826e-07 1.7949996672e-07 -1.5269765813e-07 1.5089356858e-07 2.6097108934e-07 7.256034854e-08 2.364258312e-07 1.8148925856e-07 5.1459771695e-07 
1.8075198963e-07 1.6641830834e-07 1.3687755927e-07 -3.276097296e-07 -4.4120462875e-07 1.4025404002e-07 1.6204630134e-07 -1.969259843e-07 5.633471786e-08 
1.0884117311e-07 4.4896289993e-08 -2.0455501612e-07 -2.1199001476e-07 -2.617403037e-07 4.0117031951e-07 1.0426828065e-07 3.3747348249e-09 4.7652143036e-08 
-1.3399533895e-09 1.6568702677e-08 9.3433094561e-08 -3.8049441445e-08 8.6499099537e-08 -1.2856052313e-07 2.4688310488e-07 -1.8055615872e-07 1.6296604935e-07 
1.2309694504e-07 5.826913093e-08 7.9744628233e-08 3.942729445e-07 5.14051835e-08 8.81952244e-07 -2.2446769023e-07 1.2425653876e-07 -5.0356260197e-07 
-5.5496118818e-07 -4.2839198451e-07 1.2412967964e-07 1.5148926428e-07 5.0548328258e-08 1.4800855295e-07 -8.6444767254e-08 3.7916188384e-07 -3.067325195e-07 
8.1206492369e-08 -1.5174584283e-07 -1.9358927918e-07 4.9051620706e-08 2.2398309892e-07 -8.2253324524e-09 -1.5981967806e-07 2.9169141829e-08 2.3756282025e-07 
-7.6033369353e-08 2.2763953271e-07 6.3947621349e-07 -2.4204088491e-07 7.5334145173e-08 2.0642000054e-08 1.5525756252e-07 -4.315835799e-07 3.4467110554e-08 
-3.9931411612e-08 1.4347611898e-07 -1.2721466898e-07 1.8185603469e-09 6.0493844024e-08 -2.6796224956e-07 -1.3124767551e-07 -2.3329367682e-07 -3.569427201e-07 
-1.4489930352e-07 2.3916012295e-07 -2.6658807557e-07 4.5493848075e-08 -2.7938633614e-08 -1.6534239455e-08 -1.9136852254e-08 5.7835362806e-08 -2.5057601852e-07 
1.0195131489e-07 -3.9895845463e-08 -1.2389617418e-08 -1.1221642529e-07 -5.9730520665e-08 -6.2403597221e-08 3.6733455672e-08 2.6421454135e-07 4.6345611523e-08 
2.1145146916e-08 2.9727823754e-08 7.1819051157e-08 6.5156613085e-08 4.6020648318e-08 3.2327404762e-08 1.5908684424e-07 -6.1100052504e-08 8.4488254733e-08 
-2.4315389424e-07 -2.1345140774e-08 7.9501454218e-07 3.199929478e-07 -3.4911042893e-07 1.0811936964e-07 -2.4447244738e-08 -2.958354795e-07 -8.771204404e-08 
-6.3078252357e-08 -1.6210373219e-08 2.6129646864e-08 9.2162850171e-09 8.3557350831e-08 -8.9908328337e-08 -3.943770284e-09 1.7104563781e-07 -8.0552937733e-08 
-1.7640037194e-07 -7.4268716523e-08 4.3977110186e-08 -7.255167224e-08 6.4258607605e-08 -6.1857581265e-09 2.6536174026e-07 2.8578512063e-07 -2.729819353e-07 
-8.8776001025e-08 -1.1711167139e-07 1.0319195542e-07 -1.8646799002e-07 3.1560404476e-07 -9.8076467263e-08 -2.5941303606e-08 -3.0838941385e-07 -4.5482874494e-08 
1.4051855087e-07 -1.4001208501e-07 2.3480115686e-08 -5.7114683251e-08 2.8223093784e-08 -1.0758295846e-07 -9.4137228008e-07 2.8736364642e-07 -2.3168274793e-07 
-9.4787232577e-08 2.2491237342e-07 -8.9452094923e-08 
f 3 70 double
-0.00012721697561 6.2610046533e-05 0.00011376023851 0.00026982601798 0.00028833303916 0.00026924639407 0.00010516933536 -9.1355726548e-05 -0.00033475166676 
-0.00034592397588 0.00011288194943 -0.00026214280877 -0.00033585988573 -3.1158010605e-05 0.00017110344992 0.00019833803984 0.00011426624719 -9.5734047783e-05 
-0.00012295108126 5.7117377132e-05 0.00013725718839 3.8026018281e-05 -7.8580744351e-05 0.0001225611883 -0.00020401492856 0.00030344659409 -0.00066206316466 
0.0006718840044 2.7197042835e-05 0.0002054231033 -2.7232439562e-06 0.00029681787633 -9.4230813312e-05 6.6746448154e-05 -0.00033101877304 2.6927893089e-05 
-0.00012824183642 7.5689596955e-05 -0.00012132948177 -0.0002718257972 0.00020760519855 -0.00041588376673 8.1800601893e-05 5.5423603201e-05 0.00020673084143 
0.00021883299372 0.0001123225667 -0.00014849475622 0.00028458466915 -0.00055677575375 0.00035647334689 0.00051810592346 0.0001177673159 1.2932767671e-05 
-0.00010325200511 -0.00040126482225 -0.00050776427774 8.9217594222e-06 -0.00010688830182 -7.2679873611e-05 -0.00017145742842 -0.00020269188702 0.00017607962477 
-6.4333283301e-06 0.00036778466196 -0.00024688667634 0.00029078548702 -0.00040282088802 -0.00022595172341 -0.00027184432653 1.7154349143e-05 -6.9262614333e-05 
-6.371946087e-05 -0.0002060772987 5.0798566776e-06 -8.113463885e-05 -0.00027921196719 2.8882949499e-05 9.6485554541e-06 -9.7186248726e-05 3.5850080634e-05 
-1.5305128731e-05 4.7361141615e-05 -9.7273007903e-05 -7.5779516909e-05 1.2977647586e-05 -7.6207112872e-05 1.7806780186e-05 -2.9566747345e-05 7.5067478867e-05 
-0.00012650238048 -0.00010389643652 1.1810405687e-05 3.5209931327e-05 7.3587061488e-05 -6.721882406e-05 -7.8411621826e-05 0.00021022201303 0.00021029886359 
-0.00034944700252 0.00014941888893 0.00011468613491 -2.6709537581e-05 -1.6503001562e-05 5.003698281e-05 -4.6374356495e-05 6.9629168136e-05 1.0079462325e-05 
-0.00027640296043 -7.5813252411e-05 -1.0327507718e-05 0.00014562262175 0.00020842176053 0.00017618517635 -2.4539460744e-05 -3.9050351271e-06 -0.00014228367147 
-4.6572794103e-05 -0.0001196226927 0.000172501482 5.2077987749e-05 2.3210687282e-05 -2.5363527997e-05 0.00017483000297 -4.6240097505e-05 4.2905899924e-05 
0.00014450644107 7.1614235073e-06 -9.029722588e-05 -2.8619974921e-06 4.9559928779e-06 -3.160207952e-05 -3.2725729527e-05 2.8879135463e-05 1.9952566335e-05 
-2.2065095992e-06 1.4979661223e-05 1.4366260788e-05 5.5922681708e-05 1.9967628667e-05 -4.1833416566e-05 -1.5360633121e-05 -2.114758508e-05 1.0092575834e-05 
-1.3823212252e-06 -7.7961659177e-05 -7.1039982755e-05 8.5735187236e-05 1.6016036682e-05 -6.5154158399e-05 -5.6618702387e-07 1.0847687866e-05 -4.3499730263e-05 
6.4143694752e-06 2.2996023755e-05 7.9076137428e-06 -8.995882757e-05 3.8404623901e-05 -3.2767543291e-05 -4.3988871531e-05 9.3995957402e-05 -2.538858224e-05 
-9.1364595676e-05 2.6278903754e-05 0.00010600223786 -0.0001623300773 6.370797537e-05 8.063282514e-05 -3.5383396968e-05 3.1902816548e-05 -1.5267914723e-05 
1.9135785632e-05 1.3899817948e-06 -8.2968795494e-08 -1.1819419134e-05 -1.1644135582e-05 5.6744262825e-06 -0.0001371347964 -3.9776592721e-05 -7.9614715638e-06 
2.0939926549e-06 -1.1221810055e-05 6.3789261139e-05 -1.2809260802e-05 1.6974068826e-06 1.1829132207e-05 -9.3304162607e-05 -0.00013383779749 5.8244117831e-05 
-9.0497014817e-05 5.1725118491e-05 4.0352560012e-05 9.4608765704e-06 4.1938690958e-07 1.481634338e-05 6.0091187014e-05 -3.6433072034e-06 -1.7638703339e-05 
-2.0495683551e-05 -3.0769479173e-05 -4.5349084594e-06 -6.7200383346e-05 -1.1773942501e-06 -2.5453618703e-05 6.9850365675e-05 -1.5078928347e-05 1.9060984465e-05 
3.8974984858e-05 -2.0855018091e-05 -4.9338759962e-07 
radius 1 70 double
0.005 0.005 0.005 0.005 0.005 0.005 0.005 0.005 0.005 
0.005 0.005 0.005 0.005 0.005 0.005 0.005 0.005 0.005 
0.005 0.005 0.005 0.005 0.005 0.005 0.005 0.005 0.005 
0.005 0.005 0.005 0.005 0.005 0.005 0.005 0.005 0.005 
0.005 0.005 0.005 0.005 0.005 0.005 0.005 0.005 0.005 
0.005 0.005 0.005 0.005 0.005 0.005 0.005 0.005 0.005 
0.005 0.005 0.005 0.005 0.005 0.005 0.005 0.005 0.005 
0.005 0.005 0.005 0.005 0.005 0.005 0.005 
omega 3 70 double
-0.00016037405026 4.5115301617e-05 0.00018009126905 -3.3507452195e-06 -1.4393829631e-05 -5.6092500672e-05 6.0130178308e-05 -9.0527668326e-06 2.7207377991e-06 
0.00022850815926 -0.00076918596595 0.00016383088809 4.9311039819e-05 0.00015959064795 0.00019445678167 -9.635537112e-06 -4.3444949019e-05 -2.8574307605e-05 
-2.5766812104e-05 -1.3063079015e-05 -6.0537369558e-07 -9.5901881559e-05 6.288020782e-05 3.0273023937e-05 -3.9512842007e-05 0.00029597442891 0.00012397188641 
-2.3083369378e-05 0.0002239043459 0.00020392161279 -0.00011544999701 -5.7130749893e-06 -2.3727642298e-05 0.0004066946861 0.00020064381069 -0.0003112370196 
-0.00039852366647 0.000360939225 0.00021137204445 -0.00069906376234 0.000473568107 0.00033444684738 -3.3908889144e-05 1.5775620664e-05 -8.4718860025e-05 
4.1722753933e-05 -9.7177897639e-05 -8.1379338674e-05 3.3094386726e-05 -0.00082214392083 -0.00012655740698 -9.819575327e-05 -8.0571774416e-05 0.00070342332367 
7.3285711066e-05 -0.00039352339779 0.00015798576761 6.6873668949e-05 -2.8229269419e-05 -5.8127032235e-05 5.8443910758e-05 2.0545178738e-05 0.00059601022435 
-0.00010558584962 -9.2158729763e-05 -9.0852789239e-05 5.8968828344e-05 7.864882944e-05 -8.3313185426e-05 6.0100334439e-05 1.8179048259e-05 -0.000114062891 
-1.95980515e-05 1.9610456769e-05 -3.3711610029e-05 -0.00018765999626 -2.0149031753e-05 0.00010755554084 5.9279926541e-05 6.613293043e-05 -9.0345917609e-05 
2.5616604902e-05 -2.1244674154e-05 -1.2460254372e-05 -1.5555830466e-05 3.1111444685e-05 -1.5085604862e-05 1.5684061154e-05 -8.4331860971e-05 -0.00014237761915 
4.3760003641e-05 -3.2010505887e-05 -5.7273077432e-05 0.0001514301719 -0.00043954383532 2.4109118784e-05 -0.00019438458102 -0.00017971024865 -5.6861413548e-05 
-0.00022469747276 0.00050311600441 3.2643470815e-05 -3.1100210594e-05 2.0118273706e-05 -3.4328648452e-05 3.6522235066e-05 -4.3121783057e-05 4.7772589769e-05 
9.5317931712e-05 1.8738247695e-05 1.2063131337e-05 -6.2043756337e-05 5.5740888401e-06 3.0855803183e-05 4.0133862503e-05 6.1909078725e-05 6.1542857325e-06 
5.6623862824e-05 -1.058920825e-05 1.1961803639e-05 1.0207229071e-05 -1.7123314593e-05 -1.2801366774e-05 -0.00016405288582 -9.3418908765e-05 -2.758538289e-05 
-6.6038916194e-05 -7.2605108394e-05 -5.1258274168e-05 -1.3233746048e-05 4.5853628387e-05 -3.1327928819e-05 -5.1329368229e-05 0.00015006679194 0.00013391071887 
-7.1027776616e-05 0.0001340239387 -1.8636714733e-05 -5.1648854525e-05 1.8312682923e-05 1.6377794195e-05 -2.8787400697e-05 -4.4173762564e-05 -2.2109617977e-05 
1.5399057737e-05 4.4051270188e-05 0.00012599187127 -3.5727729797e-05 -4.1797792315e-05 -9.6698747094e-05 4.0987531586e-05 0.0001041553485 -3.882811357e-06 
6.5996554206e-06 1.4659280131e-05 1.0261513204e-06 1.0119950829e-05 1.9359206539e-05 7.3007202334e-06 -0.00010712381599 -5.4883795671e-05 2.7238504814e-05 
2.0874769518e-06 -9.9136138345e-05 -4.4102387649e-05 1.8666087375e-05 0.000201968864 0.00021890645455 4.5807937786e-05 -3.5937476218e-05 -6.2588363791e-05 
-6.8103547681e-05 2.7356089936e-05 4.6740595881e-05 -3.6028805055e-05 3.7915170044e-05 1.6736310726e-06 5.7845812231e-05 -3.7167663431e-05 8.5103562413e-05 
-5.2067584817e-05 4.8209032343e-06 -3.9732356405e-05 -3.9256811802e-05 -6.661362668e-05 1.0233766884e-05 5.1131307514e-05 -0.0001024736031 -0.00011656981724 
9.3708000275e-05 8.1596326846e-05 4.1814812477e-05 -6.3088632753e-05 -8.4600016676e-05 -3.7971480227e-05 -7.8533783883e-05 1.5454967971e-05 -3.9692078233e-05 
-2.550644986e-05 7.791274408e-06 3.5953847433e-05 -1.1366290096e-05 -2.0918720191e-06 3.6556881311e-05 -4.3720728373e-06 0.00012247686931 7.3883928863e-05 
-4.2794952027e-05 -2.8036922731e-05 -2.5955567164e-05 
