# vtk DataFile Version 4.2
Generated by LIGGGHTS
ASCII
DATASET POLYDATA
POINTS 70 float
0.0114581 -0.0368894 0.00699838 -0.0237986 -0.0238458 0.00699828 -0.00516478 -0.0202765 0.00953845 
0.0278628 -0.0211398 0.0135785 0.0230261 -0.0153722 0.00699752 -0.0253441 -0.00911908 0.0113724 
-0.0187622 -0.00161635 0.0107676 -0.00540934 -0.000824611 0.0069993 0.0045111 -0.00742059 0.00934088 
0.0159819 -0.000463851 0.0109253 0.0119743 0.00781084 0.0069976 0.0247776 0.00517861 0.00975104 
-0.0327818 0.0126216 0.00699878 -0.0248283 0.0178785 0.0100133 -0.000589488 0.0181855 0.0102347 
0.00562292 0.011265 0.0139045 -0.0125072 0.0218876 0.00749382 0.00288389 0.0293428 0.00699795 
0.0229398 0.0220761 0.0070533 -0.000836414 -0.0222524 0.0217332 0.0205449 -0.00875754 0.0144138 
-0.00820969 0.00387825 0.0164056 -0.0114136 0.0133337 0.0169576 0.0101142 0.0160929 0.0215669 
0.0225476 0.010684 0.0232497 0.0057422 0.0299437 0.0204631 -0.0141535 -0.0327213 0.0297117 
-0.000932094 -0.0397253 0.0283781 -0.00426073 -0.0305304 0.0304676 -0.0203286 -0.0203268 0.0274441 
-0.00721645 -0.018164 0.0282577 0.00504079 -0.0176016 0.0283518 0.019833 -0.0173874 0.0279802 
0.0294059 -0.0112395 0.0311967 -0.00674141 -0.00769605 0.0261014 0.0291985 -0.00143261 0.0292522 
-0.0127277 0.00477301 0.0347275 -0.00474817 0.00179301 0.0286245 0.0109787 0.0038892 0.0330456 
-0.012138 0.0145033 0.032501 0.0040476 0.0289293 0.0322747 0.0115002 0.0244725 0.0273158 
0.0295522 0.021592 0.0316808 0.00282281 -0.0325029 0.0374722 -0.0125618 -0.0252659 0.0410811 
0.0107596 -0.0251496 0.041906 -0.0216844 -0.0136966 0.0449292 0.00295226 -0.0199709 0.0378388 
0.0380504 -0.0114132 0.036744 -0.0161152 -0.00371844 0.0393055 -0.000240087 -0.00253142 0.0366106 
0.0163072 -0.000789572 0.0443757 0.0206867 -0.00931641 0.0414084 -0.0315248 0.00143338 0.0398353 
-0.0193531 0.0218709 0.0395089 -0.006833 0.0267618 0.0404402 0.0116872 0.0258019 0.0379173 
-0.0090512 -0.0234547 0.0502674 0.020305 -0.0299045 0.0510236 -0.0336379 -0.0136575 0.0531292 
0.0289081 -0.0133596 0.0475458 -0.0282449 -0.001882 0.0510298 -0.00557575 -0.00708143 0.0460092 
-0.0208779 0.00686567 0.0466713 -0.0126155 0.00283972 0.0506102 -0.0020702 0.00309101 0.0460998 
0.00615957 0.000137386 0.051779 0.0273787 0.00968743 0.0508261 -0.00966207 0.0205185 0.0524101 
4.56629e-05 0.0204071 0.0471149 
VERTICES 70 140
1 0 
1 1 
1 2 
1 3 
1 4 
1 5 
1 6 
1 7 
1 8 
1 9 
1 10 
1 11 
1 12 
1 13 
1 14 
1 15 
1 16 
1 17 
1 18 
1 19 
1 20 
1 21 
1 22 
1 23 
1 24 
1 25 
1 26 
1 27 
1 28 
1 29 
1 30 
1 31 
1 32 
1 33 
1 34 
1 35 
1 36 
1 37 
1 38 
1 39 
1 40 
1 41 
1 42 
1 43 
1 44 
1 45 
1 46 
1 47 
1 48 
1 49 
1 50 
1 51 
1 52 
1 53 
1 54 
1 55 
1 56 
1 57 
1 58 
1 59 
1 60 
1 61 
1 62 
1 63 
1 64 
1 65 
1 66 
1 67 
1 68 
1 69 

POINT_DATA 70
FIELD FieldData 7
id 1 70 int
44 732 1464 837 912 1986 1606 936 895 
1371 663 720 467 208 1438 1782 385 1157 
595 2267 398 2166 1751 2117 2149 1929 2782 
2509 2454 2873 2996 2710 2790 3102 2640 2566 
3057 2252 3510 3206 3209 3228 3475 3932 4179 
4006 4181 3841 3364 4052 3265 4362 4280 3857 
3770 3909 3724 5377 4989 4708 4482 5353 5397 
4796 5509 5103 5420 5050 5402 4610 
type 1 70 int
2 2 2 2 2 2 2 2 2 
2 2 2 2 2 2 2 2 2 
2 2 2 2 2 2 2 2 2 
2 2 2 2 2 2 2 2 2 
2 2 2 2 2 2 2 2 2 
2 2 2 2 2 2 2 2 2 
2 2 2 2 2 2 2 2 2 
2 2 2 2 2 2 2 
i 3 70 int
0 0 0 0 0 0 0 0 0 
0 0 0 0 0 0 0 0 0 
0 0 0 0 0 0 0 0 0 
0 0 0 0 0 0 0 0 0 
0 0 0 0 0 0 0 0 0 
0 0 0 0 0 0 0 0 0 
0 0 0 0 0 0 0 0 0 
0 0 0 0 0 0 0 0 0 
0 0 0 0 0 0 0 0 0 
0 0 0 0 0 0 0 0 0 
0 0 0 0 0 0 0 0 0 
0 0 0 0 0 0 0 0 0 
0 0 0 0 0 0 0 0 0 
0 0 0 0 0 0 0 0 0 
0 0 0 0 0 0 0 0 0 
0 0 0 0 0 0 0 0 0 
0 0 0 0 0 0 0 0 0 
0 0 0 0 0 0 0 0 0 
0 0 0 0 0 0 0 0 0 
0 0 0 0 0 0 0 0 0 
0 0 0 0 0 0 0 0 0 
0 0 0 0 0 0 0 0 0 
0 0 0 0 0 0 0 0 0 
0 0 0 
v 3 70 double
-5.6936480251e-07 -6.8583335875e-08 -1.0789432403e-07 -8.6422518467e-08 -8.0816534523e-08 -1.2674807378e-07 -1.0209365411e-07 1.582981656e-07 -9.6483625263e-08 
-1.0441783836e-07 1.3122992368e-07 6.3163859018e-07 3.1317918855e-07 -2.0365096199e-07 -4.4677368663e-07 -2.422554938e-08 3.6195330647e-08 -1.7271343206e-07 
2.1841278608e-07 1.8276102753e-07 -1.2089423695e-08 -3.8365959155e-07 1.9398870663e-07 7.9567504209e-07 2.4434093342e-07 1.1932617608e-07 9.4814203139e-07 
4.0422725065e-08 -1.749217769e-07 3.9105958021e-07 3.9180548789e-08 1.7035937971e-07 3.3714486692e-07 3.9439922982e-07 -7.9856303387e-09 7.0688982003e-07 
-1.7849337294e-07 -1.013951608e-06 7.8497674209e-07 1.286331903e-06 -2.8056098862e-07 -2.0480402845e-07 6.6426516379e-07 -3.8329972502e-07 -1.1260608002e-07 
-1.5715686283e-07 -2.0676994258e-09 1.3602922465e-07 -7.1885753046e-07 -5.7010836904e-07 2.1034841811e-06 -9.4394719079e-07 2.8038260525e-07 2.1138815694e-07 
-3.7408409991e-07 -5.7878833528e-07 3.1844477854e-08 -1.733193663e-07 -1.7228166332e-07 -1.4730251786e-07 3.2978165589e-07 -6.011361213e-07 6.1977383911e-08 
-2.3733055161e-07 -1.5614137543e-07 -6.7775722889e-08 8.9896108701e-08 6.2195485787e-07 1.5144383576e-07 -6.3026311394e-07 9.7172528958e-08 2.5956051209e-07 
8.1083185003e-08 -1.3607382044e-07 -2.7754872632e-08 1.0696388591e-07 9.5596000738e-08 -1.3700668711e-07 2.2941891141e-07 8.9713919487e-08 5.1977886829e-08 
-1.4859679185e-08 -1.1408996072e-07 1.2267948342e-07 5.0548169445e-09 -9.4447009253e-08 -7.5121115418e-08 3.7956889011e-07 -5.3602740436e-08 3.132330249e-07 
-1.0647356174e-07 -2.6902795067e-07 -7.3929390491e-08 -6.0595087941e-07 1.0065343363e-07 -5.8659709089e-07 1.1579265443e-06 -5.9770087858e-07 -3.8832775964e-07 
-6.8716491172e-07 -1.5061434392e-07 7.4383118269e-07 2.8561791995e-07 -2.6758670918e-08 -8.3482433925e-08 9.4596008847e-08 -6.3555824254e-07 -4.6865076806e-07 
1.1102605081e-07 -3.2072974821e-08 -1.9179848088e-07 1.4861936253e-07 1.5674957998e-07 -2.2090032558e-07 -1.0504062138e-07 -2.3464269395e-07 3.5991298271e-08 
-1.953819442e-07 -9.3825295361e-08 4.8113181972e-07 -9.2372270904e-08 -2.1207254015e-08 -4.7955380383e-08 3.7592307861e-07 -1.1091358613e-07 2.7482551601e-07 
5.002300126e-08 6.2098903367e-08 -9.4230621693e-08 1.1051815623e-07 -1.237090523e-07 -4.6709386023e-08 -7.5911618305e-08 -8.7782354118e-08 -3.097104374e-07 
9.7227074011e-08 1.40117055e-07 -3.6691834977e-08 3.2717133314e-08 1.170231174e-07 5.2811961572e-08 1.5603138498e-07 -1.8008001605e-07 -2.2621993537e-07 
-1.6733967646e-07 -2.5499537143e-07 -4.4565624095e-07 -4.677413116e-09 -1.2975788976e-07 -5.7421389402e-08 -2.5705095403e-07 3.7173674084e-07 2.3647420558e-07 
1.3206371743e-07 -7.4052017961e-08 -1.2795704837e-07 2.6745730297e-07 1.1462562112e-07 -1.6538254916e-07 -1.0642541555e-07 2.133870994e-07 5.3383297444e-08 
-2.3798469393e-07 3.0717579401e-08 -1.0014978483e-07 4.8812786585e-07 -1.884659208e-07 3.9971973772e-08 -1.9117855605e-07 -6.4644938253e-08 6.5605110077e-08 
2.0819211061e-07 7.4460244305e-08 -1.4457126144e-07 1.3597450449e-07 5.6397540947e-08 -8.6470470137e-08 5.6233373268e-07 2.8435485477e-07 -1.4876139515e-07 
1.6986382799e-07 1.0712708958e-08 -9.4312606754e-08 -1.5562047262e-07 3.1772328346e-07 1.601116572e-07 -1.0665268492e-08 4.2028518507e-07 -1.3429882399e-07 
4.6652512251e-08 -2.9163400846e-07 9.9815723197e-08 -3.6516355328e-09 -3.5712686849e-08 5.0983461635e-08 -1.1138047265e-07 -2.2977976795e-07 2.6802126748e-07 
1.9235335681e-08 4.8206844628e-08 1.831699162e-08 1.7820579996e-07 7.034416656e-08 1.2449677019e-07 -3.42894922e-07 -2.4672529255e-07 2.3460416879e-07 
2.2471796431e-08 -4.1556792248e-08 -1.6880749001e-09 
f 3 70 double
-0.0002257323983 0.00011077295546 6.1615933135e-05 0.00031814856785 0.00029016587294 0.00026845801286 6.5420018128e-05 -0.00011013535115 -0.00038229730658 
-0.00030961269903 9.8276058886e-05 0.00014626582652 -0.00021342811962 1.5628624308e-05 7.3201525031e-05 0.00019579440628 0.00019611482895 -9.7749953515e-05 
-0.00011489242399 4.7609762861e-05 0.00015037958959 3.8950325779e-05 -0.00013090672843 -0.00013002198888 0.00012710269985 0.00023929525607 -0.00068244831003 
0.00052117517082 -4.9299663205e-05 9.1075642215e-05 -6.6600687567e-06 0.00027924173243 -2.3458815875e-05 -0.00011114014641 -0.00024567735247 -0.00038099155788 
-3.0278280005e-05 0.0001178444861 -0.00011552287652 -0.00018906506513 0.00032953360416 -0.0002528020075 -0.0007813834888 0.00027669997146 -1.9527951729e-05 
0.00019326575783 6.5920274722e-05 -0.00012484169266 0.00032335675266 -0.00059987702615 0.00031290678141 -9.2471380054e-05 0.00014167309802 1.8639037997e-05 
-0.00024747648956 -0.00030141962441 -0.00040876428939 1.2337742986e-05 -0.00010841666243 -5.2571484505e-05 -0.00024615769247 -0.00034510340528 0.0002380831751 
-1.5944615765e-05 0.00038957091067 -0.00024322867108 0.00031769828145 -0.00039796859754 -0.00023433722954 -0.00017920098061 1.7521460794e-05 -0.0001027047828 
-7.1291759906e-05 -0.00021532352703 2.08163916e-05 -0.00012258735853 -0.00021258159299 4.5687654179e-06 2.7079370018e-05 -9.190746985e-05 5.4851131265e-05 
-1.3974020872e-05 2.9659020697e-05 -8.423392203e-05 -6.9419223305e-05 -4.7358999662e-05 -4.9791733755e-05 0.00025915234118 -0.00016927780696 -0.00010203286562 
-0.00010332185457 -0.00011322962489 6.855879522e-06 9.3545727532e-05 8.7829658185e-05 1.9524389725e-06 3.9388340981e-05 9.765527703e-05 7.0568357303e-05 
-0.00035747428883 0.00016802433815 0.00015163817997 -1.8553911138e-05 -7.5973312167e-06 5.0684004177e-05 2.0286429421e-05 5.8038292679e-05 3.9660310916e-06 
-0.00028387182658 -6.6386535685e-05 -1.9360824875e-05 0.00014559102672 0.00019849597785 0.00016705594038 -1.9080230532e-05 -5.1351478374e-06 -0.00012268852207 
-4.2523358205e-05 -0.00011942027529 6.8536866545e-05 7.154485845e-05 1.1905864156e-05 -2.6737748958e-05 5.9282168942e-06 7.3144091404e-05 -1.842364777e-05 
0.00010149788443 3.011308895e-06 -3.8563776548e-05 -2.4744667621e-06 2.0205603127e-05 -2.8045967258e-05 -7.0405460715e-05 4.9019520043e-05 -1.9302459856e-05 
8.2041336134e-06 1.3942264802e-05 1.5074279206e-05 5.04181138e-05 1.8266321428e-05 -2.2382735575e-05 -6.3212134656e-06 -4.2301696581e-06 1.6249074338e-05 
-1.3710115937e-05 -0.0001068974812 -5.2317776743e-05 2.7952976852e-05 -6.3738699757e-05 -1.241361912e-05 4.9791777172e-05 5.2509377152e-05 -2.5148910521e-05 
2.9994311577e-06 1.1895358066e-05 1.3595545593e-05 -7.3562249671e-05 2.4019006182e-05 1.6798579424e-06 8.44515867e-06 8.6251805218e-05 3.791477814e-05 
-9.8079095226e-05 2.4301934442e-05 9.0599764053e-05 -0.00013189137273 5.7917278542e-05 8.6926493328e-05 -2.8626062674e-05 3.7519008769e-05 -3.0911764118e-05 
1.568183856e-05 5.0701987012e-06 6.9476017899e-06 -3.8698682362e-06 -2.5898345268e-05 -4.3663538432e-06 -5.159679549e-05 -1.4949243728e-05 -1.9128010402e-06 
-9.6755919671e-07 -1.5332022441e-05 7.2998219881e-05 -1.9201548808e-05 -2.6159909034e-05 4.3343167137e-06 -2.8177505703e-05 -6.1673590854e-05 -3.1524361531e-05 
-8.7146265032e-05 7.6557879318e-05 3.8580454721e-05 7.6832091731e-06 -6.9424043875e-06 1.0738641233e-05 2.0866376353e-06 -3.487714008e-05 4.4656444411e-05 
-4.0226107697e-05 -5.1115069179e-05 -2.205014048e-05 -6.1649549757e-05 -4.0474433566e-06 -3.0125502169e-05 6.4700252821e-05 -5.9048522921e-06 2.3687268566e-05 
3.2355111285e-05 -1.7095186838e-05 1.4670298615e-05 
radius 1 70 double
0.005 0.005 0.005 0.005 0.005 0.005 0.005 0.005 0.005 
0.005 0.005 0.005 0.005 0.005 0.005 0.005 0.005 0.005 
0.005 0.005 0.005 0.005 0.005 0.005 0.005 0.005 0.005 
0.005 0.005 0.005 0.005 0.005 0.005 0.005 0.005 0.005 
0.005 0.005 0.005 0.005 0.005 0.005 0.005 0.005 0.005 
0.005 0.005 0.005 0.005 0.005 0.005 0.005 0.005 0.005 
0.005 0.005 0.005 0.005 0.005 0.005 0.005 0.005 0.005 
0.005 0.005 0.005 0.005 0.005 0.005 0.005 
omega 3 70 double
-2.5730291608e-05 4.4236691546e-06 -1.5501894991e-05 -5.2641814164e-05 2.7884098317e-05 -3.7025476547e-05 -7.7504725616e-05 7.5599567748e-05 1.5801360822e-05 
-0.00015055440303 0.00038953372385 -0.00016338622783 3.7537893282e-07 -0.00025050488438 -0.00017035779153 2.3527238912e-05 2.8754476717e-05 -3.2424311834e-05 
3.5917124819e-05 5.794257923e-05 -4.5154408898e-05 -0.00014990291928 0.00050135997314 -4.4035880621e-06 0.00015244522501 -0.0001968444161 0.00013114415637 
0.00020639676944 -0.00013929310485 0.00019349033424 -6.705292498e-05 2.7470050506e-05 -0.00020116184747 -0.00045513686673 2.3868168122e-05 2.6943416331e-05 
0.00043741568832 -0.00038516874984 -0.00034252699197 0.00082557431076 -0.00012573966784 -0.00033851048971 0.00018777186218 -0.0002302745792 9.6044993223e-05 
-0.00014330353609 0.00012469992794 4.2856347418e-05 -9.345294648e-05 0.00023727585128 0.00010153738093 -0.00015625803222 -0.00042238750895 0.00062522669267 
-0.0002968739598 0.00027905649957 7.1490826313e-05 -1.5790776777e-06 4.8306801028e-05 -3.4082584303e-05 -6.8823377926e-05 0.00021385271027 -0.0004793243048 
-3.0614804659e-05 5.5745664161e-05 0.00016729821565 1.9990055189e-05 5.1544627834e-05 0.0001232098302 0.00010261011514 9.103659558e-05 8.9321168866e-05 
2.6228723588e-05 1.5934925682e-05 -5.1511253616e-05 -0.00014481661759 5.0233808419e-05 2.0122189472e-05 -1.7162563865e-05 7.2199559964e-05 -4.4019860905e-05 
4.8948438625e-06 -3.9958636747e-05 -1.2623103917e-05 5.80883924e-06 3.0027859285e-06 3.2704514868e-05 4.9763954664e-06 -0.00022859611531 -0.00011639555559 
1.7051199568e-05 2.8694497005e-06 -7.7688379147e-06 -8.2413982229e-05 0.00025346478781 -5.3586040569e-05 -0.00031603104594 -1.928213509e-05 -0.00062641517043 
-0.00011325849453 0.00033644960742 -0.0001674831739 -5.7473363604e-05 0.00010013726107 -9.137100099e-06 0.00012948739671 8.4326747898e-05 -9.8242865241e-05 
-1.4268038874e-05 4.4348368772e-05 4.644729929e-05 -1.6100060952e-05 -4.9009021148e-05 2.306273766e-05 3.9723807791e-06 3.949130282e-06 -6.0099747993e-06 
0.00016540158374 0.00023525394366 1.9223067436e-05 1.9829486777e-05 1.1106875705e-05 -2.2189862294e-05 -9.9564762776e-05 -3.7272971483e-05 5.7969951896e-05 
-6.8944315559e-05 -7.8358942427e-05 -5.2632378766e-05 -3.4619335593e-06 3.2630166595e-05 -2.1853086334e-05 -1.9707854586e-05 2.7738002007e-05 9.4173289513e-05 
5.9453057739e-05 3.4621708577e-05 -6.2448114978e-06 -2.455647566e-05 -1.1879936624e-05 -5.0678755296e-06 -1.9068033655e-05 -1.5206672614e-05 1.6433952953e-05 
-0.00025750981978 7.229924263e-05 0.00021564645183 3.8705197944e-06 -4.0169632471e-05 -0.00024608933825 -6.2317021157e-06 0.0001816968101 -3.5389675809e-05 
3.0567595953e-05 -7.0112763087e-06 8.1121890589e-06 4.2572740127e-05 -7.738966949e-06 -7.2118954421e-05 0.00015532516345 4.4694890491e-05 -0.00011920304106 
-9.0325222556e-05 -0.000155149489 -1.3072529469e-05 7.4978192783e-05 0.00023163427265 0.00021460487448 2.0448615998e-05 4.3767023294e-05 -1.8091014539e-05 
-3.5447015484e-05 -2.2386261322e-05 1.3849154748e-05 -1.8500167909e-05 4.1508211208e-05 -8.0098109605e-06 6.2963631882e-05 -0.00021449324508 9.4526960531e-05 
-1.2715443835e-05 -5.4932382389e-05 -3.0272249814e-05 9.6353612133e-06 -3.4134073497e-05 -1.5942232557e-05 0.00015151397499 -0.00011105660263 -0.00015389165151 
3.9827411704e-05 9.3849656993e-06 2.9993595593e-05 -1.9418324601e-05 -3.2075542575e-05 4.1809798731e-06 -0.00012706422938 3.1617943484e-05 -3.1660437679e-05 
1.1220784955e-05 -2.5850789213e-05 4.0974108593e-05 -1.0271349204e-06 -1.828694354e-05 3.4385643907e-05 6.1635196543e-05 0.00015948515378 7.9122317652e-05 
3.9512528895e-05 -2.5953561521e-05 -1.2719287851e-05 
