# vtk DataFile Version 4.2
Generated by LIGGGHTS
ASCII
DATASET POLYDATA
POINTS 70 float
-0.00273159 -0.0202533 0.0110454 0.00193188 -0.0172041 0.0088219 -0.0187484 -0.00962325 0.0114585 
-0.00467564 -0.0108461 0.00953294 0.00651854 -0.0131756 0.00930408 0.00388814 -0.00808693 0.0114792 
-0.0218293 -0.000949153 0.0115596 -0.0146987 -0.00361773 0.00925096 -0.00231241 -0.000411414 0.0112133 
-0.00751456 -0.00264119 0.0132002 0.0197082 0.000290417 0.0114529 -0.019314 0.00588949 0.0141776 
0.00173378 0.00628691 0.0118831 0.0101159 0.00712872 0.00804582 0.0107299 0.00210764 0.0146391 
0.0201444 0.00810697 0.0105862 -0.00797699 0.0165058 0.0130958 -0.000128925 0.0120096 0.0144579 
0.0124725 0.0155639 0.00801349 0.0109778 0.0130739 0.0133578 0.000103945 0.0188856 0.0082072 
-0.0060422 -0.0189052 0.016478 0.00796915 -0.0179831 0.0163385 0.00196705 -0.0216067 0.0200647 
-0.0188222 -0.0110169 0.0219106 -0.0152481 -0.0151892 0.0156629 -0.0120935 -0.0100589 0.0190447 
-0.0061191 -0.0107469 0.01824 0.000895345 -0.0155155 0.0186963 0.00433384 -0.00873602 0.0210701 
0.011298 -0.00902086 0.0179025 -0.0210323 -0.00549645 0.0154989 -0.0128767 -0.00412708 0.018524 
0.00171251 -0.00227746 0.0175753 -0.0130516 0.00336469 0.0171352 -0.0051334 0.00425129 0.0206144 
0.00755775 0.000694679 0.0201721 0.00695386 0.00809214 0.0178882 0.0132658 0.00513371 0.022244 
0.0203632 0.00802137 0.0221774 -0.012179 0.0139157 0.016772 0.000120657 0.0115251 0.0205392 
0.0143276 0.0151395 0.0194455 0.0178784 0.0107383 0.0174388 0.000105465 0.0195736 0.0154241 
-0.00299932 0.020499 0.0226863 0.00699007 0.0182474 0.0189451 0.000898943 -0.0204151 0.0275205 
0.0112673 -0.0186495 0.0237073 -0.0032355 -0.00981335 0.0284064 -0.0050734 -0.0159372 0.0295579 
0.0133458 -0.0119937 0.0248496 0.0183132 -0.0112608 0.0281588 -0.0214838 -0.00162634 0.0253825 
-0.0159197 -0.00396056 0.0248619 -0.00836843 -0.00436663 0.0276183 -2.63401e-05 0.000459065 0.0262841 
0.00957317 -0.0054982 0.0283871 0.0203224 0.000482005 0.0245193 -0.0193515 0.00258679 0.0299878 
-0.0130593 0.00595872 0.023772 -0.00734549 0.00168988 0.0272039 0.00300179 0.00549467 0.0249187 
-0.00841392 0.014286 0.0238139 -0.0119802 0.0159796 0.0283308 -0.000477692 -0.0166594 0.0335272 
0.00748879 -0.0184738 0.0315911 -0.0141817 -0.0104916 0.030889 0.00965296 -0.0120792 0.0311132 
0.00164491 -0.00487597 0.0301728 
VERTICES 70 140
1 0 
1 1 
1 2 
1 3 
1 4 
1 5 
1 6 
1 7 
1 8 
1 9 
1 10 
1 11 
1 12 
1 13 
1 14 
1 15 
1 16 
1 17 
1 18 
1 19 
1 20 
1 21 
1 22 
1 23 
1 24 
1 25 
1 26 
1 27 
1 28 
1 29 
1 30 
1 31 
1 32 
1 33 
1 34 
1 35 
1 36 
1 37 
1 38 
1 39 
1 40 
1 41 
1 42 
1 43 
1 44 
1 45 
1 46 
1 47 
1 48 
1 49 
1 50 
1 51 
1 52 
1 53 
1 54 
1 55 
1 56 
1 57 
1 58 
1 59 
1 60 
1 61 
1 62 
1 63 
1 64 
1 65 
1 66 
1 67 
1 68 
1 69 

POINT_DATA 70
FIELD FieldData 7
id 1 70 int
1477 5388 5432 3959 1380 942 3793 1762 1166 
2582 3117 665 2654 3936 2132 4213 4035 1446 
4318 2268 2282 5417 1796 4507 3387 3295 3867 
724 1617 3884 2469 2813 901 3015 5024 468 
736 914 5141 1943 4210 209 2726 44 596 
3233 4394 4085 3755 3532 5080 3500 4635 2801 
398 385 2163 842 4735 2182 2526 3250 5455 
4832 2889 5438 1999 3076 5547 3230 
type 1 70 int
2 2 2 2 2 2 2 2 2 
2 2 2 2 2 2 2 2 2 
2 2 2 2 2 2 2 2 2 
2 2 2 2 2 2 2 2 2 
2 2 2 2 2 2 2 2 2 
2 2 2 2 2 2 2 2 2 
2 2 2 2 2 2 2 2 2 
2 2 2 2 2 2 2 
i 3 70 int
0 0 0 0 0 0 0 0 0 
0 0 0 0 0 0 0 0 0 
0 0 0 0 0 0 0 0 0 
0 0 0 0 0 0 0 0 0 
0 0 0 0 0 0 0 0 0 
0 0 0 0 0 0 0 0 0 
0 0 0 0 0 0 0 0 0 
0 0 0 0 0 0 0 0 0 
0 0 0 0 0 0 0 0 0 
0 0 0 0 0 0 0 0 0 
0 0 0 0 0 0 0 0 0 
0 0 0 0 0 0 0 0 0 
0 0 0 0 0 0 0 0 0 
0 0 0 0 0 0 0 0 0 
0 0 0 0 0 0 0 0 0 
0 0 0 0 0 0 0 0 0 
0 0 0 0 0 0 0 0 0 
0 0 0 0 0 0 0 0 0 
0 0 0 0 0 0 0 0 0 
0 0 0 0 0 0 0 0 0 
0 0 0 0 0 0 0 0 0 
0 0 0 0 0 0 0 0 0 
0 0 0 0 0 0 0 0 0 
0 0 0 
v 3 70 double
0.041752781405 -0.013342785883 0.32370411879 0.056539564943 -0.023797509147 0.34657809995 -0.027541036186 0.052711013233 0.31151967015 
-0.0079741514097 0.018718357051 0.34766893672 0.052524789692 0.049139424779 0.38402707941 0.018133928135 0.045705222201 0.35872691652 
-0.0053050087566 0.076900502593 0.37375417938 0.0041416113365 0.05254997785 0.36827440024 0.017128021846 0.032733995671 0.39669080704 
0.0041538660934 0.03742252684 0.36564497724 0.0045747260823 0.10427756829 0.42091459457 0.026597220441 0.078048665855 0.38695592944 
0.04346409029 0.045115187688 0.38606021568 0.01029806241 0.048201543331 0.39268288076 0.033502508314 0.081481638861 0.40337552217 
-0.0037816107629 0.064384026278 0.44125242006 0.065015756842 0.050313159701 0.43128608408 0.040897496056 0.032939581333 0.43117936995 
0.017002127124 0.044536188699 0.39258429573 -0.005032548722 0.044678431734 0.40946661501 0.010373737194 0.015701033803 0.42306617861 
0.016469580923 0.034631275951 0.18824284009 0.080533168917 0.062173675452 0.2386114871 0.10384658996 0.031786841286 0.12584868056 
-0.035730899705 0.033668507769 0.1451040028 -0.011311786175 0.072647591314 0.1978934127 0.031917871589 0.042308577159 0.22282676728 
0.037591827697 -0.001735089543 0.28343188219 0.034525046371 0.017457959288 0.23683966107 0.024945973283 0.05577019428 0.31257536419 
0.060524140833 0.082988715805 0.35363470152 0.0083855998114 0.056392093009 0.31639841878 -0.012659719988 0.01800913592 0.29735516691 
0.039759251987 0.06522774013 0.36631200909 0.035523929829 0.077337074511 0.37735115879 0.001238169239 0.070650617694 0.40977979881 
0.043195544307 0.05707500844 0.38264482882 0.013516750942 0.074076777088 0.4671829592 -0.028889365923 0.12208876407 0.42758186781 
-0.061274539529 0.081605590808 0.46222052852 0.080646429775 0.073328857958 0.46109160848 0.061242270477 0.073061670564 0.46020338565 
0.011033324009 0.034699872198 0.47179999056 -0.009480991642 0.028038038387 0.44412622661 0.043277770019 0.02230487555 0.47714193095 
0.11371306946 0.035235636062 0.4920335534 0.021924088378 0.057277334585 0.50221395562 0.038884596277 -0.0086561808403 0.028725736119 
0.12601890539 0.080623172341 0.1963712588 0.076319855105 0.15088336131 0.16913852605 0.0079108850235 0.086500649989 0.037354346586 
0.038380271025 0.08383853817 0.34604647422 0.10015349957 0.11525633991 0.356260679 0.0095336894255 0.11595163232 0.23212590732 
-0.032104345492 0.079722275686 0.23177437464 0.052709794192 0.16130791571 0.29240110894 0.064190259088 0.14538232408 0.36388774606 
0.034092052235 0.1701884459 0.29907298348 0.023012616937 0.22818752998 0.4813790643 0.045475494045 0.10341480096 0.23658626683 
0.09882230103 0.12553092331 0.35284060489 0.037781805294 0.12739098282 0.41309667321 0.084340928094 0.12112738105 0.49768855128 
0.12770686864 0.083807394745 0.46042436274 0.053239861256 0.038413866433 0.42958167046 0.093089835337 0.097536882825 -0.012697470018 
0.042690575791 -0.019550811238 0.15790743995 0.082235116192 0.11573451033 0.04522869026 -0.038106255934 0.13106366421 0.198581335 
0.12383242849 0.24433785972 0.19441559934 
f 3 70 double
0.0058905266257 0.01360008913 0.0095996076011 0.0071049717544 -0.022714042693 0.032414143045 -0.0030705155996 -0.0053893669515 0.0026318696992 
0.0044058517071 -0.0048459202722 -0.031747027469 -0.031501738281 -0.005891315864 0.012102947423 -0.037239370922 -0.013259181839 0.003483675435 
-0.00065005003501 -0.034425743132 -0.0038336343324 -0.0049199889377 -0.0064440885656 -0.020130382218 -0.0046305997574 -0.0095575893047 0.0034313132677 
0.0095122181747 -0.010281379915 -0.014974949355 -0.02347528772 -0.022022651195 0.010511680894 0.008811077354 -0.017394343724 -0.013315991482 
-0.008206449997 -0.0095414528594 0.0098521243382 0.021834547413 0.0036159192968 -0.0070383603714 0.0012107804865 -0.013251379374 0.0067919129304 
-0.0083374929912 0.013085482478 0.024046986007 0.019914686528 0.0057153652249 -0.0098659080246 -0.0093801117481 -0.014596451037 -0.0035939425835 
0.0070193295525 -0.00019357495904 0.012703228664 0.001838299151 0.028853173773 -0.023777414696 -0.0038854254894 -0.012538355455 0.001505802485 
-0.0068293435183 0.00092792849378 -0.019626049581 -0.00039805100357 -0.021835748691 0.037931274854 0.014190267733 0.0072704395226 0.0051466372855 
0.0040091899484 -0.0028042636526 -0.020545073393 -0.009429953645 0.0033706418289 0.021448607783 -0.0044146914907 -0.012158292596 0.0011913192728 
-0.015363723457 -0.014806497347 0.017313444131 0.0080086885598 0.016024565458 0.012412645125 -7.7210504769e-05 -0.021256791609 0.0011915677488 
-0.0055996333997 0.04484415119 -0.060193549716 0.0077478735329 -0.029239000514 0.020940633382 0.00077865381946 -0.037986204163 0.0024772326503 
-0.004156184732 -0.032473277563 0.021554334324 -0.0050535413599 -0.0066565334989 -0.012997781917 -0.041909992527 -0.025268222329 0.053780393707 
0.010618878732 0.0024250397446 -0.0073813300685 0.020147308465 -0.030328015091 0.037576514477 -0.0062675309135 0.0098081530066 0.023858047925 
-0.14735972418 -0.044759014589 -0.0075874317349 -0.017112507859 0.0076527089477 -0.0091488961901 0.012078827018 -0.0078928227977 0.011855280356 
0.069229663824 -0.021458253075 0.015916816123 0.0088093836367 -0.00072829053867 0.030442567659 -0.017060292328 0.030024313894 -0.0021268825474 
0.025988326038 -0.021135782387 -0.21654738745 -0.004164117074 0.020825027679 0.0041721156444 0.011080235364 0.01048320766 0.026397038422 
-0.02267411761 -0.011801248539 -0.0099809094021 -0.017982072634 0.0069606670937 0.023257110522 0.0035896359057 0.0015851297323 -0.0094044345776 
0.043711300314 -0.063411637157 0.1584707319 0.0081431551793 0.031500646922 -0.024345001081 0.00055427223625 -0.024613329616 0.042369953827 
-0.012251409752 -0.021488298492 0.070740769386 0.011374845657 -0.026491563933 0.015367927876 0.0092675835046 -0.0046971210718 -0.0058419059127 
0.0066898911938 -0.015740876064 -0.0025971722367 0.021104421002 -0.095193123567 -0.058938460196 0.002353389745 -0.00022850577036 -0.00090048423947 
-0.024090046721 0.0143760365 -0.0091827413691 0 0 -0.0098744152677 -0.0043712883769 0.0036427066375 -0.0097934470307 
0.022310676841 -0.0096034247299 -0.0093597486698 -0.0037924575645 -0.01177560879 0.0022309989124 0 0 -0.0098744152677 
0 0 -0.0098744152677 -0.010560506331 -0.02147856527 0.033503871082 0.016327828838 -0.0052943030707 0.03084234911 
-0.013696070699 -0.0070434811539 0.027402608156 
radius 1 70 double
0.003 0.003 0.003 0.003 0.003 0.003 0.003 0.003 0.003 
0.003 0.003 0.003 0.003 0.003 0.003 0.003 0.003 0.003 
0.003 0.003 0.003 0.003 0.003 0.003 0.003 0.003 0.003 
0.003 0.003 0.003 0.003 0.003 0.003 0.003 0.003 0.003 
0.003 0.003 0.003 0.003 0.003 0.003 0.003 0.003 0.003 
0.003 0.003 0.003 0.003 0.003 0.003 0.003 0.003 0.003 
0.003 0.003 0.003 0.003 0.003 0.003 0.003 0.003 0.003 
0.003 0.003 0.003 0.003 0.003 0.003 0.003 
omega 3 70 double
0.34898206732 0.70817050346 -13.051311771 7.9125459468 -3.831862863 4.3351079227 -2.9772784872 8.1024264647 0.0075754929305 
14.505308076 -5.8858940593 3.0482597676 -4.8305415184 0.99488785884 5.5403965688 4.8351935943 -13.771103903 -2.1372420515 
2.3253099768 -6.2397960295 -5.5028936059 -8.2994297677 -0.34491172225 -2.2380448383 -1.0397484923 -2.7885497363 3.6167082839 
-0.58246652233 -9.4179821013 -4.8273754056 -6.2753650543 4.7487403877 3.8367706896 -2.0047436271 2.2750351543 -1.7858190715 
-3.1781214848 1.7346920044 -0.028979020618 3.5738835125 3.9807845661 0.95180099325 7.6752847969 -2.9253864828 5.1831893495 
4.8652540954 4.1223581913 -5.1633126467 -1.7848925824 0.82219102658 0.065796941819 -15.146594044 4.5785168246 1.3991430862 
-1.0625844086 2.6431938408 -1.1792532352 -1.3702067483 8.2076781342 6.213408335 7.6492176464 -8.035332922 -0.00088521607732 
15.090433612 16.15911809 9.7225370621 -6.4789244414 15.590898292 9.4014332643 -4.0121083299 5.7827665946 14.429767735 
6.7447334644 6.2543671569 -1.937744405 -5.6318144599 -6.645785729 -0.52948089263 8.4946408976 -1.7067332468 -2.6775446744 
5.8628936431 -2.0216877005 14.450981193 9.8280738063 -5.2279170688 2.7851257116 29.540947319 8.5847199232 11.39201203 
5.58938528 -0.79594962024 -0.85226648243 1.8740869606 15.130373131 4.1402328358 17.66226147 -15.502617801 9.0424344588 
-3.6566594454 -0.55805287 8.8774960687 4.7806905159 -0.42483866572 -2.659365666 9.3708162827 -1.5099091315 -4.5336208737 
14.572603278 14.901350535 12.54474404 -1.8528197135 1.1071620238 3.7713072474 -14.030841862 -30.513879468 38.032287114 
-43.044203348 12.225061215 -18.126675973 -2.3095871773 6.7175134201 -4.1870411162 -2.5261266337 -16.288300039 9.4105691241 
11.237280648 -8.9204290753 -2.9628758729 4.7243426317 6.3539707664 -8.0360938066 0.29170709684 0.61769499044 0.17317451004 
18.489191054 13.778852479 -8.2939611471 2.120809596 4.6398205568 0.8667738266 5.0887569738 -9.2723839975 11.681212322 
4.3158309514 -7.8046875429 9.6408744083 14.461353259 30.793601266 -6.0828746099 27.512132034 18.524167373 -25.252378478 
-4.1059636089 -2.854789847 3.0250731247 1.1342753112 -5.7507450525 -0.35112587261 -10.221445115 0.35406280061 4.9504078436 
24.253796345 -27.836882819 -4.8873200705 -8.0293289034 3.4412868272 22.031501952 -4.5251486556 -5.9608593884 -1.3547977526 
-13.010172764 37.090185536 -23.346157833 -8.2280500933 -18.826156901 12.029483585 52.145309125 1.0553022355 -9.8316761635 
16.259205501 -15.787897564 -19.65641742 -7.8336087877 3.1661943254 -29.401445523 4.2175916724 -16.240405735 -5.697310341 
13.865082262 20.37638351 -13.015579049 1.2167349335 -57.520965552 17.827943408 -55.966874546 19.846652296 5.5532560658 
29.956652267 -24.241051371 6.1218076778 -8.9883537335 -1.562020293 1.8020288857 13.788673712 64.982538112 3.5716964404 
-23.289608869 6.7928705912 -12.068017412 
