# vtk DataFile Version 4.2
Generated by LIGGGHTS
ASCII
DATASET POLYDATA
POINTS 70 float
0.0114581 -0.0368894 0.00699838 -0.0237986 -0.0238458 0.00699828 -0.00516478 -0.0202765 0.00953845 
0.0278628 -0.0211398 0.0135785 0.0230261 -0.0153722 0.00699752 -0.0253441 -0.00911908 0.0113724 
-0.0187622 -0.00161635 0.0107676 -0.00540934 -0.00082461 0.0069993 0.0045111 -0.00742059 0.00934088 
0.0159819 -0.000463851 0.0109253 0.0119743 0.00781084 0.0069976 0.0247776 0.00517861 0.00975104 
-0.0327818 0.0126216 0.00699878 -0.0248283 0.0178785 0.0100133 -0.000589488 0.0181855 0.0102347 
0.00562292 0.011265 0.0139045 -0.0125072 0.0218876 0.00749382 0.00288389 0.0293428 0.00699795 
0.0229398 0.0220761 0.0070533 -0.000836415 -0.0222524 0.0217332 0.0205449 -0.00875754 0.0144138 
-0.00820969 0.00387825 0.0164056 -0.0114136 0.0133337 0.0169576 0.0101142 0.0160929 0.0215669 
0.0225476 0.010684 0.0232497 0.0057422 0.0299437 0.0204631 -0.0141535 -0.0327213 0.0297117 
-0.000932096 -0.0397253 0.0283781 -0.00426073 -0.0305304 0.0304676 -0.0203286 -0.0203268 0.0274441 
-0.00721645 -0.018164 0.0282577 0.00504079 -0.0176016 0.0283518 0.019833 -0.0173874 0.0279802 
0.0294059 -0.0112395 0.0311967 -0.00674141 -0.00769605 0.0261014 0.0291985 -0.00143261 0.0292522 
-0.0127277 0.00477301 0.0347275 -0.00474817 0.00179301 0.0286245 0.0109787 0.0038892 0.0330456 
-0.012138 0.0145033 0.032501 0.0040476 0.0289293 0.0322747 0.0115002 0.0244725 0.0273158 
0.0295522 0.021592 0.0316808 0.00282281 -0.0325029 0.0374722 -0.0125618 -0.0252659 0.0410811 
0.0107596 -0.0251496 0.041906 -0.0216844 -0.0136966 0.0449292 0.00295226 -0.0199709 0.0378388 
0.0380504 -0.0114132 0.036744 -0.0161152 -0.00371844 0.0393055 -0.000240087 -0.00253142 0.0366106 
0.0163072 -0.000789571 0.0443757 0.0206867 -0.00931641 0.0414084 -0.0315248 0.00143338 0.0398353 
-0.0193531 0.0218709 0.0395089 -0.006833 0.0267618 0.0404402 0.0116872 0.0258019 0.0379173 
-0.0090512 -0.0234547 0.0502674 0.020305 -0.0299045 0.0510236 -0.033638 -0.0136575 0.0531292 
0.0289081 -0.0133596 0.0475458 -0.0282449 -0.001882 0.0510298 -0.00557575 -0.00708143 0.0460092 
-0.0208779 0.00686567 0.0466713 -0.0126155 0.00283972 0.0506102 -0.0020702 0.00309101 0.0460998 
0.00615957 0.000137387 0.051779 0.0273787 0.00968743 0.0508261 -0.00966207 0.0205185 0.0524101 
4.56629e-05 0.0204071 0.0471149 
VERTICES 70 140
1 0 
1 1 
1 2 
1 3 
1 4 
1 5 
1 6 
1 7 
1 8 
1 9 
1 10 
1 11 
1 12 
1 13 
1 14 
1 15 
1 16 
1 17 
1 18 
1 19 
1 20 
1 21 
1 22 
1 23 
1 24 
1 25 
1 26 
1 27 
1 28 
1 29 
1 30 
1 31 
1 32 
1 33 
1 34 
1 35 
1 36 
1 37 
1 38 
1 39 
1 40 
1 41 
1 42 
1 43 
1 44 
1 45 
1 46 
1 47 
1 48 
1 49 
1 50 
1 51 
1 52 
1 53 
1 54 
1 55 
1 56 
1 57 
1 58 
1 59 
1 60 
1 61 
1 62 
1 63 
1 64 
1 65 
1 66 
1 67 
1 68 
1 69 

POINT_DATA 70
FIELD FieldData 7
id 1 70 int
44 732 1464 837 912 1986 1606 936 895 
1371 663 720 467 208 1438 1782 385 1157 
595 2267 398 2166 1751 2117 2149 1929 2782 
2509 2454 2873 2996 2710 2790 3102 2640 2566 
3057 2252 3510 3206 3209 3228 3475 3932 4179 
4006 4181 3841 3364 4052 3265 4362 4280 3857 
3770 3909 3724 5377 4989 4708 4482 5353 5397 
4796 5509 5103 5420 5050 5402 4610 
type 1 70 int
2 2 2 2 2 2 2 2 2 
2 2 2 2 2 2 2 2 2 
2 2 2 2 2 2 2 2 2 
2 2 2 2 2 2 2 2 2 
2 2 2 2 2 2 2 2 2 
2 2 2 2 2 2 2 2 2 
2 2 2 2 2 2 2 2 2 
2 2 2 2 2 2 2 
i 3 70 int
0 0 0 0 0 0 0 0 0 
0 0 0 0 0 0 0 0 0 
0 0 0 0 0 0 0 0 0 
0 0 0 0 0 0 0 0 0 
0 0 0 0 0 0 0 0 0 
0 0 0 0 0 0 0 0 0 
0 0 0 0 0 0 0 0 0 
0 0 0 0 0 0 0 0 0 
0 0 0 0 0 0 0 0 0 
0 0 0 0 0 0 0 0 0 
0 0 0 0 0 0 0 0 0 
0 0 0 0 0 0 0 0 0 
0 0 0 0 0 0 0 0 0 
0 0 0 0 0 0 0 0 0 
0 0 0 0 0 0 0 0 0 
0 0 0 0 0 0 0 0 0 
0 0 0 0 0 0 0 0 0 
0 0 0 0 0 0 0 0 0 
0 0 0 0 0 0 0 0 0 
0 0 0 0 0 0 0 0 0 
0 0 0 0 0 0 0 0 0 
0 0 0 0 0 0 0 0 0 
0 0 0 0 0 0 0 0 0 
0 0 0 
v 3 70 double
7.1834112411e-08 -1.7888143393e-07 -2.5336480903e-09 -1.3194811178e-07 5.7627743407e-08 9.7042661547e-08 1.3049239486e-07 6.0640526012e-08 -4.4370101746e-08 
-3.2289320225e-07 2.1120583202e-07 -4.1795446419e-10 -2.000819678e-08 -4.0397836027e-07 3.9284738833e-07 -4.386016337e-08 -1.4384126102e-07 -8.7378550837e-08 
-6.805854969e-08 -3.9007785652e-08 -7.9702949084e-08 4.5680957869e-08 -1.0405461227e-07 -1.8287039904e-07 7.0221081568e-07 3.1912281114e-07 6.5829527359e-07 
9.7589917168e-07 1.9939295602e-07 1.6376304984e-07 -9.6744766875e-08 8.5635103636e-08 2.3394115526e-07 5.3677656798e-07 -1.5736595258e-07 1.2542572046e-06 
-1.9778673173e-07 -5.9509521209e-08 -9.4620503797e-07 -1.1342550129e-06 -2.8609133725e-08 -6.1323904482e-07 -1.4080335879e-06 6.5047104752e-07 -3.9689324714e-08 
2.6357291808e-08 -5.8970439711e-08 -4.6642127457e-08 -4.7584873124e-09 1.5990233927e-07 -1.5835054741e-06 6.3375274591e-07 4.0836414007e-07 3.917911731e-07 
-5.4538498147e-08 1.5467051388e-07 1.6984494786e-07 1.821421109e-07 -1.3069160872e-07 -1.3909901314e-07 -1.1786070611e-07 -3.4641724049e-07 -4.6154769311e-08 
2.1648710844e-08 3.8206955527e-07 -2.8610248764e-08 -3.1198878886e-07 1.9107118321e-08 -4.9923782612e-08 -2.9738098363e-07 1.6168345251e-07 3.416851303e-07 
2.2241561561e-07 8.7675157057e-08 -1.6075844246e-07 -1.3065153686e-07 -2.4876012536e-07 -1.3952236982e-07 -1.6437332373e-07 -2.6123072956e-08 8.8412831348e-08 
1.860101392e-08 8.2719530953e-08 -3.5275863256e-09 -2.8333772375e-08 7.5316383816e-08 -7.0836169636e-08 -5.4998799861e-07 1.9815980871e-07 1.2851631125e-07 
3.0910895735e-07 -3.4514418127e-08 -7.9355415871e-08 -5.5415962038e-08 -3.1510833057e-07 -2.2930947985e-07 3.4020428885e-07 3.4333670159e-07 -2.1270463261e-07 
-4.0654424695e-07 4.7389534458e-07 8.9584719943e-07 1.582906488e-07 2.8678067633e-08 -2.0501019487e-07 -7.7684420002e-08 -2.8937430674e-07 1.3865849016e-07 
4.6681923738e-08 -4.8397624871e-09 2.1219329799e-07 -6.1154949152e-08 -2.3454189654e-07 -1.934240134e-07 1.2118732862e-07 -8.387860294e-08 -8.9813958097e-08 
2.4180886945e-07 -3.4217450467e-07 -2.0342131742e-07 3.3999100031e-08 -8.9661920854e-08 -3.2597810342e-08 9.8847240391e-08 9.6569643909e-08 3.2371270475e-07 
1.7679141213e-07 1.4894817346e-07 -2.1240219532e-07 1.8938188546e-08 -8.0663864316e-08 9.6872126674e-08 1.5706175055e-07 1.4165695381e-07 1.4036758384e-07 
4.8358323706e-08 -2.3792305479e-07 1.3958281481e-07 -7.6089463009e-08 1.2823805708e-07 1.9686312521e-07 -3.98393765e-08 -1.7990465497e-07 7.9592585691e-08 
2.3633430233e-07 -3.3308556699e-07 4.1150961748e-10 -1.0811082194e-07 -2.7822010274e-07 -2.1441590268e-07 -3.0029544413e-08 5.1583932441e-08 -2.252771049e-07 
-2.457192387e-09 2.0706728736e-07 -2.3512797627e-08 6.4705366279e-08 7.0893429276e-08 -6.543628106e-09 -4.2712881241e-07 -1.1708447232e-08 -1.3126578491e-07 
-6.4864221054e-07 4.4464150114e-07 -1.4912979559e-06 -2.2977264286e-07 2.6670561535e-07 -4.3175893819e-07 3.2533663006e-08 -1.5302334945e-07 -1.7206915004e-07 
8.1468014744e-08 -4.2702426488e-08 3.3159623399e-08 1.3289341311e-07 9.3516956413e-08 -8.5646442598e-08 -1.8956731112e-07 -1.8415837608e-07 5.9453556065e-08 
1.9151301142e-07 2.8294301193e-08 2.2977122532e-08 9.7713053679e-08 2.9130662059e-08 8.119494282e-08 -2.8199368771e-07 7.025748906e-08 3.6284733838e-07 
-1.1536893472e-07 -4.8939143777e-09 -5.0157854137e-09 2.932648145e-07 -2.2536466046e-07 1.0167402304e-07 -5.1083645218e-09 9.9402561962e-08 4.3214817854e-08 
-1.6661204725e-07 1.1649396249e-07 3.3930618712e-08 -1.9823337017e-07 3.0933614438e-07 3.0842987636e-07 5.0846958236e-07 -3.7555564156e-07 5.3034375515e-07 
7.5308370917e-08 -9.687120039e-08 2.1595512446e-07 
f 3 70 double
-0.0001535465674 9.7329378759e-05 6.6246154512e-05 0.00033135744795 0.00025126600493 0.00026725318983 4.1554306326e-05 -0.00015375650504 -0.00038184613404 
-0.00023462492492 0.00015848509588 0.00037441907194 0.00011183690022 1.0889462836e-05 1.9157436944e-06 0.0001252167076 0.00015918811531 -6.2299058483e-05 
-0.00015359370686 8.3822564157e-05 0.00016961085505 6.974809278e-05 -0.00021322054204 -0.00044190092136 0.00012953273858 0.00013261451339 -0.00086045052328 
0.00048953121806 -0.00012155718496 0.00011918540015 3.347629181e-05 0.00023905317183 -0.00013361923251 0.00018527496669 -0.00032424217766 0.00040391188677 
-0.00014511663895 8.9506729451e-06 -4.1682593762e-05 -0.00019965077322 0.00015944865435 -0.00040460110274 -0.00038907384829 -0.00020084196791 5.579856394e-05 
0.00025158895139 9.8261507895e-05 -7.8680573858e-05 0.00025883665527 -0.00057391452797 0.00045704985225 0.00069152732888 6.0306931626e-05 1.2625222185e-05 
-0.00011831899709 -0.00035331349018 -0.00059408068052 2.1465258135e-05 -8.4948956743e-05 -7.9620716523e-05 -0.00035073128276 -0.00068878618797 0.00016644595855 
-9.5134722799e-07 0.00036080883796 -0.00025276766696 0.00020295817636 -3.6062641034e-05 -0.00020326483843 -0.00020952260967 1.9139709914e-05 -9.1464455288e-05 
-3.0400202474e-05 -0.00020825421152 3.0221446703e-05 -9.3490084458e-05 -0.00026021328983 8.5250215213e-05 5.3400438791e-05 -8.0385136557e-05 9.3318175708e-05 
-3.8367793434e-05 2.6929910547e-05 -0.00013105290049 -6.771475149e-05 -3.1607205072e-05 -2.5800917953e-05 0.00017154763433 -0.00016362048966 -8.0591951566e-05 
-0.00010252121119 -0.00011512703158 -2.2551549978e-05 -0.00034433172568 -0.00012583155856 -0.00063200148745 -5.1854675078e-05 9.2605107861e-05 -1.917243145e-05 
-0.00019129093104 6.99257525e-05 -0.00011060059084 -8.9361689966e-06 -1.586606839e-05 4.3232690772e-05 1.7935158426e-05 9.9137420518e-06 2.6364217482e-05 
-0.0003026436487 -5.7215211155e-05 -1.4319372989e-05 0.00017038716806 0.00020180794399 0.00016787576731 7.4258241598e-08 -1.2756241617e-05 -0.00010312355927 
-6.1092392865e-05 -0.00013108328504 0.00010597912141 5.6670594813e-05 -3.198393172e-06 -3.1028182956e-06 8.1398948944e-05 1.6991236665e-05 5.6782970707e-05 
0.00012733807642 -3.318791756e-06 -8.4196973417e-05 -2.7480930585e-06 -9.065804545e-06 -3.3009548504e-05 -9.638784277e-05 2.233815112e-05 -8.8206964719e-05 
-4.0168425377e-05 3.2409226343e-05 2.214037749e-05 4.9432849576e-05 3.8861653887e-05 -4.0967562885e-05 -1.1749214977e-06 -3.215415951e-07 3.1575624912e-05 
-8.4849026656e-06 -0.00010561460008 -6.2642350827e-05 1.0940859512e-05 -0.00015326211403 8.2118297395e-05 5.0005107879e-05 3.7674936938e-05 3.4542420915e-05 
5.8380972602e-06 1.4522255109e-05 1.7122867769e-05 -7.0381778763e-05 3.9056286825e-05 5.3480173839e-05 -1.5161642979e-05 9.2114878205e-05 1.5923127555e-05 
-1.6712840038e-05 1.2922001166e-05 0.00014841586757 -0.00022879436129 7.6568212351e-05 7.8778430042e-05 6.6583792526e-06 1.3338270536e-05 1.1553353165e-05 
1.9658029729e-05 3.3268095096e-06 3.1698222632e-06 9.4874499641e-06 -3.0925448163e-05 -1.7432217126e-05 -4.4709187346e-05 -2.3942922097e-05 4.8217333689e-06 
3.8067653955e-06 -1.6765040031e-05 7.4121135361e-05 -1.5690114463e-05 -2.9712041119e-05 -1.9051517851e-05 -7.0254815677e-06 -2.8310620672e-06 -6.6069932728e-05 
-5.8855220128e-05 7.9298470091e-05 2.584519545e-05 -1.0642332887e-05 5.7780831786e-06 7.433786211e-06 -7.8522636508e-06 -2.0231927051e-05 5.7004951585e-05 
-3.6633891524e-05 -2.8206353326e-05 -6.0033229516e-06 -6.8088348086e-05 -2.6046927743e-06 -1.7192901759e-05 0.00011726716855 -2.7172360884e-05 -5.6490566383e-06 
3.8459266229e-05 -2.7603343711e-05 6.8370768347e-06 
radius 1 70 double
0.005 0.005 0.005 0.005 0.005 0.005 0.005 0.005 0.005 
0.005 0.005 0.005 0.005 0.005 0.005 0.005 0.005 0.005 
0.005 0.005 0.005 0.005 0.005 0.005 0.005 0.005 0.005 
0.005 0.005 0.005 0.005 0.005 0.005 0.005 0.005 0.005 
0.005 0.005 0.005 0.005 0.005 0.005 0.005 0.005 0.005 
0.005 0.005 0.005 0.005 0.005 0.005 0.005 0.005 0.005 
0.005 0.005 0.005 0.005 0.005 0.005 0.005 0.005 0.005 
0.005 0.005 0.005 0.005 0.005 0.005 0.005 
omega 3 70 double
8.0371412711e-05 -1.3890776258e-05 -0.00018137384552 2.7755399917e-05 1.615710896e-06 8.4457203687e-06 -6.7513902547e-05 8.094084653e-06 -2.0988267076e-06 
-0.00013067225604 0.00071314762505 4.1631709183e-05 -7.3102597911e-05 -0.00026102681313 -0.00011530325423 1.1148050771e-05 1.9454166645e-05 6.7993375539e-07 
-2.869338721e-05 -7.7451292929e-05 7.2949953407e-05 0.00020343586351 -0.00035106246095 1.0279531654e-06 -0.00025034939912 0.00034036817116 0.00017241151006 
0.00011544789635 -3.3501815823e-05 0.00025616836708 -5.1211513326e-05 3.7284180651e-06 -5.9151307274e-05 -0.00052022571168 -0.00010726018526 0.0002454262311 
-0.00043330047458 0.00037312245629 0.00029576395985 -0.00056316274666 -1.0091502396e-06 5.9508954987e-05 1.4085476544e-05 0.00047688122963 -0.00011193932459 
5.3433122292e-06 7.1157316358e-05 -0.00011488232861 0.00024221142281 7.4943334531e-05 -0.00024358254204 -4.0666580179e-05 2.8138875681e-05 0.0002720246021 
-2.3475628088e-05 7.0921435031e-05 0.00016976810745 -6.1963598531e-05 0.00010063709416 6.4066176373e-06 1.9191177856e-05 0.00021824586532 -5.8088482738e-05 
3.3847441689e-05 6.6000610929e-05 -0.00014512369369 -3.8851225313e-05 -6.8797075265e-05 -0.00011908715065 7.3589383363e-05 8.7044798156e-05 2.5272142282e-05 
-1.9974136417e-05 -1.5384884935e-05 -7.512738775e-05 -0.00023811235266 1.2128287643e-05 0.00017552031077 -7.6715858417e-05 -6.7091700066e-06 8.5663801131e-05 
1.9284848801e-05 -7.1724721057e-06 -2.1373605107e-05 -2.0748747275e-05 -1.1362894021e-05 -9.342966624e-06 9.4201956162e-07 5.1961287286e-05 0.00015551623912 
-2.9774447786e-05 1.2733605712e-05 3.6767663137e-06 -2.6876177585e-05 0.00015619593339 3.5257701241e-05 -0.00021735657326 0.00029750495568 -0.0005399502728 
0.00025284949032 0.00058070418963 -0.00032170899473 6.0455550986e-06 2.5663218087e-05 5.1865833101e-05 0.00020810467481 1.4161391506e-05 -3.8699365744e-05 
8.2029266113e-05 -1.5647047705e-05 -5.5465718091e-05 1.9368587746e-05 -1.0362345083e-05 -4.0804090384e-05 1.212764407e-05 -4.573817148e-06 -8.7310147895e-06 
-0.00019298433963 -0.00012897047405 1.188153769e-05 -7.7538475968e-05 5.1516383015e-05 3.8999898578e-05 -0.00014107424321 -7.9253456933e-05 7.7354757203e-05 
-4.6670272146e-05 -0.00010230986567 -4.7056961623e-06 2.6974442215e-05 1.2123478273e-05 -7.0352978169e-05 2.3661879221e-05 -0.00016076442789 -9.8839234611e-05 
-7.5932263788e-06 -0.00014155384553 -6.723173133e-05 1.5661064361e-05 -2.55333647e-05 -1.5661362767e-05 -2.6338133117e-05 1.841851438e-05 -9.8390263007e-06 
-0.00018374482616 5.4986307108e-05 0.00017145465784 4.0210381292e-06 5.2502637034e-05 3.7458273284e-05 -1.3836940913e-05 -5.6191312583e-05 3.0413605884e-05 
1.7804008855e-05 -7.5886707808e-07 4.0051096709e-05 -4.1637543793e-05 2.7169258122e-05 -2.6583974549e-05 4.3840490916e-05 1.5278660136e-05 -5.8256030929e-05 
-1.1960659019e-05 1.4234801773e-05 -3.8944039656e-05 -4.5687881259e-05 -9.2031408217e-05 -8.2450699709e-05 2.0088584917e-05 -6.8769358819e-06 1.506041542e-05 
5.8843944705e-05 2.4587986315e-05 -2.2731672376e-05 5.2764568681e-06 9.9972909344e-06 -2.6804467058e-06 -4.8363776521e-05 0.00012378541781 -0.00013834929829 
-1.5459792009e-05 1.3112390603e-05 -3.1282291762e-05 5.7661610797e-05 5.8157653536e-05 -1.2840897198e-06 -4.3620007446e-05 0.00015619356315 3.6050657784e-05 
-2.1695515427e-05 -1.8270965057e-05 -2.7578807682e-07 1.0853675344e-05 3.2631024166e-05 1.1965606082e-05 2.8987880023e-05 -4.6448284646e-05 4.0949745162e-05 
5.9816072533e-05 -5.7215619348e-05 5.5664181172e-06 -1.2238167629e-05 -1.213534856e-05 -7.878756136e-06 8.1956034303e-05 -8.484988229e-05 -1.3119140775e-05 
1.7051847318e-05 -8.0264744029e-06 2.1015651934e-05 
