# vtk DataFile Version 4.2
Generated by LIGGGHTS
ASCII
DATASET POLYDATA
POINTS 70 float
-0.0108215 -0.0190536 0.0151337 -0.00157107 -0.0178418 0.0158834 0.00705653 -0.0169879 0.0151208 
-0.0122808 -0.0132219 0.0164762 0.00171807 -0.00934402 0.0151369 0.0122451 -0.012583 0.0192599 
0.0192397 -0.0105984 0.0170204 -0.0196873 -0.00337566 0.0187437 -0.00976261 -0.00333817 0.0194043 
-0.00649111 -0.00841402 0.0146559 0.00435084 -0.00345192 0.0173879 0.0130985 -0.00598643 0.0188928 
-0.0118523 0.0038283 0.0200592 -0.00344982 0.00712083 0.0196991 -0.0110391 0.0149744 0.0181163 
0.00482117 0.0150818 0.0145631 -0.00364321 0.0169733 0.0151936 0.00871754 0.0198466 0.0160303 
-0.0131713 -0.0174769 0.0253428 0.00823613 -0.0191738 0.020731 0.0139629 -0.0169604 0.0252264 
-0.0190594 -0.010714 0.0211105 -0.00957808 -0.0121062 0.0220618 -0.0165458 -0.0128633 0.027167 
-0.00597984 -0.0164306 0.0241512 0.00186802 -0.0154218 0.0229452 0.0032688 -0.00959497 0.0226113 
0.0089547 -0.0136573 0.0254126 0.020126 -0.00873685 0.0264316 -0.0137478 -0.00128678 0.0244307 
-0.00538248 -0.00704243 0.0261216 -0.000527784 -0.000238105 0.0224593 0.00800671 -0.00407914 0.027516 
0.0131773 -0.00689758 0.0286818 0.0199801 -0.000501291 0.022463 -0.00702209 0.00551518 0.0259204 
0.0129254 0.00197517 0.0281711 -0.0154192 0.00900663 0.0267552 -0.00168223 0.0116704 0.026754 
0.00626434 0.00906538 0.0211261 0.0060486 0.0164512 0.0241121 0.0152008 0.0153358 0.0226618 
-0.0100905 0.0193218 0.023652 -0.000884462 0.0216751 0.0220037 0.0048449 -0.0213375 0.0290192 
-0.0189073 -0.00927777 0.0367727 -0.0161914 -0.0145419 0.0354027 -0.0110158 -0.0116138 0.036566 
-0.00560253 -0.0137225 0.0316079 -0.000174077 -0.016046 0.0305233 0.00595007 -0.0128429 0.0358284 
0.0121896 -0.0149764 0.0331135 0.0185722 -0.0116742 0.0352785 -0.0100808 -0.00451556 0.0358072 
-0.00274699 -0.00174593 0.0350781 0.0027982 -0.00710385 0.0356234 0.0104723 -0.00135829 0.0365192 
0.0184193 -0.00125939 0.0314195 -0.0215021 0.000580774 0.0344671 -0.0191024 0.0059915 0.0318634 
-0.00904922 0.0040843 0.0342614 0.00440101 0.0025111 0.0296348 0.00564103 0.00660695 0.0339475 
0.0201276 0.00543527 0.0339737 0.00999801 0.0111963 0.0290555 0.0163636 0.0124425 0.0336198 
-0.0133133 0.0166668 0.030631 -0.0041117 0.0179347 0.0311915 0.00791446 -0.0204446 0.0381115 
-0.00125299 -0.0111136 0.0383972 
VERTICES 70 140
1 0 
1 1 
1 2 
1 3 
1 4 
1 5 
1 6 
1 7 
1 8 
1 9 
1 10 
1 11 
1 12 
1 13 
1 14 
1 15 
1 16 
1 17 
1 18 
1 19 
1 20 
1 21 
1 22 
1 23 
1 24 
1 25 
1 26 
1 27 
1 28 
1 29 
1 30 
1 31 
1 32 
1 33 
1 34 
1 35 
1 36 
1 37 
1 38 
1 39 
1 40 
1 41 
1 42 
1 43 
1 44 
1 45 
1 46 
1 47 
1 48 
1 49 
1 50 
1 51 
1 52 
1 53 
1 54 
1 55 
1 56 
1 57 
1 58 
1 59 
1 60 
1 61 
1 62 
1 63 
1 64 
1 65 
1 66 
1 67 
1 68 
1 69 

POINT_DATA 70
FIELD FieldData 7
id 1 70 int
5432 2813 3936 3250 1762 3755 5455 209 736 
2889 1943 3500 3959 2182 468 2282 1446 4318 
3015 2654 2726 3867 4394 2801 3117 942 2163 
5438 1999 5388 1617 842 4035 3532 1477 385 
2526 3076 398 5080 4213 44 4735 1796 2132 
3295 3793 665 3387 901 1166 5417 2469 724 
4635 2582 4507 5547 3230 3233 5141 1380 3884 
2268 914 596 4210 4832 4085 5024 
type 1 70 int
2 2 2 2 2 2 2 2 2 
2 2 2 2 2 2 2 2 2 
2 2 2 2 2 2 2 2 2 
2 2 2 2 2 2 2 2 2 
2 2 2 2 2 2 2 2 2 
2 2 2 2 2 2 2 2 2 
2 2 2 2 2 2 2 2 2 
2 2 2 2 2 2 2 
i 3 70 int
0 0 0 0 0 0 0 0 0 
0 0 0 0 0 0 0 0 0 
0 0 0 0 0 0 0 0 0 
0 0 0 0 0 0 0 0 0 
0 0 0 0 0 0 0 0 0 
0 0 0 0 0 0 0 0 0 
0 0 0 0 0 0 0 0 0 
0 0 0 0 0 0 0 0 0 
0 0 0 0 0 0 0 0 0 
0 0 0 0 0 0 0 0 0 
0 0 0 0 0 0 0 0 0 
0 0 0 0 0 0 0 0 0 
0 0 0 0 0 0 0 0 0 
0 0 0 0 0 0 0 0 0 
0 0 0 0 0 0 0 0 0 
0 0 0 0 0 0 0 0 0 
0 0 0 0 0 0 0 0 0 
0 0 0 0 0 0 0 0 0 
0 0 0 0 0 0 0 0 0 
0 0 0 0 0 0 0 0 0 
0 0 0 0 0 0 0 0 0 
0 0 0 0 0 0 0 0 0 
0 0 0 0 0 0 0 0 0 
0 0 0 
v 3 70 double
0.006145024567 -0.0073478131805 -0.19660013248 -0.011626644803 -0.011519118707 -0.19625013425 -0.013984724785 -0.015990741145 -0.19212317026 
0.01347182045 -0.022231348015 -0.18100913287 -0.0092833222467 -0.028992666834 -0.19289974255 -0.020243598083 -0.03081794322 -0.18393983043 
-0.023398475571 -0.044761066782 -0.20037452605 0.0039758798851 -0.043306768513 -0.2123244935 0.0029991266387 -0.025212757956 -0.19919393645 
0.0039621771379 -0.026271734025 -0.197522923 -0.0015955321182 -0.028949655255 -0.20166829474 -0.009291871653 -0.03647837016 -0.1862286271 
-0.0098820698069 -0.034026764155 -0.21978507843 0.0069157751216 -0.038611602134 -0.23877670184 -0.0056672217415 -0.0362793967 -0.25688861717 
0.030572975234 -0.032506045825 -0.21735870374 0.011196851665 -0.014495960732 -0.23987879416 0.040013707094 -0.023337095065 -0.24041155283 
0.015327625485 -0.0033863664964 -0.1540179218 -0.033126443564 -0.022074649934 -0.1845583635 -0.033294776585 -0.024475751377 -0.17218971683 
0.017847183285 -0.031206418839 -0.18465358458 0.0067673027065 -0.016702748879 -0.1741375706 -0.0016757046987 -0.016457861493 -0.15081488024 
0.002160046362 -0.013003654005 -0.15750493432 -0.017209352542 -0.012802866127 -0.16752650471 -0.01252478273 -0.0136731571 -0.18843170996 
-0.031375938454 -0.021697975208 -0.1648991172 -0.014622672331 -0.062806963386 -0.1658184491 -0.0014899321571 -0.034160250946 -0.19031390139 
-0.0033467801261 -0.015672790165 -0.16568049384 0.0035920256583 -0.023850552267 -0.19832056109 -0.0048104874813 -0.052180500221 -0.16657139693 
-0.011335259726 -0.058719037472 -0.15160221426 -4.4476377678e-05 -0.064413266388 -0.19744854062 -0.001945486743 -0.023876793671 -0.22589551792 
0.017991437255 -0.060410502974 -0.18007834622 -0.029207440196 -0.045912416613 -0.22738765416 0.018653181212 -0.033559551956 -0.26674186111 
0.027048481229 -0.039475783824 -0.22784517568 0.037824650723 -0.029870949828 -0.24828884921 0.045020882787 -0.046050082148 -0.2396956334 
-0.0060318221801 -0.0030875337504 -0.28512800824 0.026700238243 -0.00091940577473 -0.26512944644 -0.017582138592 -0.0067391683904 -0.13913885911 
0.03089081042 -0.10083278241 -0.097542255728 0.06755701105 -0.06352547671 -0.10364610537 0.013077659557 -0.088820768704 -0.1050080505 
-0.018678268433 -0.020876364041 -0.13385827493 -0.013853369342 -0.0068227298073 -0.13118193767 0.019313941762 -0.10741201383 -0.097490759262 
-0.038460996513 -0.089214080765 -0.1283631323 -0.067688063929 -0.059919266145 -0.10031573336 -0.013644155747 -0.097763924293 -0.16223389529 
-0.0022020609984 -0.11699833277 -0.20746483679 0.0046877009425 -0.095204446404 -0.12863078324 0.00084158005808 -0.12065524461 -0.17430289089 
0.0037825813295 -0.10011410577 -0.16913301902 -0.022466735378 -0.097156180095 -0.21457113916 -0.025723436531 -0.086332830191 -0.22063278205 
-0.016395835829 -0.090431448822 -0.24228115499 -0.018329379464 -0.041838688025 -0.20014946387 0.014503102578 -0.054584946029 -0.19493974289 
0.028521975114 -0.087508228723 -0.23651810521 0.022346831546 -0.050572553072 -0.25628895844 0.052748694576 -0.072816277719 -0.2689477135 
-0.04186714277 -0.025104721872 -0.33826676681 -0.0032977142538 -0.0046796728857 -0.30677680091 -0.060104525565 -0.042784528783 -0.04669824598 
0.021179861277 -0.10003108852 -0.095235841142 
f 3 70 double
0 0 -0.0098744152677 0 0 -0.0098744152677 0.00028702564147 0.00066128782332 -0.010566083413 
0.0020175882585 -0.0024035239067 -0.010876256463 -0.00060201668974 0.00082760675602 -0.010239590942 -0.00017121318646 -0.00020947502287 -0.0098712180214 
0.00032452987318 -0.00011342768949 -0.0096285933454 -3.6478277486e-05 -0.00046111861237 -0.010825792206 -0.0021389114803 0.00055189141055 -0.011571176645 
0.001193302028 0.00023033413484 -0.0098584200749 -0.00012796432707 -0.00045649142073 -0.010180957116 0.0005130675087 -0.00039584203741 -0.009616273251 
0 0 -0.0098744152677 0 0 -0.0098744152677 0.00042112745092 -0.00024598023927 -0.0093524753249 
0 0 -0.0098744152677 0 0 -0.0098744152677 0 0 -0.0098744152677 
-0.004743077887 -0.0029035880803 -0.010160937405 -0.000309512851 0.0020217173846 -0.011488191359 0 0 -0.0098744152677 
-0.0021181583882 -0.0015337583965 -0.011749746293 0.00041587189632 7.796347973e-05 -0.0096012816345 0.00051857608796 -0.0015710299219 -0.010048962981 
0 0 -0.0098744152677 0.00017533900069 -6.8656875325e-05 -0.010005318738 0.00049721531373 1.5629250056e-05 -0.010052395306 
0 0 -0.0098744152677 -0.0034002456701 -0.001404942532 -0.0096086826274 -0.0060920482545 -0.0036404919583 -0.016422909985 
-0.0028021885278 -0.0048872226265 -0.011008719036 -3.3961225905e-05 -2.4992807244e-05 -0.0098896794323 -6.9852419411e-05 3.5390740778e-06 -0.0098376333535 
-0.0029478737762 3.3971280839e-05 -0.0094754116289 0 0 -0.0098744152677 0 0 -0.0098744152677 
-0.00025968401341 0.0018276823666 -0.011186129369 -2.9082045723e-09 2.900200404e-08 -0.0098743883128 0 0 -0.0098744152677 
0 0 -0.0098744152677 -0.00098996800059 -0.00031766254416 -0.0095002959535 0 0 -0.0098744152677 
-0.00087708989227 -0.00067609313501 -0.011677263727 0 0 -0.0098744152677 0 0 -0.0098744152677 
0 0 -0.0098744152677 -0.026740261746 0.00053280849865 -0.0054401173445 0 0 -0.0098744152677 
0 0 -0.0098744152677 -1.4275487728e-05 8.8549823744e-06 -0.0098587049047 0 0 -0.0098744152677 
-0.0070085739668 -0.0036272383718 -0.01292126836 0.0058305858247 -0.012918567763 -0.032157512505 0 0 -0.0098744152677 
0 0 -0.0098744152677 0 0 -0.0098744152677 0 0 -0.0098744152677 
0 0 -0.0098744152677 -0.0014425622987 -0.0015767169696 -0.0072873102177 0 0 -0.0098744152677 
0 0 -0.0098744152677 0 0 -0.0098744152677 0 0 -0.0098744152677 
0 0 -0.0098744152677 0 0 -0.0098744152677 0 0 -0.0098744152677 
0.00015387761091 0.0002737733584 -0.0094042432733 0 0 -0.0098744152677 0 0 -0.0098744152677 
0 0 -0.0098744152677 
radius 1 70 double
0.003 0.003 0.003 0.003 0.003 0.003 0.003 0.003 0.003 
0.003 0.003 0.003 0.003 0.003 0.003 0.003 0.003 0.003 
0.003 0.003 0.003 0.003 0.003 0.003 0.003 0.003 0.003 
0.003 0.003 0.003 0.003 0.003 0.003 0.003 0.003 0.003 
0.003 0.003 0.003 0.003 0.003 0.003 0.003 0.003 0.003 
0.003 0.003 0.003 0.003 0.003 0.003 0.003 0.003 0.003 
0.003 0.003 0.003 0.003 0.003 0.003 0.003 0.003 0.003 
0.003 0.003 0.003 0.003 0.003 0.003 0.003 
omega 3 70 double
-0.27361167478 2.446440864 -0.77070833071 0.37114726646 3.4471182168 -3.3147495286 -1.071423549 -0.8873338987 -2.2761775028 
-0.068696380982 -1.6111333015 1.1900134535 -1.5307447276 0.76764309009 -1.3891330054 -1.0302026103 -0.52785046281 -1.9516680421 
-0.51649620099 3.3419342547 -1.5602636837 0.113066649 1.0399123336 1.1993550915 -4.1051171783 1.3237209815 -0.95483893296 
-1.4107273331 3.7014370034 0.12434751697 -1.0661976089 0.74626528276 -1.2702757993 -1.0249822798 -0.010999991037 -2.518892409 
-0.29378889713 -0.12573278191 2.1665022305 -3.6910985973 0.93230878806 -3.1647787725 -5.3319632708 -1.5258625957 2.9376521322 
-4.3757264223 1.7130847688 1.4722545325 -2.0264915959 2.095904163 -0.46089731355 -2.9875467428 -1.5169153439 -2.0319106367 
-1.0922179066 1.0202230151 1.744453072 2.0046945478 -2.1804186256 -2.0965322985 -0.73207785784 2.9647700623 0.29125062155 
-3.9111461296 -2.2627681048 0.30742918468 -0.47107679503 -3.0565754352 -0.077876739295 1.0976392441 0.51217302806 2.4436899156 
-1.857342371 -0.70933587735 1.5600417851 -4.0836831929 2.2477196867 -1.7127988996 -1.8544649804 0.58874616411 0.34021104314 
-1.6752076797 -0.2128125682 -1.9987234734 0.15094486656 -1.2107453876 -4.8391895937 -1.9535570528 -2.3244100812 4.0220273779 
-2.6316253656 -0.44731216536 0.39875594804 -0.083906381225 -0.18478099645 -1.6384314752 -0.85309832282 -2.0890991578 -3.2288309176 
2.3944454259 0.1621283288 0.71315540777 -0.9858680598 2.0927196835 -3.2835802533 -3.308863801 -1.9411728657 1.7172451531 
-5.1633704609 -3.4400795013 2.0639437155 -2.0217233899 -0.28483561437 -0.018964387242 -3.4942601974 0.16385003678 -1.8749481803 
-2.6390601851 -0.93641141252 -3.76296345 -2.1097752732 -4.8073463198 -1.1645103342 -4.736958798 -0.32621837907 -0.81959260585 
1.8729890734 -0.77490817758 -4.5742597493 1.2135465067 -0.81457323453 -3.7365137929 1.1304371318 4.2121948785 0.79170104032 
-9.1040592644 -0.45957156131 10.992268154 9.3683308647 10.447542968 10.662347455 5.3014653111 7.9503884289 0.89990980195 
4.7083280387 -2.5215560644 2.7464011799 -3.0441805601 0.52461043185 1.9484443168 -5.8164598988 13.43772683 -0.27776696656 
7.1373523106 -20.576146269 -1.6882817139 -0.87074330147 5.9368536475 -1.1165707945 -0.43351475974 2.541423714 -1.7502241104 
2.5971140301 -8.7287481855 -1.1395031725 -7.3542517066 -3.3770194548 -0.30731075325 10.911721021 -2.3580687023 -2.3067023991 
-2.6193832451 1.0847344139 -7.8416592464 1.561701624 -0.072014773801 7.73776997 1.1604528231 -0.53344758787 3.0358023361 
-4.092147269 -5.4245865564 -10.584030409 -1.9717173329 1.7377459913 2.5924131027 2.8745704088 8.3359098902 -5.2512255598 
-6.5048457072 -0.91122194408 -4.6653485089 0.30172940697 4.2336719658 2.1454518299 0.22756510708 -6.3608295851 -1.8528292102 
-2.044347723 -9.3496745321 1.6052386387 1.0147955595 -0.022818657421 2.6389452674 11.59575546 -5.907337557 -3.1478736707 
17.213900008 10.442612248 -4.5644673708 
