# vtk DataFile Version 4.2
Generated by LIGGGHTS
ASCII
DATASET POLYDATA
POINTS 70 float
0.0114581 -0.0368894 0.00699838 -0.0237986 -0.0238458 0.00699828 -0.00516478 -0.0202765 0.00953845 
0.0278628 -0.0211398 0.0135785 0.0230261 -0.0153722 0.00699752 -0.0253441 -0.00911908 0.0113724 
-0.0187622 -0.00161635 0.0107676 -0.00540934 -0.000824611 0.0069993 0.0045111 -0.00742059 0.00934088 
0.0159819 -0.000463851 0.0109253 0.0119743 0.00781084 0.0069976 0.0247776 0.00517861 0.00975104 
-0.0327818 0.0126216 0.00699878 -0.0248283 0.0178785 0.0100133 -0.000589488 0.0181855 0.0102347 
0.00562292 0.011265 0.0139045 -0.0125072 0.0218876 0.00749382 0.00288389 0.0293428 0.00699795 
0.0229398 0.0220761 0.0070533 -0.000836415 -0.0222524 0.0217332 0.0205449 -0.00875754 0.0144138 
-0.00820969 0.00387825 0.0164056 -0.0114136 0.0133337 0.0169576 0.0101142 0.0160929 0.0215669 
0.0225476 0.010684 0.0232497 0.0057422 0.0299437 0.0204631 -0.0141535 -0.0327213 0.0297117 
-0.000932096 -0.0397253 0.0283781 -0.00426073 -0.0305304 0.0304676 -0.0203286 -0.0203268 0.0274441 
-0.00721645 -0.018164 0.0282577 0.00504079 -0.0176016 0.0283518 0.019833 -0.0173874 0.0279802 
0.0294059 -0.0112395 0.0311967 -0.00674141 -0.00769605 0.0261014 0.0291985 -0.00143261 0.0292522 
-0.0127277 0.00477301 0.0347275 -0.00474817 0.00179301 0.0286245 0.0109787 0.0038892 0.0330456 
-0.012138 0.0145033 0.032501 0.0040476 0.0289293 0.0322747 0.0115002 0.0244725 0.0273158 
0.0295522 0.021592 0.0316808 0.00282281 -0.0325029 0.0374722 -0.0125618 -0.0252659 0.0410811 
0.0107596 -0.0251496 0.041906 -0.0216844 -0.0136966 0.0449292 0.00295226 -0.0199709 0.0378388 
0.0380504 -0.0114132 0.036744 -0.0161152 -0.00371844 0.0393055 -0.000240087 -0.00253142 0.0366106 
0.0163072 -0.000789571 0.0443757 0.0206867 -0.00931641 0.0414084 -0.0315248 0.00143338 0.0398353 
-0.0193531 0.0218709 0.0395089 -0.006833 0.0267618 0.0404402 0.0116872 0.0258019 0.0379173 
-0.0090512 -0.0234547 0.0502674 0.020305 -0.0299045 0.0510236 -0.033638 -0.0136575 0.0531292 
0.0289081 -0.0133596 0.0475458 -0.0282449 -0.001882 0.0510298 -0.00557575 -0.00708143 0.0460092 
-0.0208779 0.00686567 0.0466713 -0.0126155 0.00283972 0.0506102 -0.0020702 0.00309101 0.0460998 
0.00615957 0.000137387 0.051779 0.0273787 0.00968743 0.0508261 -0.00966207 0.0205185 0.0524101 
4.56628e-05 0.0204071 0.0471149 
VERTICES 70 140
1 0 
1 1 
1 2 
1 3 
1 4 
1 5 
1 6 
1 7 
1 8 
1 9 
1 10 
1 11 
1 12 
1 13 
1 14 
1 15 
1 16 
1 17 
1 18 
1 19 
1 20 
1 21 
1 22 
1 23 
1 24 
1 25 
1 26 
1 27 
1 28 
1 29 
1 30 
1 31 
1 32 
1 33 
1 34 
1 35 
1 36 
1 37 
1 38 
1 39 
1 40 
1 41 
1 42 
1 43 
1 44 
1 45 
1 46 
1 47 
1 48 
1 49 
1 50 
1 51 
1 52 
1 53 
1 54 
1 55 
1 56 
1 57 
1 58 
1 59 
1 60 
1 61 
1 62 
1 63 
1 64 
1 65 
1 66 
1 67 
1 68 
1 69 

POINT_DATA 70
FIELD FieldData 7
id 1 70 int
44 732 1464 837 912 1986 1606 936 895 
1371 663 720 467 208 1438 1782 385 1157 
595 2267 398 2166 1751 2117 2149 1929 2782 
2509 2454 2873 2996 2710 2790 3102 2640 2566 
3057 2252 3510 3206 3209 3228 3475 3932 4179 
4006 4181 3841 3364 4052 3265 4362 4280 3857 
3770 3909 3724 5377 4989 4708 4482 5353 5397 
4796 5509 5103 5420 5050 5402 4610 
type 1 70 int
2 2 2 2 2 2 2 2 2 
2 2 2 2 2 2 2 2 2 
2 2 2 2 2 2 2 2 2 
2 2 2 2 2 2 2 2 2 
2 2 2 2 2 2 2 2 2 
2 2 2 2 2 2 2 2 2 
2 2 2 2 2 2 2 2 2 
2 2 2 2 2 2 2 
i 3 70 int
0 0 0 0 0 0 0 0 0 
0 0 0 0 0 0 0 0 0 
0 0 0 0 0 0 0 0 0 
0 0 0 0 0 0 0 0 0 
0 0 0 0 0 0 0 0 0 
0 0 0 0 0 0 0 0 0 
0 0 0 0 0 0 0 0 0 
0 0 0 0 0 0 0 0 0 
0 0 0 0 0 0 0 0 0 
0 0 0 0 0 0 0 0 0 
0 0 0 0 0 0 0 0 0 
0 0 0 0 0 0 0 0 0 
0 0 0 0 0 0 0 0 0 
0 0 0 0 0 0 0 0 0 
0 0 0 0 0 0 0 0 0 
0 0 0 0 0 0 0 0 0 
0 0 0 0 0 0 0 0 0 
0 0 0 0 0 0 0 0 0 
0 0 0 0 0 0 0 0 0 
0 0 0 0 0 0 0 0 0 
0 0 0 0 0 0 0 0 0 
0 0 0 0 0 0 0 0 0 
0 0 0 0 0 0 0 0 0 
0 0 0 
v 3 70 double
-1.819027645e-07 1.0499528595e-07 4.5288901336e-08 5.3467682978e-08 -3.1743887577e-08 1.9676909402e-09 6.3968473582e-08 -1.6582019836e-07 3.7201007359e-09 
6.9263683011e-07 -1.233447599e-07 6.316701115e-08 4.1973893836e-07 2.630327792e-07 8.4514480673e-08 9.3693034103e-08 -2.4338852804e-08 -9.3451377779e-08 
1.0822232608e-07 1.3031116568e-07 -1.0720458841e-07 -2.8676088792e-07 6.7758827399e-08 6.5907252655e-07 -1.2012252456e-07 -5.5771186175e-07 -1.2677708595e-06 
-3.6932951161e-07 -3.5012443065e-07 1.093505664e-07 9.0008573525e-08 -2.4227157285e-08 -2.0903415878e-07 -2.6402113945e-07 1.6469925085e-07 -9.8027673917e-07 
-5.2359641415e-07 -5.715321294e-07 2.4700924983e-07 -8.4062887168e-07 -6.0723772258e-07 -1.264589453e-06 -1.3283965336e-06 3.915145084e-07 2.9161180258e-07 
-1.0888624713e-07 1.6023746485e-07 -4.8959294474e-07 -6.028127371e-07 6.0404116559e-07 9.6046324598e-07 -7.5351482391e-07 2.0257101014e-07 3.3053916809e-07 
1.5257956765e-07 2.9289782814e-07 -2.5186463587e-07 -1.4238310127e-08 1.5712152148e-07 -1.5301155892e-08 4.8299301733e-07 1.8866492853e-07 -3.6251987518e-07 
1.2869668942e-07 -7.4590925188e-08 -1.0928671789e-07 -2.9399674042e-07 -1.4295003173e-07 1.7588174366e-07 -4.3204819737e-08 -1.9851237788e-08 -1.446071418e-07 
1.093843037e-07 -1.0758290445e-07 -7.4893136895e-08 4.5688741496e-09 -7.0226734554e-08 -9.7586995238e-08 9.2957199342e-08 -1.2263871133e-08 4.3887219411e-09 
-1.0316625099e-07 -2.2259021667e-08 -8.9313028453e-08 2.6932933149e-08 6.7533120125e-08 2.7723514556e-08 -1.068874896e-07 4.214437027e-08 -7.4988158086e-08 
1.3647370076e-07 -9.534701576e-08 -3.1327335751e-07 1.3394592652e-07 2.4016962993e-07 -9.5971708212e-11 1.3363785125e-07 4.4010932302e-07 4.2579339737e-07 
1.1296641204e-07 -1.0920440291e-06 6.9661877085e-07 4.0099208847e-07 3.1195483422e-08 1.0722296746e-07 1.2015838335e-07 -7.9941408009e-07 1.5791866898e-08 
1.3632084855e-07 -2.5337627548e-07 -1.1730609175e-07 7.1126367205e-08 6.8001407206e-08 -1.7590076821e-07 -6.4300970593e-08 7.8932938385e-08 6.6577066276e-08 
-3.890220044e-08 -4.1698159062e-07 4.3593581977e-07 -4.749683203e-08 1.4394430302e-07 1.6292757287e-08 5.3734494385e-08 1.1661342764e-07 2.4264163529e-07 
-8.6789750396e-08 5.634536199e-08 -3.9241599329e-08 4.4533802777e-09 7.2083261811e-09 8.7438766508e-08 1.4511741904e-07 2.8201080816e-07 -1.3801392233e-07 
5.3390994822e-08 5.1508809936e-08 -9.7506797186e-09 -1.7272039037e-07 -2.2013690316e-08 1.5906457989e-07 5.8486650906e-09 3.4486171066e-08 1.1647112509e-07 
-5.232817285e-08 -3.2579774011e-08 -4.6483646777e-07 4.3643136317e-07 1.2693503422e-07 -6.9520139977e-07 -6.7230517707e-08 -1.2809812059e-07 1.2858316218e-07 
1.9462854647e-07 -1.5548773286e-07 -1.9257082553e-07 1.0090081987e-07 1.3621436224e-07 1.249390512e-07 2.8730838564e-08 -2.7358672172e-07 1.3277725687e-08 
-2.9142170869e-07 3.4721225877e-07 -9.8598965827e-08 -8.7320517254e-08 -1.3737678857e-07 -9.9947154491e-08 2.1076705675e-07 -5.9187802752e-08 -2.0012759826e-08 
1.3224573611e-07 7.4971302626e-08 -3.6719014735e-08 -1.587995604e-08 -1.1092133966e-07 3.1406274259e-07 2.0330338043e-07 1.6556426458e-07 4.8523379897e-08 
1.3877689468e-07 -6.1079983088e-08 1.8298605842e-07 -3.3345038706e-08 2.1440011741e-07 1.8342219999e-08 -6.6242093989e-07 4.0764974797e-07 8.7365596704e-07 
1.5520242346e-07 -6.2318022045e-07 7.0899758277e-08 7.0768201052e-08 1.3639731994e-07 1.5890169913e-07 1.8953008773e-07 2.2123885236e-07 -1.4693129294e-07 
2.9157129021e-08 -4.8310087314e-08 -2.4237718159e-08 4.7666690427e-08 7.396017237e-08 -1.5541683705e-08 -2.4973480198e-08 5.1087883726e-08 7.8007977728e-08 
2.6860028406e-07 -1.223523657e-07 -8.4164286531e-08 
f 3 70 double
-0.00018734146984 0.00011462327283 6.5231040599e-05 0.00029064126331 0.00030355803905 0.00025327390669 0.0001106649862 -3.985740763e-05 -0.00032441742318 
-0.00010617314375 2.9270078241e-05 0.0001895999892 -0.00046946727067 -6.9342803271e-05 0.00021772279393 0.00019080668618 0.00018622801036 -0.00010168361348 
-0.00012888022238 8.0398092613e-05 0.00013864076872 1.6522143135e-05 -0.00015044897826 -4.7557863949e-05 -0.00045490221795 -0.00057474257108 0.00012937075178 
6.6022109754e-05 7.4052347854e-05 5.9689122246e-05 5.6594046745e-05 0.00020422634245 -0.00013176638438 -6.637668034e-05 -0.00024147893429 -0.00038420881634 
-2.4546919593e-05 -5.759161801e-06 2.0960696356e-05 -0.00013888066077 0.00033470358085 -0.00032599169054 -0.00026728898148 0.00020937236392 0.00021336003345 
0.00023469373255 0.00014295386871 -0.0001191641841 0.00026056057143 -0.00057100008399 0.00050885633279 -4.4706246991e-05 0.000152064635 -0.00013134073852 
0.00018798492011 9.8104142326e-05 -0.00043305458023 -3.7495362101e-05 -0.00015085566901 -0.0001180260156 0.00017896773285 0.0005216651728 2.5043062345e-05 
-3.4790289275e-05 0.00037427150067 -0.00025298209837 0.00034138377791 -0.00045178602463 -0.00024054255507 4.9517827263e-06 -9.666483581e-06 -0.00018460642915 
-5.7057150428e-05 -0.0002182141658 1.5118698319e-05 -0.00010941030829 -0.00021100415056 0.00012171672045 6.2786117425e-05 -8.3319314858e-05 6.8346679001e-05 
-3.8129602456e-05 1.2704742533e-05 -9.5610487923e-05 -5.5019165696e-05 -5.3872634919e-06 -6.2659321125e-05 0.00020978899678 -0.00013646300875 -3.2150784552e-05 
-0.00013872186164 -0.00010772398444 7.364398678e-07 0.00013023644863 0.00019137763032 0.00017999285222 -0.00026114075766 -0.00011486126399 -0.00012540804642 
-0.00015366652866 -5.9832667831e-05 -8.8594479994e-05 -4.5343512976e-06 -5.3982504431e-05 2.8346905454e-05 6.464450096e-05 6.2626214388e-06 -1.1793994798e-05 
-0.00029846758769 -7.7676904852e-05 -5.3813968593e-06 0.00016593137083 0.00022177084999 0.00015049061097 3.4745342983e-06 -2.0904087219e-05 -9.6671877496e-05 
-1.6828522204e-05 -0.00015705740848 1.946065853e-05 4.8935367343e-05 2.0107374965e-05 -1.0123971565e-05 -1.3720734966e-06 -8.9329991103e-05 -3.686638299e-05 
8.3915863292e-05 8.7773024661e-05 4.3453638419e-06 -1.8583284048e-05 -2.1540300551e-05 -3.355208078e-05 -0.00010023559795 -2.2290555759e-05 -7.9368151946e-05 
-6.6137076251e-05 5.2948110142e-05 3.7777427874e-05 6.2625946564e-05 3.0775545346e-05 -1.5646731161e-05 1.255035036e-05 -2.8272353975e-06 3.9975696587e-05 
-9.3278658931e-06 -8.8483822964e-05 -6.9615228722e-05 6.5894752464e-05 -0.00010097477175 4.8041883684e-05 -4.6517431229e-06 2.2062748951e-05 1.1166275839e-05 
-1.9607043247e-06 2.3742312979e-05 1.8635177577e-05 -0.00010321511283 7.265618749e-05 2.8479578993e-05 -5.837295091e-05 0.00012129912048 -3.7149291406e-05 
-1.9719485208e-06 2.6173367411e-05 4.9137541186e-05 -0.00014560543893 6.5345954991e-05 7.9509532379e-05 5.0861755914e-06 3.1804374553e-05 -3.9709689307e-05 
1.0590565062e-05 1.4147091371e-07 2.3881063271e-06 -1.9253478727e-06 -3.4471141733e-05 -1.158080005e-05 -0.00010380666026 -4.4002949715e-05 -1.4506428409e-05 
1.8589406893e-06 -6.0218547552e-06 6.8025565033e-05 -7.2664642246e-06 -1.1389945608e-05 6.8625693235e-06 -5.2896733445e-05 -7.1578291664e-05 1.3637574337e-05 
-7.6007955531e-05 7.8016336107e-05 2.7506774996e-05 9.0904002443e-06 -9.4590015335e-07 1.0747397769e-05 1.691794346e-05 7.8960300421e-06 3.7563517911e-07 
-4.9806695456e-05 -4.991556095e-05 -1.9608191775e-05 -7.0560145157e-05 -1.0837614143e-05 -2.2563868379e-05 6.889160846e-05 -4.6295958238e-05 1.2916637942e-05 
4.1951502847e-05 -1.6160121522e-05 1.4589986979e-05 
radius 1 70 double
0.005 0.005 0.005 0.005 0.005 0.005 0.005 0.005 0.005 
0.005 0.005 0.005 0.005 0.005 0.005 0.005 0.005 0.005 
0.005 0.005 0.005 0.005 0.005 0.005 0.005 0.005 0.005 
0.005 0.005 0.005 0.005 0.005 0.005 0.005 0.005 0.005 
0.005 0.005 0.005 0.005 0.005 0.005 0.005 0.005 0.005 
0.005 0.005 0.005 0.005 0.005 0.005 0.005 0.005 0.005 
0.005 0.005 0.005 0.005 0.005 0.005 0.005 0.005 0.005 
0.005 0.005 0.005 0.005 0.005 0.005 0.005 
omega 3 70 double
0.0001403171805 -3.664594589e-05 4.0123197088e-05 -5.5447056177e-05 2.9868834309e-05 -1.3997014515e-05 6.2178099562e-05 -1.623851058e-05 -9.7092188934e-06 
0.00010538080316 -0.0010848340505 -3.571635044e-05 6.722084162e-05 0.00035191976213 0.00023364865616 4.9898475217e-05 2.1935776036e-05 -5.9481994703e-06 
3.5527148007e-05 4.2857522096e-05 1.243395345e-05 -0.00011126739691 0.00029607698474 -6.2446772089e-05 2.6255731035e-05 -1.7662745568e-05 -0.00011408847457 
-7.9988796532e-05 0.00026996593036 -0.00017749721675 1.7226010951e-07 -4.0721226236e-05 0.00018166018521 0.00035717559788 0.00027334268945 -0.00040452070928 
5.3721657195e-06 1.4361371256e-05 -1.394445406e-05 -0.00016301239595 -0.0003398737769 -0.00027224828061 6.5028567922e-06 0.00038021881997 -0.0001089201599 
0.00013712083238 3.1845799868e-05 -2.789989471e-05 -0.00018353829084 0.00069717238199 -0.0001894366267 -3.6487865441e-05 -9.7031432516e-05 0.00048535688638 
0.00011335777841 -1.6149816752e-05 -0.00015656177575 5.3497719825e-06 -0.0001565161694 8.1685537072e-05 6.0578155087e-05 -0.00014478820304 2.5446844768e-05 
0.00010236450885 2.6406662766e-05 2.6636682407e-05 -0.0001690117095 -0.00015245711048 -0.00019013419946 -0.00010044455385 -5.3329334855e-05 -8.480850638e-06 
-2.1649821137e-05 1.5284831088e-05 4.9959003624e-05 0.0002363677698 0.00012329176405 -0.00012993861197 5.4703942064e-06 -2.0150700533e-05 8.5785686093e-05 
-4.4652661853e-05 3.524677563e-05 -7.0868685287e-06 3.7365666461e-05 1.819156012e-05 -1.976080798e-05 9.2765221363e-05 0.00021212837981 6.0364390423e-05 
-8.3643769479e-06 -5.8249182517e-05 7.2207295547e-05 3.1175494246e-05 0.00013454112961 0.00016122172207 0.00026319966702 0.00028786760105 0.00028169096185 
-0.00031415299581 4.6917096513e-05 9.5354017934e-05 2.8597060712e-05 -1.2735031488e-05 4.7816569231e-05 3.8104272726e-05 -4.1388266597e-05 -0.00011011626828 
-3.986099888e-06 6.4631996348e-05 -5.3179423306e-05 -1.0624572798e-05 -1.0208924254e-05 -3.454937462e-05 1.4727097305e-05 -6.4036679045e-05 1.6331634107e-05 
6.6313010344e-05 -4.9184337444e-05 -4.0329433995e-05 -2.3021534729e-05 1.3252025228e-05 3.8770432339e-05 0.00022556013813 0.00018320657235 4.2608826275e-06 
2.8678914462e-05 2.7984030776e-05 -2.7601101728e-05 9.3112063001e-07 -2.8026364509e-05 3.4424981046e-05 -1.4458157644e-05 -3.5815244748e-05 -4.8165991976e-05 
-2.626015156e-05 1.0294950445e-05 2.8868474704e-05 3.0544575982e-05 7.2709534945e-05 -2.5756522247e-06 0.00013599908616 2.7310022016e-05 3.2333641255e-05 
-0.00022176148175 3.0549082544e-05 0.00014105501176 4.0085063843e-06 0.00023202392458 0.00013889268698 -4.3134417195e-05 -0.00018359666237 0.00011854547626 
2.2427261089e-05 -1.6091896461e-05 -3.2811046915e-06 -1.8183430834e-05 -3.4071334512e-06 8.943821826e-07 -3.1605495986e-05 -1.1590783943e-05 -3.2133857848e-05 
-9.4978331526e-05 2.9152755182e-05 -8.4296666942e-05 -9.7267019591e-05 -0.00017697891365 -5.036996577e-05 2.2006840676e-06 -3.5147177844e-05 -6.087890423e-05 
3.2087510468e-05 1.7632844602e-05 -2.2367280582e-05 1.0148623282e-06 3.8254863517e-07 -8.6511335932e-06 7.2681791389e-05 -9.0400778531e-05 9.9762429934e-05 
-4.0406651053e-05 -1.576117554e-05 -3.4808460915e-05 1.375069762e-05 -5.9494003111e-05 3.9059908835e-05 8.5572130307e-05 0.00024974104724 6.3531742266e-05 
-3.6491507459e-05 -3.5956849289e-05 1.1648205481e-05 -5.9722743638e-05 -9.2503030207e-05 -2.5657247417e-06 5.8703780541e-05 -0.0001552431976 9.7198446312e-05 
5.3043297177e-05 -2.2011278945e-05 -1.296178225e-05 -2.4023173657e-05 -3.5579866681e-05 6.2684011098e-06 -1.977366576e-06 -0.00027390918566 -8.2848555982e-05 
-8.7360242618e-07 -7.4617266805e-05 1.1808024058e-05 
