# vtk DataFile Version 4.2
Generated by LIGGGHTS
ASCII
DATASET POLYDATA
POINTS 70 float
0.0114581 -0.0368894 0.00699838 -0.0237986 -0.0238458 0.00699828 -0.00516478 -0.0202765 0.00953845 
0.0278628 -0.0211398 0.0135785 0.0230261 -0.0153722 0.00699752 -0.0253441 -0.00911908 0.0113724 
-0.0187622 -0.00161635 0.0107676 -0.00540934 -0.000824611 0.0069993 0.0045111 -0.00742059 0.00934088 
0.0159819 -0.000463851 0.0109253 0.0119743 0.00781084 0.0069976 0.0247776 0.00517861 0.00975104 
-0.0327818 0.0126216 0.00699878 -0.0248283 0.0178785 0.0100133 -0.000589488 0.0181855 0.0102347 
0.00562292 0.011265 0.0139045 -0.0125072 0.0218876 0.00749382 0.00288389 0.0293428 0.00699795 
0.0229398 0.0220761 0.0070533 -0.000836415 -0.0222524 0.0217332 0.0205449 -0.00875754 0.0144138 
-0.00820969 0.00387825 0.0164056 -0.0114136 0.0133337 0.0169576 0.0101142 0.0160929 0.0215669 
0.0225476 0.010684 0.0232497 0.0057422 0.0299437 0.0204631 -0.0141535 -0.0327213 0.0297117 
-0.000932096 -0.0397253 0.0283781 -0.00426073 -0.0305304 0.0304676 -0.0203286 -0.0203268 0.0274441 
-0.00721645 -0.018164 0.0282577 0.00504079 -0.0176016 0.0283518 0.019833 -0.0173874 0.0279802 
0.0294059 -0.0112395 0.0311967 -0.00674141 -0.00769605 0.0261014 0.0291985 -0.00143261 0.0292522 
-0.0127277 0.00477301 0.0347275 -0.00474817 0.00179301 0.0286245 0.0109787 0.0038892 0.0330456 
-0.012138 0.0145033 0.032501 0.0040476 0.0289293 0.0322747 0.0115002 0.0244725 0.0273158 
0.0295522 0.021592 0.0316808 0.00282281 -0.0325029 0.0374722 -0.0125618 -0.0252659 0.0410811 
0.0107596 -0.0251496 0.041906 -0.0216844 -0.0136966 0.0449292 0.00295226 -0.0199709 0.0378388 
0.0380504 -0.0114132 0.036744 -0.0161152 -0.00371844 0.0393055 -0.000240088 -0.00253142 0.0366106 
0.0163072 -0.000789571 0.0443757 0.0206867 -0.00931641 0.0414084 -0.0315248 0.00143338 0.0398353 
-0.0193531 0.0218709 0.0395089 -0.006833 0.0267618 0.0404402 0.0116872 0.0258019 0.0379173 
-0.00905119 -0.0234547 0.0502674 0.020305 -0.0299045 0.0510236 -0.0336379 -0.0136575 0.0531292 
0.0289081 -0.0133596 0.0475458 -0.0282449 -0.001882 0.0510298 -0.00557575 -0.00708143 0.0460092 
-0.0208779 0.00686567 0.0466713 -0.0126155 0.00283972 0.0506102 -0.0020702 0.00309101 0.0460998 
0.00615957 0.000137386 0.051779 0.0273787 0.00968743 0.0508261 -0.00966207 0.0205185 0.0524101 
4.56628e-05 0.0204071 0.0471149 
VERTICES 70 140
1 0 
1 1 
1 2 
1 3 
1 4 
1 5 
1 6 
1 7 
1 8 
1 9 
1 10 
1 11 
1 12 
1 13 
1 14 
1 15 
1 16 
1 17 
1 18 
1 19 
1 20 
1 21 
1 22 
1 23 
1 24 
1 25 
1 26 
1 27 
1 28 
1 29 
1 30 
1 31 
1 32 
1 33 
1 34 
1 35 
1 36 
1 37 
1 38 
1 39 
1 40 
1 41 
1 42 
1 43 
1 44 
1 45 
1 46 
1 47 
1 48 
1 49 
1 50 
1 51 
1 52 
1 53 
1 54 
1 55 
1 56 
1 57 
1 58 
1 59 
1 60 
1 61 
1 62 
1 63 
1 64 
1 65 
1 66 
1 67 
1 68 
1 69 

POINT_DATA 70
FIELD FieldData 7
id 1 70 int
44 732 1464 837 912 1986 1606 936 895 
1371 663 720 467 208 1438 1782 385 1157 
595 2267 398 2166 1751 2117 2149 1929 2782 
2509 2454 2873 2996 2710 2790 3102 2640 2566 
3057 2252 3510 3206 3209 3228 3475 3932 4179 
4006 4181 3841 3364 4052 3265 4362 4280 3857 
3770 3909 3724 5377 4989 4708 4482 5353 5397 
4796 5509 5103 5420 5050 5402 4610 
type 1 70 int
2 2 2 2 2 2 2 2 2 
2 2 2 2 2 2 2 2 2 
2 2 2 2 2 2 2 2 2 
2 2 2 2 2 2 2 2 2 
2 2 2 2 2 2 2 2 2 
2 2 2 2 2 2 2 2 2 
2 2 2 2 2 2 2 2 2 
2 2 2 2 2 2 2 
i 3 70 int
0 0 0 0 0 0 0 0 0 
0 0 0 0 0 0 0 0 0 
0 0 0 0 0 0 0 0 0 
0 0 0 0 0 0 0 0 0 
0 0 0 0 0 0 0 0 0 
0 0 0 0 0 0 0 0 0 
0 0 0 0 0 0 0 0 0 
0 0 0 0 0 0 0 0 0 
0 0 0 0 0 0 0 0 0 
0 0 0 0 0 0 0 0 0 
0 0 0 0 0 0 0 0 0 
0 0 0 0 0 0 0 0 0 
0 0 0 0 0 0 0 0 0 
0 0 0 0 0 0 0 0 0 
0 0 0 0 0 0 0 0 0 
0 0 0 0 0 0 0 0 0 
0 0 0 0 0 0 0 0 0 
0 0 0 0 0 0 0 0 0 
0 0 0 0 0 0 0 0 0 
0 0 0 0 0 0 0 0 0 
0 0 0 0 0 0 0 0 0 
0 0 0 0 0 0 0 0 0 
0 0 0 0 0 0 0 0 0 
0 0 0 
v 3 70 double
2.2526037661e-07 8.8953943245e-08 1.2666480956e-07 -1.3932410264e-08 4.9149753198e-08 1.8663764553e-07 2.0453868457e-07 1.4216353504e-07 8.1831305868e-08 
1.2771253851e-07 -3.4339425138e-07 -8.4076143274e-07 -4.9638544894e-07 -1.5880043333e-07 1.344204601e-07 3.9829777702e-08 -2.0172102204e-07 1.8244645729e-07 
-3.2075522349e-08 -7.1168553789e-08 -4.6895032927e-08 2.3620571709e-07 -2.4659992046e-07 -4.7549686679e-08 2.5930412051e-07 2.8190406564e-07 -4.3978452965e-07 
4.3999313932e-07 2.3659587209e-07 -2.1045010061e-07 9.1257455894e-08 -1.4923088444e-07 -2.2421315883e-07 -5.0777102503e-07 -6.4917296103e-08 -1.1266686306e-06 
-2.5623039938e-07 4.6850822892e-07 -8.3907439569e-07 -1.2216605527e-06 -3.7614624084e-07 1.6527449175e-07 9.7352723232e-07 1.3602267639e-07 3.5475349193e-07 
3.87127362e-07 -6.8404567204e-09 -7.9169366936e-08 2.6396125376e-07 5.5060327547e-07 -1.1542271966e-06 -1.9860320699e-07 1.642042795e-07 4.9371551644e-07 
3.8794537665e-08 3.1778973569e-07 -1.5771512377e-07 1.3710077726e-07 -1.6107660906e-07 -8.587708115e-08 2.3167569435e-07 4.7962902737e-07 1.0421532987e-07 
1.2699588958e-07 4.6337674939e-08 -2.0905296262e-08 -9.09920445e-08 -5.4791163716e-07 -3.0150616954e-07 -2.6531073673e-07 7.0457429329e-08 1.5923674577e-07 
-1.4090532176e-07 2.2545840257e-07 -2.7832732517e-08 2.0107073292e-07 -1.9454477465e-07 -5.7553219137e-07 7.5309749743e-08 9.0473897857e-08 1.3802135724e-07 
8.6852026014e-08 -8.4130842184e-08 1.2310500937e-07 1.2000329886e-08 -5.8056146727e-08 -3.8192710405e-08 -3.9228199879e-07 -2.6089085368e-08 -2.5623373866e-08 
5.4718866639e-08 2.1581587843e-07 -1.1955902068e-07 -4.1217744699e-07 -4.3695808622e-07 -7.6914591152e-07 -3.4284435866e-07 1.5872557218e-07 3.0515287728e-07 
-1.6462797131e-07 1.307057141e-07 4.7028987222e-07 -1.457856495e-07 1.5982833111e-08 -1.6522916898e-07 -5.156041463e-08 3.8853866214e-07 1.0154559449e-07 
2.0972362548e-07 2.3487448164e-07 1.4974968869e-07 -2.3571697373e-07 -9.1869560936e-08 1.9106392872e-07 4.3618405831e-08 2.4937610809e-07 -1.1176800763e-07 
-4.1335667448e-07 -5.1813630754e-09 -4.0713596521e-08 -5.1469937068e-08 -1.7101243089e-07 -1.2508504467e-07 -2.5534175094e-07 3.1084109525e-07 1.3201620326e-07 
2.2352953073e-08 4.2971254879e-08 -1.7229481844e-07 -4.3798361913e-08 7.7617162359e-08 8.9388556441e-08 -2.2202451157e-07 -2.4164623548e-07 -1.6685788802e-07 
1.1979267199e-07 -5.8700609623e-08 -2.411982471e-08 4.6803281113e-08 -1.5807771159e-07 7.0407004013e-08 1.4718507507e-07 1.0325414295e-07 4.3799727315e-08 
9.508461172e-08 9.7151270007e-08 8.1687348466e-08 -9.8999444454e-08 5.6610855856e-08 -6.3151486101e-08 -1.7246362002e-07 -7.7664677717e-09 -1.791303777e-07 
-1.1423841132e-07 1.7880963721e-07 8.7363231988e-08 -1.1046864595e-07 -2.6660976282e-08 -4.1999450628e-07 -3.2706280593e-07 1.9193341744e-08 -3.8696825832e-07 
4.9227170609e-07 -2.4737672252e-07 1.861755039e-07 1.6131962763e-07 1.8011616841e-07 -1.9463088218e-07 1.6278879414e-07 -2.5919794471e-07 3.0773311433e-08 
-1.1205560482e-07 -9.772980484e-08 1.1662470211e-07 -1.0586307931e-07 -1.1172206147e-07 -1.6582639065e-09 -4.9716137261e-08 -2.3501272314e-07 1.5696071826e-07 
-8.4764457411e-08 5.1821678568e-08 -1.3478899745e-07 1.7168484568e-07 -1.2970905782e-07 -1.8246555812e-08 2.6774908651e-08 -1.3260060987e-07 -1.3877132542e-07 
-4.2480824394e-08 9.8597178163e-08 -1.1246525525e-07 2.649677188e-08 -2.134566258e-07 1.4479765833e-08 2.7711021682e-08 7.9735238443e-08 -3.28722907e-08 
6.2996604237e-08 -9.9469579336e-08 -5.7242718672e-08 -1.7764192532e-07 1.0486032978e-07 2.1044906599e-07 -9.0088256442e-08 -1.2581444091e-07 -2.0206375538e-07 
-2.4009072429e-08 -3.024487775e-09 2.0532821441e-07 
f 3 70 double
-0.00021925680106 0.00011500440441 7.7379314221e-05 0.00024991091723 0.00026066182404 0.00027880354835 6.3231749631e-05 -0.00010930244163 -0.00039320806541 
-0.00010398706965 1.2729630939e-05 0.00014609412625 -0.00034793381587 -5.2529341736e-05 0.00014837053422 0.00015498329715 0.00014877483824 -9.7913944589e-05 
-0.00010177773447 5.9764468129e-05 0.00014236609846 1.0872955205e-05 -5.0645657561e-05 0.00018157642775 0.00018901000531 0.00022051801672 -0.0007057804255 
0.00053615553301 -0.0001230300018 0.00016444953782 6.4842669288e-06 0.00023577583091 -3.6806660774e-05 0.00016907097224 -0.00034999176104 0.00023616461362 
-8.3122068782e-05 6.3483761227e-06 -1.2380746369e-05 -0.00020222687807 0.00022740363644 -0.00035528063905 -0.00016209073981 0.00012577222263 0.00016632464469 
0.00020903731344 0.00011746030752 -0.00012776358772 0.00021245510946 -0.00052431939993 0.00045636821184 -0.00026550222171 0.00013287320019 -8.4482821119e-05 
-0.00020428788594 -0.00055035063059 -0.00047751754745 2.2856412823e-06 -0.00014152382247 -8.5734457607e-05 -0.00018048121923 -0.00020942023517 0.00018129030777 
7.7039541659e-06 0.00035189252099 -0.00024505384961 0.0003168813007 -0.00039230045897 -0.00023995294358 -2.0525205488e-05 2.274687431e-06 -0.00012076668679 
-2.2202156539e-05 -0.00020568475261 2.3818762811e-05 -9.8112407857e-05 -0.00018419807665 4.4853984683e-05 1.4121683909e-05 -9.6261114383e-05 6.1362499131e-05 
-2.1526172108e-05 3.3923387335e-05 -9.8402751435e-05 -7.8408093262e-05 -4.7134445886e-05 -3.7678876356e-05 4.6303658213e-05 -0.00013246180036 -0.00018983518988 
-0.00011468187402 -0.00011273464885 -1.4219945775e-05 -0.00019719796385 -3.9471255602e-05 -0.00046655560636 -8.7871360773e-05 2.3309426591e-05 -7.2992031735e-07 
-0.00038364944104 0.0001508346393 4.4346383334e-05 -1.7916570823e-05 -2.6447528076e-05 5.2098858706e-05 -1.7744260873e-05 6.6788739964e-05 1.149299361e-05 
-0.00028924061512 -5.4970947146e-05 -2.6773009071e-05 0.00016311629707 0.00018895320683 0.00015603957262 -2.134286207e-05 1.4801077675e-05 -0.00011464261528 
-5.6883216935e-05 -0.00012680264726 4.9903750985e-05 6.291040542e-05 4.4233041755e-05 -9.4874092305e-06 -5.2732115059e-05 9.4112766164e-06 -9.2586113494e-05 
0.00014146703176 5.8395144964e-06 -5.2627422849e-05 -1.121366731e-06 7.8055429368e-06 -3.1385435156e-05 -7.7625762003e-05 6.8037479016e-05 -1.9529720686e-05 
-1.1098589848e-05 2.3548497887e-05 2.2404424879e-05 6.1760960777e-05 2.9819851448e-05 -4.1772836659e-05 -3.1835709295e-06 -7.0440161357e-06 1.4767310926e-05 
2.4250701706e-05 -5.8138185157e-05 -7.1221856915e-05 5.3224710885e-05 -4.332290272e-05 -4.7948006815e-06 5.6284233979e-05 -1.433713853e-05 5.5705366462e-06 
2.6315708026e-06 1.6946735857e-05 1.6496562782e-05 -8.6397675021e-05 2.7465015951e-05 3.4623738288e-05 -6.7888369862e-06 9.5367090421e-05 1.2489422661e-05 
-6.257369972e-05 1.1980343988e-05 0.00020564481401 1.6613058686e-05 1.2555785293e-05 0.00010593404221 -5.7712302853e-05 3.4922204339e-05 -1.8098788641e-05 
6.1571558071e-06 1.0485615485e-05 7.3431902939e-06 -1.1632794145e-05 -1.223695452e-05 1.37006568e-06 5.6342591197e-05 -3.9446479261e-06 9.6133342886e-07 
4.2397310756e-06 -1.0379967664e-05 6.1882020586e-05 -1.2254311306e-05 -1.6111916619e-05 -5.917689592e-06 -4.5594052304e-05 -8.723103948e-05 4.7177862353e-06 
-6.9947674878e-05 6.0019642117e-05 3.620431235e-05 -1.0136292056e-05 5.4293351638e-06 1.0740438225e-05 2.5527912116e-05 -1.016350205e-05 2.0802618507e-06 
-4.5523632645e-05 -5.5438932131e-05 -1.7983591133e-05 -6.314596293e-05 -4.676521622e-06 -6.6358473503e-06 -7.3062363051e-05 -8.4145782526e-06 -2.0866297284e-05 
1.6314629185e-05 5.2733401559e-07 5.578461279e-06 
radius 1 70 double
0.005 0.005 0.005 0.005 0.005 0.005 0.005 0.005 0.005 
0.005 0.005 0.005 0.005 0.005 0.005 0.005 0.005 0.005 
0.005 0.005 0.005 0.005 0.005 0.005 0.005 0.005 0.005 
0.005 0.005 0.005 0.005 0.005 0.005 0.005 0.005 0.005 
0.005 0.005 0.005 0.005 0.005 0.005 0.005 0.005 0.005 
0.005 0.005 0.005 0.005 0.005 0.005 0.005 0.005 0.005 
0.005 0.005 0.005 0.005 0.005 0.005 0.005 0.005 0.005 
0.005 0.005 0.005 0.005 0.005 0.005 0.005 
omega 3 70 double
-6.332529437e-05 -3.4480355765e-07 8.29373346e-05 7.7821225107e-06 8.1198732839e-07 1.9961401129e-05 -8.6017068085e-05 2.5502130503e-05 -6.5870341739e-06 
0.00014563027933 5.4301092195e-05 -1.4983502587e-05 6.0440924693e-05 -0.00035399662283 0.00010888094454 3.9067895054e-06 -9.5246252431e-06 1.3139235241e-05 
-2.737141675e-05 -1.3537550812e-05 0.00012997751791 -0.00013582334685 0.00018917855249 -6.6881338019e-05 -0.00026523944897 0.00053337218822 -8.7815684763e-05 
-5.1711104206e-05 0.00028158714462 0.00017049064263 5.3377585922e-05 3.2239953718e-05 -2.3932525097e-05 0.0005655351477 0.00012989290965 -0.00017318549992 
-0.0004126657392 0.00036468857083 0.00029157145118 -0.00060571953958 -4.5568127319e-05 0.00010115553146 -0.00039761941174 -0.00050777908161 -0.00028406822689 
1.7948426805e-06 -5.218271606e-05 -2.5962553872e-06 0.00011601990996 4.3274292596e-06 -0.00019500341559 6.8329072251e-05 -5.3443700528e-05 0.00026947178479 
-0.00018861122205 -0.00012887045638 0.00010760639507 -7.4511912566e-05 0.00012365270693 -9.759839089e-06 0.00014339236947 -0.0002345937443 0.00048929281758 
4.8806364434e-05 -3.3916909782e-05 -0.00013115585371 -7.490524642e-05 -0.00011698031174 -0.00026928121611 7.2166562488e-06 3.9601534666e-05 8.5060304361e-05 
5.0716780565e-05 -2.0301583617e-05 -8.0540870108e-05 0.00028204796265 3.4764666121e-05 -2.5827021465e-05 -3.2888170782e-05 8.6658143025e-05 -9.2522236533e-05 
5.676484288e-05 -6.399424247e-05 -1.1324255334e-05 1.7562144114e-05 2.3604843546e-05 5.4156231506e-05 3.5977433534e-05 0.00012964363525 7.6324140662e-05 
1.1310965692e-05 -2.7393530868e-05 2.9897929219e-05 -8.8642080256e-05 0.00035824051197 -7.0498221038e-05 0.00014080032006 0.00040197096874 -0.00021891985656 
9.8199644625e-05 0.00022345325723 -4.9030175994e-05 2.4256705057e-05 4.3098120914e-05 1.2224620044e-05 -9.1035080285e-05 -4.6320825656e-05 0.00013014276663 
4.6655424861e-06 1.9741656137e-05 3.6159964834e-05 -4.3877859169e-05 -3.747942716e-05 -4.3077178986e-06 -2.5639603207e-06 4.3015911787e-05 2.5453939774e-05 
-6.7597669008e-05 6.0494440989e-05 3.8351511145e-05 -1.9423381347e-05 -5.0635646709e-05 -4.5528519835e-05 0.00019109024216 -8.5649108003e-06 -3.290651096e-05 
-1.6664639296e-05 -5.0430896731e-05 -3.0078179505e-05 -1.2775660657e-05 -1.8551843408e-05 3.0738856237e-05 -4.4436557782e-05 4.1782756435e-06 6.7887920444e-05 
-7.9955093186e-05 -1.8898551725e-06 2.2793263695e-05 -2.188725231e-05 -4.021633375e-05 7.9759617787e-06 -1.1709406683e-05 -4.8148636005e-05 -5.6910852799e-05 
0.00017624137699 3.1482950634e-05 -0.00015312222738 -6.0197478891e-05 -2.6832353604e-06 -1.3269725028e-05 -7.0649078867e-06 1.5034186744e-05 -8.8369744162e-06 
-2.8345488854e-05 -2.9204288607e-05 1.211396878e-05 -4.1274300715e-05 0.00010875665057 -2.6992021691e-06 0.00016515152176 3.6836070466e-05 -0.00013438054366 
2.1146059305e-05 -3.1780871097e-05 -3.8340379413e-06 3.9902625465e-05 8.3216376686e-05 3.4533684722e-05 -4.7861093468e-05 -2.6400481215e-05 -3.3495320544e-05 
-5.965750267e-05 -4.8826545004e-05 2.8723207108e-05 -1.1755574498e-06 -4.5816338819e-06 1.7555205348e-05 -3.0526544287e-05 7.4615431586e-05 -0.00013885520766 
4.4507859995e-05 1.6146431003e-05 2.8062963429e-05 5.2438313967e-05 1.9355137084e-05 5.6059859509e-05 3.494254425e-05 -1.320407824e-05 -1.2823303227e-06 
7.8458851469e-06 -5.3676588916e-05 -2.8133468995e-05 5.191617619e-05 6.6421000353e-05 1.8116721308e-05 4.9984523799e-05 -2.1225613643e-05 2.614978968e-05 
2.3259215824e-05 3.8687647655e-05 6.91884792e-07 -3.6559260811e-06 -8.5743709548e-06 2.7399795206e-06 2.4629442953e-05 0.00013770438549 -2.3640935031e-05 
3.3369027135e-07 5.9282456473e-05 -2.2519633218e-05 
