# vtk DataFile Version 4.2
Generated by LIGGGHTS
ASCII
DATASET POLYDATA
POINTS 70 float
0.0114581 -0.0368894 0.00699838 -0.0237986 -0.0238458 0.00699828 -0.00516478 -0.0202765 0.00953845 
0.0278628 -0.0211398 0.0135785 0.0230261 -0.0153722 0.00699752 -0.0253441 -0.00911908 0.0113724 
-0.0187622 -0.00161635 0.0107676 -0.00540934 -0.000824611 0.0069993 0.0045111 -0.00742059 0.00934088 
0.0159819 -0.000463851 0.0109253 0.0119743 0.00781084 0.0069976 0.0247776 0.00517861 0.00975104 
-0.0327818 0.0126216 0.00699878 -0.0248283 0.0178785 0.0100133 -0.000589488 0.0181855 0.0102347 
0.00562292 0.011265 0.0139045 -0.0125072 0.0218876 0.00749382 0.00288389 0.0293428 0.00699795 
0.0229398 0.0220761 0.0070533 -0.000836414 -0.0222524 0.0217332 0.0205449 -0.00875754 0.0144138 
-0.00820969 0.00387825 0.0164056 -0.0114136 0.0133337 0.0169576 0.0101142 0.0160929 0.0215669 
0.0225476 0.010684 0.0232497 0.0057422 0.0299437 0.0204631 -0.0141535 -0.0327213 0.0297117 
-0.000932096 -0.0397253 0.0283781 -0.00426073 -0.0305304 0.0304676 -0.0203286 -0.0203268 0.0274441 
-0.00721645 -0.018164 0.0282577 0.00504079 -0.0176016 0.0283518 0.019833 -0.0173874 0.0279802 
0.0294059 -0.0112395 0.0311967 -0.00674141 -0.00769605 0.0261014 0.0291985 -0.00143261 0.0292522 
-0.0127277 0.00477301 0.0347275 -0.00474817 0.00179301 0.0286245 0.0109787 0.0038892 0.0330456 
-0.012138 0.0145033 0.032501 0.0040476 0.0289293 0.0322747 0.0115002 0.0244725 0.0273158 
0.0295522 0.021592 0.0316808 0.00282281 -0.0325029 0.0374722 -0.0125618 -0.0252659 0.0410811 
0.0107596 -0.0251496 0.041906 -0.0216844 -0.0136966 0.0449292 0.00295226 -0.0199709 0.0378388 
0.0380504 -0.0114132 0.036744 -0.0161152 -0.00371844 0.0393055 -0.000240087 -0.00253142 0.0366106 
0.0163072 -0.000789571 0.0443757 0.0206867 -0.00931641 0.0414084 -0.0315248 0.00143338 0.0398353 
-0.0193531 0.0218709 0.0395089 -0.006833 0.0267618 0.0404402 0.0116872 0.0258019 0.0379173 
-0.0090512 -0.0234547 0.0502674 0.020305 -0.0299045 0.0510236 -0.033638 -0.0136575 0.0531292 
0.0289081 -0.0133596 0.0475458 -0.0282449 -0.001882 0.0510298 -0.00557575 -0.00708143 0.0460092 
-0.0208779 0.00686567 0.0466713 -0.0126155 0.00283972 0.0506102 -0.0020702 0.00309101 0.0460998 
0.00615957 0.000137387 0.051779 0.0273787 0.00968743 0.0508261 -0.00966207 0.0205185 0.0524101 
4.56628e-05 0.0204071 0.0471149 
VERTICES 70 140
1 0 
1 1 
1 2 
1 3 
1 4 
1 5 
1 6 
1 7 
1 8 
1 9 
1 10 
1 11 
1 12 
1 13 
1 14 
1 15 
1 16 
1 17 
1 18 
1 19 
1 20 
1 21 
1 22 
1 23 
1 24 
1 25 
1 26 
1 27 
1 28 
1 29 
1 30 
1 31 
1 32 
1 33 
1 34 
1 35 
1 36 
1 37 
1 38 
1 39 
1 40 
1 41 
1 42 
1 43 
1 44 
1 45 
1 46 
1 47 
1 48 
1 49 
1 50 
1 51 
1 52 
1 53 
1 54 
1 55 
1 56 
1 57 
1 58 
1 59 
1 60 
1 61 
1 62 
1 63 
1 64 
1 65 
1 66 
1 67 
1 68 
1 69 

POINT_DATA 70
FIELD FieldData 7
id 1 70 int
44 732 1464 837 912 1986 1606 936 895 
1371 663 720 467 208 1438 1782 385 1157 
595 2267 398 2166 1751 2117 2149 1929 2782 
2509 2454 2873 2996 2710 2790 3102 2640 2566 
3057 2252 3510 3206 3209 3228 3475 3932 4179 
4006 4181 3841 3364 4052 3265 4362 4280 3857 
3770 3909 3724 5377 4989 4708 4482 5353 5397 
4796 5509 5103 5420 5050 5402 4610 
type 1 70 int
2 2 2 2 2 2 2 2 2 
2 2 2 2 2 2 2 2 2 
2 2 2 2 2 2 2 2 2 
2 2 2 2 2 2 2 2 2 
2 2 2 2 2 2 2 2 2 
2 2 2 2 2 2 2 2 2 
2 2 2 2 2 2 2 2 2 
2 2 2 2 2 2 2 
i 3 70 int
0 0 0 0 0 0 0 0 0 
0 0 0 0 0 0 0 0 0 
0 0 0 0 0 0 0 0 0 
0 0 0 0 0 0 0 0 0 
0 0 0 0 0 0 0 0 0 
0 0 0 0 0 0 0 0 0 
0 0 0 0 0 0 0 0 0 
0 0 0 0 0 0 0 0 0 
0 0 0 0 0 0 0 0 0 
0 0 0 0 0 0 0 0 0 
0 0 0 0 0 0 0 0 0 
0 0 0 0 0 0 0 0 0 
0 0 0 0 0 0 0 0 0 
0 0 0 0 0 0 0 0 0 
0 0 0 0 0 0 0 0 0 
0 0 0 0 0 0 0 0 0 
0 0 0 0 0 0 0 0 0 
0 0 0 0 0 0 0 0 0 
0 0 0 0 0 0 0 0 0 
0 0 0 0 0 0 0 0 0 
0 0 0 0 0 0 0 0 0 
0 0 0 0 0 0 0 0 0 
0 0 0 0 0 0 0 0 0 
0 0 0 
v 3 70 double
4.7155661351e-08 -3.3921763297e-08 -7.3312552949e-09 9.6309052988e-08 2.7768464563e-08 -5.0991147675e-08 -1.5946576129e-07 -1.3934001129e-07 2.1234678806e-08 
-6.1777303349e-07 3.3454590883e-08 3.5211405531e-07 -3.8062652326e-07 -3.4805918516e-07 4.0765857453e-07 -3.3254195588e-08 -1.209240902e-08 -1.0664203664e-07 
-5.4099565669e-09 4.124595599e-08 7.7143414668e-08 -2.5578642761e-07 1.3488718839e-07 -5.1607994096e-07 -2.5814011967e-07 -8.1335400545e-07 1.166885342e-06 
-5.3962858458e-07 5.0762511092e-09 -2.1740805824e-07 1.7411511743e-07 -6.8520735537e-08 -2.2046995072e-07 -1.3146708358e-07 -3.0838919646e-07 -1.0926597438e-06 
-2.9484873153e-09 -8.3549077228e-08 7.0408047354e-07 1.3827247842e-06 -2.0728017634e-07 2.0738153427e-07 6.6922387727e-07 4.0731027474e-07 2.3831825719e-07 
-1.0596995335e-07 7.9392384155e-08 -2.0637400827e-08 -5.0843569177e-07 -6.6861325426e-07 1.6925318359e-06 -2.3871192851e-07 -2.2658834866e-07 7.4707094611e-08 
-4.2637327752e-07 -5.3680071931e-07 -3.8039885155e-07 8.5619168839e-08 -4.1590961673e-08 8.8412593435e-08 7.2008780488e-07 1.7188395718e-06 -4.2061104089e-07 
4.6051706583e-08 -7.4136336325e-08 -2.0167029395e-07 6.8891000045e-07 -7.8685484999e-07 8.3148960625e-09 -9.3495235686e-08 -2.1732584636e-07 -3.864782629e-08 
1.1333617831e-07 -7.9587354012e-08 8.163219776e-08 -1.6022518621e-08 8.6872260101e-08 -6.5919334521e-08 -8.3216779297e-08 2.9227779664e-08 -1.0318717489e-07 
-1.3486305874e-07 2.300888258e-08 -6.2532875773e-08 -1.2014112596e-07 1.4746948202e-07 8.0553411885e-08 3.6344909462e-09 1.669365807e-07 1.7409984847e-07 
-2.3061796804e-08 1.1106355069e-08 -6.2692646389e-08 3.5754460421e-07 1.0211757819e-07 2.721943249e-07 1.0214991965e-07 -2.7580948286e-07 2.911941063e-07 
8.9789777979e-08 1.6552086509e-06 2.6678553881e-07 2.3820482113e-07 7.2479901986e-09 1.8195583212e-07 1.1939521562e-07 5.457860584e-07 -1.5336427289e-08 
-1.3851358209e-07 -1.4472581806e-07 -2.730176623e-07 2.0654779344e-07 4.1180695567e-08 6.5276245643e-08 7.3994509153e-08 1.3493560398e-07 2.7335173415e-08 
-3.263633408e-07 2.3153899373e-07 4.6953009698e-07 9.69078371e-08 1.1435207749e-08 -6.8420470233e-08 8.2086918823e-08 -6.416913371e-08 -2.5205871716e-07 
-2.9744170784e-07 -1.1466348654e-08 3.0205199453e-07 -4.6486250839e-08 1.2858204384e-07 -3.1853760466e-08 5.7746040141e-08 2.7105687332e-08 1.0252222973e-07 
-8.973509595e-08 -5.3988214205e-08 1.1029740337e-07 1.3427980619e-07 -1.1325349942e-08 -2.1132586755e-07 -2.6088802445e-07 -1.9372198659e-09 -6.3625454454e-08 
1.7171801709e-07 1.6749603677e-07 3.7925531802e-07 7.3645223517e-08 1.9451398582e-07 2.4029459089e-07 1.1435132254e-07 -6.2581377287e-08 2.0755110567e-07 
1.6391166836e-07 -1.0533148329e-07 -9.9675742342e-08 9.9249897037e-09 -6.556657492e-08 1.2722870495e-07 3.076005806e-07 -6.0344200225e-08 2.6809696086e-07 
2.3284220935e-07 -2.8453069586e-07 9.3456438979e-07 5.7037331827e-08 -2.3194416457e-07 3.8543458682e-07 2.3877539967e-08 1.0952786863e-07 2.3197840375e-08 
-9.3456536648e-08 -2.1970159187e-08 -1.0250719736e-08 -1.7296394301e-08 -4.304766426e-09 2.3197405876e-08 -1.6555596137e-07 2.1599626569e-07 8.5568839411e-08 
-1.1768135494e-07 2.6823746266e-08 -1.4209038446e-07 -2.0693265887e-07 1.1935514965e-07 -3.0541397912e-08 1.3238178344e-07 1.8868157741e-08 -2.7395877838e-07 
-6.1849646409e-08 4.2956259067e-08 1.0199936582e-07 -3.75287332e-07 3.1832367055e-07 -1.8461926165e-07 -3.0217541711e-09 -1.9704880505e-07 -2.0637304485e-08 
4.751605681e-08 3.238252806e-08 -5.5381784361e-08 1.3818674975e-07 -6.3145567959e-08 5.8417600932e-08 -3.9725033956e-07 3.0793162763e-07 -3.8983630152e-07 
-4.5078704053e-08 8.3082846084e-08 -2.0261921519e-07 
f 3 70 double
-0.00013163584286 1.6670112976e-05 9.1018967888e-05 0.00027006226941 0.00030193267479 0.00025500280232 7.2713523898e-05 -0.00013099102574 -0.0003309371556 
-0.0001274169757 3.9478599061e-05 0.0002280613474 -0.00027616262396 1.3218959156e-06 5.8669002938e-05 0.00011202800091 0.00013672296599 -7.3980470915e-05 
-0.00015641090349 4.7641400543e-05 0.00017292842882 9.3851939848e-05 -0.0001852775958 -0.00038099934903 -0.00049071510868 -0.00042295743392 -0.00012886098129 
0.00027605735784 2.4289473767e-05 0.00013251844873 8.5943792118e-06 0.00021770881881 -7.6608149904e-05 0.00020571311873 -0.00035712291393 0.00044890263724 
3.339823164e-05 0.00013219661254 -0.00012559027416 -0.00020983789246 0.00036717742886 -0.00022604366323 -0.00015591968402 6.6413771419e-05 0.00010267857162 
0.00023354021053 0.00012550828257 -0.00010777747664 0.00036516901646 -0.00056340663513 0.00022321581502 0.00057798826516 -7.3955053262e-05 -8.9214978607e-05 
-5.7079121007e-05 -1.4116572315e-05 -0.00031125144985 3.6967055053e-05 -4.8613273549e-05 -6.0350320524e-05 8.329621185e-06 2.9879431273e-05 4.874490104e-05 
-1.8249795849e-05 0.00039849728983 -0.00022307513546 0.00023662920704 -0.00036055774708 -0.00021745861598 -4.6600676494e-05 9.0348623509e-06 -0.00014036592566 
-2.7619500566e-05 -0.00020518746636 7.3742916138e-06 -0.00013041872942 -0.00017753554465 9.4271097615e-05 -2.8553249418e-05 -0.00014183310317 1.6734018724e-05 
-3.6320617032e-05 1.6814245237e-05 -0.00010956611452 -6.6729602299e-05 1.7820705126e-05 -7.3978540158e-05 0.00024663789053 -0.00010754892237 9.5979623421e-05 
-9.5604599536e-05 -9.5290694043e-05 -1.1342114549e-05 -0.00028896507183 -0.00021675415356 -0.00044526987574 -0.00024409347541 1.5941309175e-05 1.606023086e-05 
-0.00040101263024 0.00015851594996 -4.0954806997e-05 -3.2803764927e-05 4.2389030119e-07 5.8338486802e-05 -9.9964173838e-06 8.3388435526e-05 -9.4265646032e-06 
-0.00029771955122 -4.4952628933e-05 -9.653104205e-06 0.00017892600743 0.00022253636586 0.00015823272801 -1.2157444789e-05 -1.7068241753e-05 -9.8464685729e-05 
-2.4711231098e-05 -0.00010795331758 5.3500876584e-05 5.7259369046e-05 4.4413182824e-05 -3.0424608587e-05 -4.4573889694e-05 1.5041728299e-05 -2.9638539858e-05 
0.00011008236556 3.7420159481e-05 -4.5997552196e-06 1.1242958595e-05 2.3086779221e-05 -2.8997971006e-05 3.4985780375e-05 9.2109400018e-05 1.1763182185e-05 
-4.3840393801e-05 7.0428674388e-05 -4.3524581704e-05 3.0394093549e-05 3.1936632509e-05 -3.3293942405e-05 1.1940583378e-05 -9.9825002692e-06 4.2320467129e-05 
-1.0099877805e-06 -2.9163609946e-05 -6.5756174726e-05 9.5193976521e-06 -0.00012386768084 4.9578103763e-05 7.4233151084e-05 3.2760111659e-05 7.5296278403e-06 
4.7330661434e-06 6.3817611787e-06 1.0341942476e-05 -8.8845985257e-05 5.0266429825e-05 4.124162361e-05 -4.0383374893e-05 9.1313414555e-05 -2.8435709173e-05 
-4.0832915815e-05 8.602542985e-06 8.6436391295e-05 -4.846865792e-06 1.4080015298e-05 8.1999467899e-05 -3.0456732422e-05 3.9570429776e-05 -8.3841457634e-06 
4.0813124483e-05 4.7986640396e-06 1.8328995437e-07 -5.7128042748e-06 -3.3962463941e-05 1.8256231024e-06 -0.00017489701244 -4.8586352017e-05 -6.6805877431e-06 
-3.2006145373e-06 -1.6591273369e-05 7.7679376514e-05 -1.0574767873e-05 -2.7424207707e-05 1.1743607537e-05 9.0490171085e-07 -4.9965352322e-06 -0.00010616369475 
-6.6798969847e-05 5.398438849e-05 2.2710411895e-05 -1.0603130555e-05 -1.1845354819e-06 1.1405656893e-05 -1.9571800682e-05 -4.3676040086e-05 6.631019405e-05 
-4.5732995214e-05 -4.8405030083e-05 -1.096269359e-05 -6.5047987337e-05 -5.6054573295e-06 -1.3770813869e-05 -8.8733061522e-05 -1.4069132667e-05 1.5377022753e-05 
3.2225499773e-05 4.3487034431e-07 2.1393500636e-05 
radius 1 70 double
0.005 0.005 0.005 0.005 0.005 0.005 0.005 0.005 0.005 
0.005 0.005 0.005 0.005 0.005 0.005 0.005 0.005 0.005 
0.005 0.005 0.005 0.005 0.005 0.005 0.005 0.005 0.005 
0.005 0.005 0.005 0.005 0.005 0.005 0.005 0.005 0.005 
0.005 0.005 0.005 0.005 0.005 0.005 0.005 0.005 0.005 
0.005 0.005 0.005 0.005 0.005 0.005 0.005 0.005 0.005 
0.005 0.005 0.005 0.005 0.005 0.005 0.005 0.005 0.005 
0.005 0.005 0.005 0.005 0.005 0.005 0.005 
omega 3 70 double
3.370418563e-05 1.3549193798e-05 -0.00017023700078 -8.5141266273e-05 3.6756697442e-05 -4.796224363e-05 -2.3950230494e-05 3.5776624879e-05 4.9059350737e-05 
-7.1850760842e-05 0.00079164829226 1.6487542267e-05 3.6078206075e-05 -0.00067295286606 0.0001468394526 5.933111687e-05 1.8471471239e-05 -1.2554404531e-05 
5.0699353091e-05 -2.0114244879e-05 -0.00012263830064 0.00017867238086 -0.00030627409703 6.1445355292e-05 0.00014148676494 -0.00044409606914 -5.6582326958e-05 
-8.5917930826e-06 -0.0002045738046 -0.0003870601133 8.9803478063e-05 -1.6369268899e-05 -8.8823809475e-05 0.00064696781067 0.0001628086694 -4.4278640693e-05 
0.00027137308518 -0.00023045186986 -9.4058560652e-05 0.00056145271475 -0.00016548673018 -1.6471889595e-05 -0.0003126635398 -0.00027415990895 -0.00035341523188 
0.0001103276278 -0.00011856046147 -7.7704357922e-05 -0.0001341514303 -0.00020663732717 0.00011853151845 7.8104945183e-05 0.00014819530994 1.5710802454e-05 
-0.00016679529116 1.3545938153e-05 -0.00025849920714 8.0361781254e-05 -0.00015971683721 -4.833341388e-05 0.00042097116794 -0.00029091165406 -0.00015345086391 
4.1967527411e-05 2.7777718126e-05 1.2441089836e-05 -0.00016386646796 2.7767803402e-05 -0.00014774559487 9.6438947243e-05 4.3763817152e-05 7.1689649471e-05 
2.3328620752e-05 3.288442472e-05 -7.4014031949e-05 3.6966673466e-05 0.00013367994365 -5.2830396993e-05 -3.3730488027e-05 -4.181677798e-05 1.2682954238e-05 
-2.6180257511e-05 4.8095576948e-05 2.7362773451e-05 -1.4835314739e-05 -3.6042504579e-05 -3.0286890245e-06 2.801686765e-06 -5.309191494e-05 5.5440861752e-05 
-3.9231937955e-05 4.0079787826e-05 -5.8151520224e-05 1.6449410714e-05 -0.00024963285722 -0.000125414078 -0.00028017886867 8.6405909992e-05 -0.00037732524061 
0.00055664993674 0.00010436643844 -0.00028187971579 -3.7384571269e-05 1.0604078585e-05 3.3357847034e-05 5.7889926522e-05 -4.3796551847e-05 0.0001382631223 
-9.7462467687e-05 5.5019700141e-05 1.1441742113e-07 1.0377647351e-05 -2.0452933132e-05 -1.0369906868e-05 5.295700019e-06 -1.0040512177e-05 -5.0260582919e-06 
0.00022664500554 0.00013809812183 -5.2292590554e-05 1.7998580169e-05 -7.9292856774e-05 -6.0905003794e-05 0.00015936594089 -6.4218217418e-05 -6.0968525034e-05 
-4.5412785176e-05 2.8089877136e-05 3.5777986288e-05 -3.9661598326e-06 3.8467613541e-06 -2.8894506673e-06 3.6389532132e-05 3.9311548423e-05 -1.841112331e-05 
-2.8230200836e-05 8.1623759245e-05 -1.5736682131e-05 3.3303805404e-05 5.3835605833e-06 2.6643631516e-05 -1.6784456572e-05 2.9567236968e-05 -2.7030643801e-05 
0.00018501108182 -4.0150710037e-05 -6.276023267e-05 -4.2388788469e-06 -8.2560353039e-05 -3.3542924739e-05 -5.0955534449e-05 -7.5097424838e-06 -7.4168041285e-05 
-1.1866442381e-05 -1.38120794e-05 -2.6513495915e-05 -7.2717274781e-05 3.0128856281e-05 7.2350647436e-06 -4.6052911413e-05 -5.4739498716e-05 5.910751894e-05 
-4.7703653483e-05 2.8486575121e-05 3.0165098724e-05 -1.8062802744e-05 -2.5355565104e-05 1.6561871776e-05 -4.4077089855e-05 -4.2070970041e-05 -1.2735751717e-05 
-1.7645598171e-06 2.6887603929e-05 2.6322574426e-06 6.8908653952e-06 -3.7773846486e-06 -1.4770034459e-05 7.7969069449e-07 3.3794054805e-05 4.5301824412e-05 
1.2638744691e-05 -2.2974023464e-05 2.0681437605e-05 -6.3171831196e-05 -1.0856778683e-05 1.8828819651e-06 -6.1989778671e-05 -9.6918894976e-05 4.4060002145e-05 
3.9247216892e-05 6.4908683298e-05 3.7527494792e-06 -1.2734949495e-06 2.1507684021e-05 -1.7478713367e-05 -5.6003349866e-05 4.1806859988e-06 1.6098327571e-05 
1.922334109e-05 -8.0707130277e-06 -1.302683519e-05 7.9475129524e-07 -1.4909840433e-05 5.0046296412e-05 -6.5666063415e-05 -0.00011291116436 -2.9907298695e-05 
-1.7552085463e-07 -4.7331658841e-05 -2.2485640074e-05 
