# vtk DataFile Version 4.2
Generated by LIGGGHTS
ASCII
DATASET POLYDATA
POINTS 70 float
0.0114581 -0.0368894 0.00699838 -0.0237986 -0.0238458 0.00699827 -0.00516478 -0.0202765 0.00953845 
0.0278628 -0.0211398 0.0135785 0.0230261 -0.0153722 0.00699752 -0.0253441 -0.00911908 0.0113724 
-0.0187622 -0.00161635 0.0107676 -0.00540934 -0.000824611 0.0069993 0.0045111 -0.00742059 0.00934088 
0.0159819 -0.000463851 0.0109253 0.0119743 0.00781084 0.0069976 0.0247776 0.00517861 0.00975104 
-0.0327818 0.0126216 0.00699878 -0.0248283 0.0178785 0.0100133 -0.000589488 0.0181855 0.0102347 
0.00562292 0.011265 0.0139045 -0.0125072 0.0218876 0.00749382 0.00288389 0.0293428 0.00699795 
0.0229398 0.0220761 0.0070533 -0.000836414 -0.0222524 0.0217332 0.0205449 -0.00875754 0.0144138 
-0.00820969 0.00387825 0.0164056 -0.0114136 0.0133337 0.0169576 0.0101142 0.0160929 0.0215669 
0.0225476 0.010684 0.0232497 0.0057422 0.0299437 0.0204631 -0.0141535 -0.0327213 0.0297117 
-0.000932094 -0.0397253 0.0283781 -0.00426073 -0.0305304 0.0304676 -0.0203286 -0.0203268 0.0274441 
-0.00721645 -0.018164 0.0282577 0.00504079 -0.0176016 0.0283518 0.019833 -0.0173874 0.0279802 
0.0294059 -0.0112395 0.0311967 -0.00674141 -0.00769605 0.0261014 0.0291985 -0.00143261 0.0292522 
-0.0127277 0.00477301 0.0347275 -0.00474817 0.00179301 0.0286245 0.0109787 0.0038892 0.0330456 
-0.012138 0.0145033 0.032501 0.0040476 0.0289293 0.0322747 0.0115002 0.0244725 0.0273158 
0.0295522 0.021592 0.0316808 0.00282281 -0.0325029 0.0374722 -0.0125618 -0.0252659 0.0410811 
0.0107596 -0.0251496 0.041906 -0.0216844 -0.0136966 0.0449292 0.00295226 -0.0199709 0.0378388 
0.0380504 -0.0114132 0.036744 -0.0161152 -0.00371844 0.0393055 -0.000240087 -0.00253142 0.0366106 
0.0163072 -0.000789572 0.0443757 0.0206867 -0.00931641 0.0414084 -0.0315248 0.00143338 0.0398353 
-0.0193531 0.0218709 0.0395089 -0.006833 0.0267618 0.0404402 0.0116872 0.0258019 0.0379173 
-0.0090512 -0.0234547 0.0502674 0.020305 -0.0299045 0.0510236 -0.0336379 -0.0136575 0.0531292 
0.0289081 -0.0133596 0.0475458 -0.0282449 -0.001882 0.0510298 -0.00557575 -0.00708143 0.0460092 
-0.0208779 0.00686567 0.0466713 -0.0126155 0.00283972 0.0506102 -0.0020702 0.00309101 0.0460998 
0.00615957 0.000137386 0.051779 0.0273787 0.00968743 0.0508261 -0.00966207 0.0205185 0.0524101 
4.56629e-05 0.0204071 0.0471149 
VERTICES 70 140
1 0 
1 1 
1 2 
1 3 
1 4 
1 5 
1 6 
1 7 
1 8 
1 9 
1 10 
1 11 
1 12 
1 13 
1 14 
1 15 
1 16 
1 17 
1 18 
1 19 
1 20 
1 21 
1 22 
1 23 
1 24 
1 25 
1 26 
1 27 
1 28 
1 29 
1 30 
1 31 
1 32 
1 33 
1 34 
1 35 
1 36 
1 37 
1 38 
1 39 
1 40 
1 41 
1 42 
1 43 
1 44 
1 45 
1 46 
1 47 
1 48 
1 49 
1 50 
1 51 
1 52 
1 53 
1 54 
1 55 
1 56 
1 57 
1 58 
1 59 
1 60 
1 61 
1 62 
1 63 
1 64 
1 65 
1 66 
1 67 
1 68 
1 69 

POINT_DATA 70
FIELD FieldData 7
id 1 70 int
44 732 1464 837 912 1986 1606 936 895 
1371 663 720 467 208 1438 1782 385 1157 
595 2267 398 2166 1751 2117 2149 1929 2782 
2509 2454 2873 2996 2710 2790 3102 2640 2566 
3057 2252 3510 3206 3209 3228 3475 3932 4179 
4006 4181 3841 3364 4052 3265 4362 4280 3857 
3770 3909 3724 5377 4989 4708 4482 5353 5397 
4796 5509 5103 5420 5050 5402 4610 
type 1 70 int
2 2 2 2 2 2 2 2 2 
2 2 2 2 2 2 2 2 2 
2 2 2 2 2 2 2 2 2 
2 2 2 2 2 2 2 2 2 
2 2 2 2 2 2 2 2 2 
2 2 2 2 2 2 2 2 2 
2 2 2 2 2 2 2 2 2 
2 2 2 2 2 2 2 
i 3 70 int
0 0 0 0 0 0 0 0 0 
0 0 0 0 0 0 0 0 0 
0 0 0 0 0 0 0 0 0 
0 0 0 0 0 0 0 0 0 
0 0 0 0 0 0 0 0 0 
0 0 0 0 0 0 0 0 0 
0 0 0 0 0 0 0 0 0 
0 0 0 0 0 0 0 0 0 
0 0 0 0 0 0 0 0 0 
0 0 0 0 0 0 0 0 0 
0 0 0 0 0 0 0 0 0 
0 0 0 0 0 0 0 0 0 
0 0 0 0 0 0 0 0 0 
0 0 0 0 0 0 0 0 0 
0 0 0 0 0 0 0 0 0 
0 0 0 0 0 0 0 0 0 
0 0 0 0 0 0 0 0 0 
0 0 0 0 0 0 0 0 0 
0 0 0 0 0 0 0 0 0 
0 0 0 0 0 0 0 0 0 
0 0 0 0 0 0 0 0 0 
0 0 0 0 0 0 0 0 0 
0 0 0 0 0 0 0 0 0 
0 0 0 
v 3 70 double
-5.3447112383e-07 3.0252766118e-07 -1.2426640817e-07 3.0567685349e-08 -1.0654641256e-07 -6.1509402401e-08 1.1734639668e-08 2.134576118e-07 7.6795927106e-08 
-3.0543789618e-07 -4.556708323e-07 -6.0462622911e-07 3.8419379842e-07 -3.121985291e-07 1.2679806823e-06 -1.1556198911e-07 3.5601425697e-09 -1.4207338432e-07 
1.5642367838e-08 -1.8603929293e-07 5.0948732158e-08 6.8752729289e-09 1.8963149682e-07 3.131721241e-07 -6.7725354957e-08 -1.0166788322e-07 3.9522744425e-08 
-1.2222961992e-07 2.4200279221e-07 -1.4298915258e-07 1.4432382313e-07 -3.7773341465e-07 -3.1182564701e-07 -6.0745594123e-08 -3.1350829012e-07 -1.0228521355e-06 
1.547477735e-07 5.3000842344e-07 -4.6621085079e-08 8.9356873117e-07 3.588026477e-08 6.116026961e-07 1.1877533562e-06 -2.6798085974e-07 -2.2745101831e-08 
-2.0094375664e-08 -3.8757005643e-09 2.4797588604e-07 5.1676348563e-07 -3.2501657909e-07 2.7692507885e-07 -4.6195520585e-07 -5.107446645e-07 -2.6430556604e-07 
6.4315661616e-08 2.5653093326e-07 -1.454292075e-07 1.4241899728e-07 2.2397800499e-07 -1.6608041392e-07 -1.1165466147e-07 1.2888904608e-06 -1.5315861857e-07 
-2.2645988434e-08 -1.8622688225e-07 1.8851943704e-07 1.9096620958e-07 -1.6960588116e-07 1.3060309075e-07 1.6293352109e-07 -1.2717983371e-07 -1.8789447236e-07 
1.7502131524e-07 -2.3047169953e-07 8.794732258e-08 -7.4245160448e-08 2.6005749986e-07 4.0495088928e-07 -1.4569177105e-07 -8.8807235511e-08 -5.7170350629e-08 
4.4298367332e-08 9.5449426724e-08 1.2636788936e-07 9.3872007996e-09 5.9652252647e-08 1.2436485111e-07 -1.6380611352e-07 -3.518950957e-08 -4.8135169268e-07 
-9.1700618791e-08 3.1759031038e-07 -8.4663224652e-08 7.0985007303e-08 -1.479428118e-08 1.2556517806e-07 1.9395071263e-07 -6.163816816e-07 2.4906926043e-07 
1.1587181208e-06 1.3696953198e-07 -8.7226128514e-07 -1.7260492917e-08 8.963430699e-08 2.7754528942e-07 3.57814086e-07 2.507676737e-07 -1.5925094908e-07 
-9.6910224122e-08 -8.3361209715e-08 -2.4074328086e-07 3.60495936e-07 1.8337271874e-07 -1.3799628329e-07 6.6842534645e-08 -5.1048808447e-08 2.5007569364e-07 
4.6049441832e-08 1.0688906993e-07 2.0371669696e-07 -2.6662910045e-08 2.6032256329e-08 2.5257937411e-07 -2.8855876758e-07 2.8121942544e-07 -1.2008434699e-07 
-9.4366245978e-08 2.7104927328e-08 1.7977630784e-07 4.0300109623e-09 1.7169938427e-07 -5.2983326275e-08 1.7012658185e-07 2.7969546417e-07 1.7682792989e-07 
-1.8646778023e-07 1.0799566935e-07 -8.0091492924e-09 1.6546120774e-07 2.5649150636e-08 -1.4139918541e-07 -2.3348235101e-08 2.1409000874e-07 -1.7164081115e-07 
2.3047242845e-09 3.7064259636e-08 2.0787985031e-07 2.0702057519e-07 1.7232696523e-07 3.5896631366e-07 2.8180219573e-07 1.2179831052e-07 -4.3887599141e-08 
4.949095873e-08 -6.548251569e-08 1.1190857261e-07 -1.4092091943e-07 -1.5173436754e-07 1.9301776628e-07 2.3568585137e-07 3.0441906568e-08 1.5174163972e-07 
1.8748896431e-07 -2.9761494738e-07 7.5222187056e-07 -1.8853444301e-07 -3.2715409647e-07 3.1391535069e-07 -3.444932415e-08 5.6724342891e-08 1.2350579117e-07 
1.2083365124e-07 -1.0095395198e-07 1.3681212282e-07 -1.5612506408e-08 4.1076609886e-08 1.3774295675e-07 2.5095304501e-07 1.2080736483e-07 -5.3085336906e-08 
-8.1274434591e-08 -9.7230652096e-08 -1.9376110177e-07 -3.3673577516e-09 1.078052965e-07 2.657280847e-08 3.4799401787e-07 -1.1368559829e-07 -2.0655726427e-07 
-7.7942537361e-08 -7.8349971991e-08 9.308786067e-08 -2.3463803785e-07 2.8050141119e-07 -2.9534286763e-07 -2.4665004356e-10 -2.4359313503e-07 1.0130566503e-08 
1.83033955e-07 4.9169027504e-08 -4.7713004823e-08 -9.1380177293e-08 -1.8941170761e-07 -1.1959283973e-07 -3.1773913321e-07 2.2490161266e-07 -1.773873705e-07 
4.3072054563e-08 3.6354358138e-08 -1.8722224159e-07 
f 3 70 double
-0.00026724107043 0.00013419021393 7.7059204223e-05 0.00030574738696 0.0002343477279 0.00029610195916 7.4066651219e-05 -5.1326255607e-05 -0.0003686674354 
-0.00035413731264 7.4461500543e-05 -7.3621208299e-05 -0.00016994684226 -1.4289992087e-05 0.00011548825008 0.00016133756948 0.00022571168893 -9.2319790091e-05 
-0.00010173098489 4.2931043407e-05 0.00014796258464 3.9380283087e-05 -6.7769331223e-05 0.00016049860749 0.0001408317676 0.00043549251202 -0.00029313139275 
0.00070819534211 2.1535677954e-05 0.00026587103415 -1.1316200905e-05 0.00028110451279 -1.7169859729e-05 0.00021111210517 -0.00040014939368 0.00042312413794 
-0.00010812466288 0.00014311500078 -0.00021383110248 -0.00025415244878 0.00024510134953 -0.0002943496077 -0.0001524336087 -0.0002021144055 9.4808619411e-05 
0.00021571135606 0.00011233806382 -0.00010774282771 0.00036480981945 -0.00057340489993 0.00019077162627 -0.0002896820739 0.00018811045891 -5.9848106558e-05 
-0.00015013558668 -0.000562043473 -0.00043000681263 -1.3732326077e-05 -0.0001462944547 -9.23498871e-05 -0.00020330401479 -0.00038652264949 0.00019050407109 
-1.7404608011e-05 0.00038061201728 -0.00023212616375 0.00013042864477 -1.3165239529e-05 -0.00019036485698 -3.4114885251e-05 8.7691023723e-06 -0.0001109713152 
-6.2523116868e-05 -0.00023234549182 1.5271515515e-05 -9.6338892587e-05 -0.00017812979788 9.0860726686e-05 -4.8565806072e-06 -0.00013719371676 -6.5635245096e-06 
-1.7282096506e-05 3.598772686e-05 -0.00010316138534 -8.0583321856e-05 1.9042075803e-05 -8.2742073017e-05 0.00029385975368 -0.00014414604033 4.7025858802e-05 
-0.00010956090711 -7.8345341189e-05 2.1774220148e-07 9.5435125807e-05 0.00011883168967 9.8150772225e-05 -8.0889143606e-05 -1.4086635796e-05 -4.2317849125e-05 
-0.00026070199231 4.2004890011e-05 7.9916809172e-05 -2.3229753106e-05 -1.9183141198e-05 4.5754817478e-05 1.5686988879e-05 7.4933910499e-05 -6.5681615047e-06 
-0.00029083257034 -3.9324046765e-05 3.672181563e-06 0.00016515865297 0.00024223444092 0.00018534841238 -1.8821062456e-05 -1.8731200494e-05 -0.00011531407471 
-1.941732047e-05 -0.00014430462358 3.2260079907e-05 4.5391620715e-05 1.6900751209e-05 -1.3141591923e-06 5.0188694909e-06 -9.8779511416e-05 -6.4565352646e-05 
0.00017090578756 4.7132464813e-06 -0.00010142824262 2.9828871302e-06 4.4101720684e-05 -2.7954994574e-05 1.2513260779e-05 6.0620618253e-05 1.3403551348e-05 
2.3908840282e-05 2.0663309907e-05 3.3226823269e-05 1.036527016e-05 1.6119523828e-05 -3.7247692936e-05 1.8600425215e-07 -9.5454728306e-06 1.6064477157e-05 
3.5159056861e-06 -0.0001057020693 -4.2324861085e-05 1.2666982594e-05 -0.00011797558264 4.5030120746e-05 3.3521660115e-05 0.0001126107348 -3.1481102192e-05 
1.1973247817e-05 2.1079727977e-05 1.129395823e-05 -9.3915656511e-05 7.155905535e-05 1.3613823662e-06 6.8838509515e-05 4.046758853e-05 8.4290812947e-05 
-0.0001217429579 2.1439981932e-05 0.00010529423326 1.4057461311e-05 2.752107584e-05 8.3794765629e-05 -8.1074889128e-06 2.9941723309e-05 -1.4193788604e-06 
4.3309126118e-05 3.0044040653e-06 1.4912949509e-05 -1.0340146845e-05 -1.8283196276e-05 -3.1393392791e-06 -7.7424331643e-05 6.4382665723e-06 -6.0965892902e-06 
-1.2997767319e-05 -1.5113353781e-05 6.7621617016e-05 7.4126322032e-06 -7.5784329355e-05 -7.2513139569e-06 -2.2065744967e-05 -1.649706699e-05 -7.2294334004e-05 
-6.489628866e-05 8.0485354042e-05 2.5280540134e-05 -8.1748535491e-06 1.2679271957e-07 1.0788138849e-05 4.6119793095e-06 -2.9787372159e-05 5.5938463786e-05 
-2.7534462419e-05 -3.5700104118e-05 -1.8915616882e-05 -7.5329270349e-05 -7.9131056226e-06 -2.0841499152e-05 -6.1600805051e-05 -2.968245997e-05 6.5837099197e-06 
2.4430567429e-05 9.5249079232e-07 -4.2585511518e-06 
radius 1 70 double
0.005 0.005 0.005 0.005 0.005 0.005 0.005 0.005 0.005 
0.005 0.005 0.005 0.005 0.005 0.005 0.005 0.005 0.005 
0.005 0.005 0.005 0.005 0.005 0.005 0.005 0.005 0.005 
0.005 0.005 0.005 0.005 0.005 0.005 0.005 0.005 0.005 
0.005 0.005 0.005 0.005 0.005 0.005 0.005 0.005 0.005 
0.005 0.005 0.005 0.005 0.005 0.005 0.005 0.005 0.005 
0.005 0.005 0.005 0.005 0.005 0.005 0.005 0.005 0.005 
0.005 0.005 0.005 0.005 0.005 0.005 0.005 
omega 3 70 double
-0.00011178634475 7.2863532417e-06 0.00024225659122 2.3440166079e-05 -6.2621278266e-06 1.5994858847e-05 -2.3414278517e-05 6.6690237694e-05 1.8315242063e-05 
0.00022509940998 0.00013626471533 0.00012457606294 2.0791428143e-05 -0.00015032721253 8.5691514166e-05 -3.6163301624e-05 -1.0474401864e-05 1.0722620396e-05 
2.0301723175e-05 5.788932081e-05 -2.4885074343e-05 -0.0001650115414 0.00033169212635 -0.00010904797273 0.00013210483791 9.0311235254e-05 8.1425244118e-05 
-1.7883065213e-05 -7.4256165977e-06 -2.8100024017e-06 2.8596716333e-05 1.2227418914e-05 -0.00016024442386 0.0006947111841 0.0002401946088 -8.3091067612e-05 
0.00025314170428 -0.00025821863247 -8.9180044516e-05 0.00024340761631 0.00011048989501 0.00027119186768 -6.6016693947e-05 -0.0004086494531 6.4460345471e-05 
1.6276229828e-06 -0.00011701926903 -7.6436615829e-07 -0.00014927857885 -0.00043675942108 0.00019915875023 5.7505706348e-05 -6.0748122959e-05 -0.00035230011907 
0.00025992401813 -0.00030696136485 0.00029751918482 -6.2558560249e-05 0.00025834608349 -6.7627501165e-05 0.0001858374056 -0.00019227409581 0.00056311217912 
-4.6879771234e-05 -5.8322628975e-05 -7.0872084826e-06 6.6103278656e-05 5.7696264058e-05 0.00014562084983 0.00010384495472 3.5775610842e-05 -3.608352111e-05 
-3.7244041696e-05 5.6187868797e-05 1.1985241206e-05 0.00029375226033 -2.4804375845e-05 -0.00013173619241 6.3080385786e-05 -0.00013328800875 7.6821242043e-05 
-8.0445818218e-06 -2.8918029337e-05 2.536535139e-05 1.4470682734e-05 3.0505790187e-05 1.8660344796e-05 1.9742920031e-05 0.00020789126022 -3.2888734275e-05 
1.663770378e-06 9.8224984082e-05 -1.6834971654e-05 -6.0128587806e-05 1.5146832123e-05 -0.00011959697674 0.00016770011608 8.327659195e-05 0.00014900477754 
-9.9765531431e-05 -0.00042412412444 1.6533857678e-05 -8.1514007727e-06 -4.7896606132e-05 -5.0006656114e-05 6.2411384258e-05 1.0623969636e-05 -9.7502412627e-06 
-6.8329655554e-05 5.3012702071e-06 3.9075970073e-05 1.192034386e-05 1.1513877937e-06 4.8049272116e-05 1.2614896539e-06 -4.4143148827e-05 1.889835612e-05 
0.00015315724934 3.660488074e-05 9.6913027913e-06 3.1488858731e-05 3.229404115e-05 1.9726056315e-06 0.00016298416164 7.928696735e-05 -5.799519997e-05 
-3.6295556371e-05 -6.3852933263e-05 1.6210786956e-05 -1.9349098964e-05 2.6864117876e-05 -2.5099064531e-05 6.2201586588e-05 7.0224359932e-05 -3.5611245678e-05 
-1.3435748763e-05 0.00013009565798 -4.8329584279e-05 3.5240918187e-05 -5.4837364837e-06 9.1962707578e-06 -6.7114077124e-05 -6.5412140836e-05 -6.6945355204e-05 
-0.00010944242951 -0.00010536539394 0.00013008489874 -1.1806365056e-05 -8.8445589918e-05 -1.9081214687e-05 5.559056462e-06 -3.8873384765e-07 -5.2377339346e-05 
1.9881197248e-05 3.4110859776e-05 1.3436816361e-05 1.4018581391e-05 -1.4826810943e-05 -4.2178303753e-05 -8.4283186296e-05 -1.6911689932e-05 7.4342387701e-05 
5.3939768031e-05 5.9046792855e-06 -0.0001073717468 -5.283977846e-05 -7.7551640312e-05 -3.6776142659e-05 -2.4064807099e-05 5.8909640302e-05 3.8760154945e-05 
4.2576950245e-05 1.6983696931e-05 -1.3282475813e-05 -5.1318681782e-06 9.1520816638e-06 1.6000907693e-05 4.0644040974e-05 -0.0001818893127 6.9943232827e-05 
-4.9239110437e-05 -1.5470858805e-05 -1.4281538518e-05 -4.519491564e-05 1.808415405e-05 5.3354947657e-05 -0.00011461250424 -2.7559410181e-05 -9.456904404e-06 
-1.3034659147e-05 4.2605042437e-06 1.4657118941e-05 -2.187057511e-05 -8.1206529442e-06 3.2864087261e-06 -6.6431137118e-05 5.3980495475e-05 1.8296304254e-05 
1.4143807087e-05 2.1989970909e-06 -2.4559032156e-06 -2.7608432392e-05 -1.7024082146e-05 1.2924629587e-05 -6.4091060626e-05 -2.9761576974e-05 -3.3363840407e-05 
-3.4735276939e-05 -2.304696483e-05 1.0435655586e-05 
