# vtk DataFile Version 4.2
Generated by LIGGGHTS
ASCII
DATASET POLYDATA
POINTS 70 float
0.00696047 -0.0174251 0.0114368 -0.0192184 -0.0104489 0.0105012 -0.0125048 -0.014176 0.00946293 
-0.00240738 -0.0102269 0.0079989 0.00146532 -0.0153718 0.0126934 -0.0143167 -0.00675088 0.0111671 
-0.0131127 -0.00140688 0.00817826 -0.00712998 -0.0038408 0.00821016 0.00833482 -0.0081712 0.00799943 
0.0110093 -0.00308481 0.0129903 -0.0218543 0.00112261 0.0109011 -0.016314 0.00418938 0.00805497 
-0.00817104 0.00259575 0.0112883 0.00185508 0.00661057 0.00954579 -0.0167392 0.0118222 0.00817565 
-0.00532192 0.00835995 0.00799921 -0.00530226 0.0138131 0.0105009 0.0031731 0.0125712 0.0121897 
0.0105578 0.0117917 0.00800294 -0.00255092 0.0216019 0.0094109 0.00349402 0.0205807 0.00939647 
-0.00877748 -0.0200296 0.0204726 0.00052171 -0.0180313 0.0199711 0.00771995 -0.0205391 0.0212153 
0.0124292 -0.018023 0.0146369 -0.0097184 -0.0156748 0.0164499 -0.0153743 -0.010106 0.0168525 
-0.00785351 -0.0103841 0.0143222 0.00295628 -0.0109815 0.0191785 0.0152421 -0.0113564 0.0153897 
0.0133152 -0.0150042 0.0197456 0.00982655 -0.00878531 0.0156263 -0.0180062 -3.26089e-05 0.0156502 
-0.00106793 -0.00409069 0.016912 0.00247597 -0.00759639 0.0135734 0.00730723 -0.00467095 0.0194053 
-0.0122346 0.00398817 0.0194327 -0.00278898 0.00450753 0.013584 0.00175317 0.000554394 0.0196274 
0.00235522 0.000305957 0.0136563 0.0122812 0.00390356 0.02038 0.018487 0.000153772 0.0155508 
-0.0143851 0.0135074 0.017155 -0.00764623 0.0142644 0.0160053 -0.00112735 0.0099607 0.0157452 
0.00965245 0.0159168 0.0198419 -0.00720649 0.020145 0.0193883 0.00175509 0.02121 0.0177039 
0.00280627 -0.0206515 0.0248611 -0.00611904 -0.0155087 0.0234281 0.00624275 -0.0125854 0.0279409 
0.0136298 -0.00876383 0.0225005 -0.0137818 -0.00724763 0.025069 -0.00687691 -0.00565418 0.0219891 
-0.000754937 -0.00603159 0.0236165 -0.000233138 -0.0011508 0.0289377 0.016086 -0.00148028 0.0241674 
-0.0160767 0.000114603 0.0248693 -0.0132626 0.00790171 0.0262578 -0.0111113 0.00069076 0.0293953 
-0.00193767 0.00353789 0.0256046 0.00705986 0.00234878 0.027724 0.0216935 0.00065303 0.0252339 
-0.00433504 0.00964249 0.0275227 0.00712589 0.00860437 0.0252607 0.0018367 0.013545 0.0250941 
0.0125343 0.0159011 0.0251041 0.0196012 0.00965629 0.0242485 -0.0117129 0.0177373 0.0264443 
0.017653 0.000357568 0.0296594 
VERTICES 70 140
1 0 
1 1 
1 2 
1 3 
1 4 
1 5 
1 6 
1 7 
1 8 
1 9 
1 10 
1 11 
1 12 
1 13 
1 14 
1 15 
1 16 
1 17 
1 18 
1 19 
1 20 
1 21 
1 22 
1 23 
1 24 
1 25 
1 26 
1 27 
1 28 
1 29 
1 30 
1 31 
1 32 
1 33 
1 34 
1 35 
1 36 
1 37 
1 38 
1 39 
1 40 
1 41 
1 42 
1 43 
1 44 
1 45 
1 46 
1 47 
1 48 
1 49 
1 50 
1 51 
1 52 
1 53 
1 54 
1 55 
1 56 
1 57 
1 58 
1 59 
1 60 
1 61 
1 62 
1 63 
1 64 
1 65 
1 66 
1 67 
1 68 
1 69 

POINT_DATA 70
FIELD FieldData 7
id 1 70 int
2132 1617 1943 901 2726 942 209 1166 44 
596 1762 665 736 1796 385 914 842 2268 
398 1380 1477 3936 3793 3015 2526 2469 1446 
2582 3959 2282 3230 2654 2163 2182 724 3387 
3532 2813 3117 1999 3884 468 3295 3233 2889 
3250 2801 3076 3867 4035 5438 4085 5024 3500 
3755 5417 4507 4832 4394 5432 4735 5455 5080 
5388 4210 4318 4213 4635 5141 5547 
type 1 70 int
2 2 2 2 2 2 2 2 2 
2 2 2 2 2 2 2 2 2 
2 2 2 2 2 2 2 2 2 
2 2 2 2 2 2 2 2 2 
2 2 2 2 2 2 2 2 2 
2 2 2 2 2 2 2 2 2 
2 2 2 2 2 2 2 2 2 
2 2 2 2 2 2 2 
i 3 70 int
0 0 0 0 0 0 0 0 0 
0 0 0 0 0 0 0 0 0 
0 0 0 0 0 0 0 0 0 
0 0 0 0 0 0 0 0 0 
0 0 0 0 0 0 0 0 0 
0 0 0 0 0 0 0 0 0 
0 0 0 0 0 0 0 0 0 
0 0 0 0 0 0 0 0 0 
0 0 0 0 0 0 0 0 0 
0 0 0 0 0 0 0 0 0 
0 0 0 0 0 0 0 0 0 
0 0 0 0 0 0 0 0 0 
0 0 0 0 0 0 0 0 0 
0 0 0 0 0 0 0 0 0 
0 0 0 0 0 0 0 0 0 
0 0 0 0 0 0 0 0 0 
0 0 0 0 0 0 0 0 0 
0 0 0 0 0 0 0 0 0 
0 0 0 0 0 0 0 0 0 
0 0 0 0 0 0 0 0 0 
0 0 0 0 0 0 0 0 0 
0 0 0 0 0 0 0 0 0 
0 0 0 0 0 0 0 0 0 
0 0 0 
v 3 70 double
1.6374120014e-06 1.3221679756e-06 4.1530375894e-07 1.3188523303e-06 5.19141758e-07 8.491060164e-07 -7.910403479e-07 8.3739022989e-07 -2.944727194e-07 
-4.8937894555e-07 1.1038405232e-06 -1.3312785915e-06 7.4187658472e-07 -2.9227308917e-07 9.7385988236e-08 -2.9461835227e-07 -9.9737576318e-08 3.3631985367e-07 
-1.9860390593e-06 -1.5378265807e-06 -5.5568278264e-06 -4.8799974058e-06 1.3063339755e-06 3.0085275994e-06 -1.2203077754e-06 1.3895029589e-06 -1.0067454021e-06 
3.2475692851e-07 -1.5627649806e-06 2.310955589e-07 -1.2565303771e-07 9.0181923967e-07 6.9019935985e-10 1.630299082e-06 -2.192347658e-06 3.179236925e-06 
4.802707856e-08 -5.8499714724e-08 -1.9585484374e-07 -8.0103758185e-07 -7.2674741443e-07 1.0896002242e-06 2.6386872239e-06 -9.9767305853e-07 9.3412633629e-07 
6.0421344433e-07 -1.4511424833e-06 -6.4422923445e-07 -1.1198491129e-06 -2.3185033814e-06 3.585788937e-07 -1.5146525111e-07 3.7373647959e-07 -4.6561921832e-07 
5.6728268109e-07 5.6956271506e-07 1.9280288139e-07 4.4242668923e-07 -4.3782505259e-07 1.5131953385e-07 4.0536110879e-07 -1.1731223701e-07 -4.8460086918e-07 
-6.0272644991e-08 -2.456612973e-07 3.5289442908e-07 7.7384322036e-07 -1.9376690821e-06 1.0004472633e-07 -1.5310769872e-07 -1.8826284245e-07 8.140012964e-08 
-3.7756122953e-07 -1.8170408287e-07 -1.3576862029e-07 -4.4387926226e-07 5.4066000975e-08 7.3963814208e-08 2.4998241747e-07 1.3484777656e-07 4.3324583382e-07 
-1.5629409642e-06 2.4837600638e-07 -5.1463521664e-08 1.920160214e-07 1.1488663635e-07 6.1255227133e-07 7.009311661e-07 -3.5416719365e-07 3.4584186564e-08 
4.8690033487e-09 4.3527448029e-07 1.316092833e-08 -6.7331070945e-07 -1.0100791387e-06 5.9998138935e-07 -7.1634577277e-07 -8.2529568811e-08 2.3113114581e-07 
-1.7522031247e-06 5.2202235537e-07 -8.4826014198e-08 5.6563503483e-07 1.6534072268e-06 1.6762281903e-06 -1.2448059173e-06 1.7152069588e-06 -1.0374234526e-07 
-8.2973327344e-07 1.8245719127e-07 1.7029220539e-07 1.9446593046e-06 1.3177612324e-06 1.0776999606e-06 3.3983982535e-07 -6.150175082e-07 6.0039109859e-07 
4.5087266747e-07 2.375571504e-07 -2.3528952749e-08 3.331013273e-07 -3.7486157223e-08 -9.4197516956e-09 -9.3817867875e-07 -3.1107081968e-07 2.4720117259e-07 
1.7229296354e-07 -6.0704912031e-07 -3.5511875963e-07 1.5176514823e-08 -2.3665607395e-07 -6.3415112206e-07 5.8472689173e-07 1.0267343558e-06 5.2914505564e-07 
-3.4618850523e-07 -5.3490604287e-07 1.9762345574e-07 2.2253789745e-07 8.9286746383e-07 -3.6449525981e-09 4.5345422997e-07 4.9802678836e-07 8.4667429847e-08 
1.9995285983e-07 -7.6391331706e-08 1.612370433e-07 -1.340457232e-08 1.0205559492e-06 1.6508030883e-07 3.3964637983e-08 -2.1819774116e-07 4.0957567045e-07 
-7.5807608869e-10 5.1137196731e-08 3.8672963253e-07 3.4260209679e-07 -1.5285928275e-07 4.5388746397e-08 6.2817725947e-07 -7.1953539441e-08 1.4017870869e-08 
5.8151289201e-07 -9.959114729e-08 -1.6151226731e-07 4.0236404946e-08 -8.7366097809e-08 -4.3022545344e-09 8.2170869877e-08 7.7399876376e-08 2.8036353379e-07 
-2.001793572e-07 6.7086777843e-08 -5.7054354313e-07 -2.9644266436e-07 2.1789375246e-07 8.1367985988e-08 5.868365003e-08 -4.9692267798e-07 -2.1308701581e-07 
1.2626147253e-07 5.0538585183e-09 -4.5765379498e-07 -4.8827922684e-07 7.4690320914e-07 -1.8656995134e-07 3.9955468937e-08 1.3361340027e-09 -3.101522519e-07 
-2.0965966727e-07 -5.7108136211e-08 -3.1967486403e-07 2.4605895711e-07 6.5016744812e-07 1.6529036051e-07 -4.6338724449e-07 -7.3618273526e-08 -8.9275706703e-07 
-3.6801805795e-07 -2.8145207919e-07 1.3960010358e-07 -1.4240725851e-07 1.1645139934e-07 1.113380945e-07 2.5586857579e-07 9.5399763611e-09 -1.1969745284e-07 
-4.9000587756e-08 4.8037427512e-08 2.2271908937e-07 
f 3 70 double
0.00017982200551 6.0497343085e-05 8.7015329696e-05 -2.5057930679e-05 -2.8267897506e-05 -1.0660581311e-05 6.1790445861e-06 -1.9188409532e-05 -4.8542003753e-05 
8.1160145787e-05 9.6563426933e-05 7.343729731e-05 -1.4451288795e-05 -6.1853328555e-05 4.9447685189e-05 3.9056281115e-05 2.7156028231e-05 1.3824031679e-05 
0.00024984929187 -0.00016382219712 -6.9982637501e-05 0.00023790786535 -4.7171942607e-06 -8.0601622459e-05 -2.6174284148e-05 3.4000032785e-05 -6.1439293272e-06 
-5.153544083e-05 3.4590672894e-05 -1.2662853015e-05 -4.1134063475e-05 3.5965875377e-05 -6.8263855141e-05 0.00012377852086 -0.00016045490697 0.00010708460046 
-2.292032193e-05 6.9225289537e-06 -2.7129577181e-05 -3.3676550683e-05 6.2671656554e-05 -5.6817739295e-05 7.4448643673e-05 2.9337623024e-06 1.6632249639e-05 
-1.9484857714e-05 4.9475719476e-05 9.5928302066e-05 1.8524621477e-05 0.00010764286164 0.00012172819565 6.5499454503e-05 -4.9400230231e-05 7.9983130471e-05 
0.00014690088745 3.077196579e-06 -9.2373397501e-06 -6.6643168291e-05 -1.7381617183e-05 -1.2826630568e-05 2.1583678082e-05 -2.1886778073e-05 6.0523568057e-06 
-1.0034264076e-05 -6.9686982955e-06 2.471169213e-05 -4.7903145377e-05 -3.9800635892e-05 6.1763149242e-06 2.6758047624e-07 1.6179208357e-05 -4.1420206393e-08 
8.0130839004e-05 -2.5423180774e-05 -5.4199180189e-05 6.2450277991e-06 -5.8917527e-05 2.3957340202e-05 5.4911653465e-05 2.3529855104e-05 -1.413624342e-05 
-1.3749259828e-05 -2.6978194745e-05 -9.9864791414e-06 -2.169107136e-06 1.9893551712e-05 2.6877605916e-06 4.4140789087e-05 -1.5039315599e-05 -1.4358454541e-05 
1.3410371649e-05 -1.9362699397e-05 6.4368665602e-06 3.9646317905e-05 3.0011155561e-05 5.2476986544e-06 -6.1758870035e-05 5.4192126348e-06 1.0501287786e-05 
3.5686665192e-05 -2.494962843e-05 -2.3087580457e-06 2.3966954184e-05 3.0879769767e-05 -6.5740830861e-05 -1.7835396609e-05 -4.209501592e-05 -1.2060190845e-05 
2.6174150592e-05 -1.1666956685e-05 -1.59666483e-05 7.4830999229e-05 -2.2281174912e-05 -0.00011078621765 3.4823012332e-05 2.5776805453e-05 2.2234076163e-05 
3.5029500819e-05 -1.3900743697e-05 -4.954586398e-05 -5.3193137553e-05 1.2574039596e-05 -5.1550570517e-06 -7.1078369555e-05 -7.2307692946e-06 7.5917443303e-05 
5.7788997809e-05 2.0747769304e-05 3.768778521e-05 2.6222553546e-05 1.0045162237e-05 1.6681530456e-05 7.0811267233e-06 1.19680659e-05 -1.494276861e-05 
-4.8592577458e-06 -9.5435095045e-06 -3.0628994803e-05 -2.121432865e-05 -1.1885936863e-05 6.7941567279e-06 -9.5233976301e-06 -4.3741569852e-05 5.7717594323e-05 
-4.553018188e-06 1.525240453e-05 -5.1279131972e-06 -3.0384234069e-05 -4.7548196706e-06 -7.7996247716e-06 2.0034736575e-05 1.667652123e-05 -3.4564393081e-06 
9.030413889e-06 -6.8944356946e-05 4.6457674213e-05 2.674646885e-06 2.2623591782e-06 -1.4497531591e-05 -2.647477845e-05 9.5827044233e-06 1.6993897307e-05 
-3.5624611896e-05 1.9090033784e-05 2.2168680347e-05 -1.0043620734e-05 -6.7913206583e-06 -5.3702382037e-07 -3.2370384723e-08 -2.2444449702e-05 4.7977600034e-06 
-4.122279297e-05 -3.1945178663e-06 -1.4064077936e-05 -6.6294125787e-06 -4.1374662339e-06 -2.3959993056e-06 -3.8654508879e-05 4.8102804431e-05 1.2803169022e-05 
3.5012942187e-06 1.9184382949e-05 -2.1401788372e-05 -2.306424191e-05 9.47181201e-06 2.0480633518e-06 -9.7835413457e-08 1.263429459e-05 -5.6328587351e-06 
1.216828102e-05 2.0063129366e-05 -2.1128200681e-06 1.3667977788e-05 1.1778563541e-05 6.7972949672e-06 4.8109087453e-05 1.2629849653e-05 -8.6343426491e-06 
1.1568705793e-06 -2.8644982166e-05 1.3859057259e-05 -2.537503558e-06 3.6355054385e-06 2.0082299774e-05 1.7584328647e-06 2.398631618e-06 6.5681687354e-06 
-1.229051161e-06 -5.6763899763e-06 -3.0431491919e-06 
radius 1 70 double
0.003 0.003 0.003 0.003 0.003 0.003 0.003 0.003 0.003 
0.003 0.003 0.003 0.003 0.003 0.003 0.003 0.003 0.003 
0.003 0.003 0.003 0.003 0.003 0.003 0.003 0.003 0.003 
0.003 0.003 0.003 0.003 0.003 0.003 0.003 0.003 0.003 
0.003 0.003 0.003 0.003 0.003 0.003 0.003 0.003 0.003 
0.003 0.003 0.003 0.003 0.003 0.003 0.003 0.003 0.003 
0.003 0.003 0.003 0.003 0.003 0.003 0.003 0.003 0.003 
0.003 0.003 0.003 0.003 0.003 0.003 0.003 
omega 3 70 double
0.00022818685562 -0.0012356622247 0.00077055254643 -0.0005045095951 -0.00076650599087 0.0006899273769 0.00025373655279 8.1573570286e-05 0.00055789769572 
0.0016629159935 -0.00097046951823 0.00050392131195 -0.00087944811005 -0.00067232090141 0.00029532082215 -9.8493828603e-05 0.0010202788456 -0.00010802185383 
-0.0020510150468 0.0007768475968 -5.8697152082e-05 0.00033524550004 0.0037233617232 -0.00066561234581 0.0011900601673 0.00058671890851 0.00073810656755 
0.00078991380123 0.00027638573464 0.0008659757317 -0.00030561697466 -0.00044347059836 -0.00029900299171 -0.0027201876177 -0.0014801186651 0.0010614567597 
0.00014464277514 0.00013768103768 -0.00019655214192 -0.00056753117868 -0.00080015054712 -0.00035648427886 0.00055066299246 -0.002172435188 -0.0020446447087 
-0.00010144566484 -0.00030180948648 -0.00047376014686 -0.00038778759676 0.00040916943788 0.00014079324148 0.0011850353547 3.3216964202e-05 -0.00017412290608 
0.00012500554323 -0.00065162635839 -0.00033776953741 0.00022726557646 2.8156146466e-05 -0.00014247167589 0.00062160516222 -0.00017583203644 9.0670848627e-06 
4.181173043e-06 0.00011746760837 -0.00015783660741 -0.00022053943333 -3.7378365781e-05 0.00038896162626 1.0934639026e-05 -6.6965230991e-05 -4.7539406934e-05 
-4.2275205577e-05 0.0002680120979 0.00030155930444 4.1863522706e-05 -0.00025195718517 0.00053988098342 0.00063232135929 -0.00032682953205 0.00060734856329 
0.00049025051072 0.00082216464705 1.6515232916e-05 0.00036118824641 -0.00019295108557 -0.00010489991362 0.00013851424171 -0.00017694330362 0.00077593648423 
0.00030171471357 -0.00059270296582 0.00012210629537 0.00087093250259 -0.0010509997672 0.0010353434266 8.5930089886e-05 0.00014851785095 -0.0002784652039 
0.00025669254518 0.00049787057553 0.00040802280404 -0.0011757762143 0.00011696494912 -0.00024381641087 0.001156080145 0.00081801087093 0.00071045502614 
0.00015278110438 0.00089206493798 0.0002463574458 0.00083854232409 -0.00073619340812 -0.00057809914511 0.00098482882981 -9.7005083547e-05 -0.00018330637806 
-0.00014965261983 0.0001071594196 -6.9232498309e-05 1.378280702e-06 -0.00019293603072 -0.0003285439818 0.00021673072369 -0.00032925555908 -3.5242944542e-05 
-0.00014303582602 -0.00051993285468 0.00075670629027 -5.3035747812e-05 -1.2559041722e-05 -0.00064125676633 -3.40122238e-05 0.0001098929842 -0.00012309498248 
-0.00018098547507 6.7459366219e-06 -6.6119650959e-05 4.8806334978e-05 0.00017625087611 -5.0973101622e-05 -0.0002189337442 0.00086567802966 0.00068327430734 
-6.7860840229e-05 2.5013140269e-05 0.00020246771848 0.00033841617611 -5.3570066807e-05 0.00069317410145 1.9604715559e-06 -5.0225468886e-05 0.00015471288922 
-0.00014968078333 0.0001455131396 -0.00010184172809 -9.5556651147e-05 -6.9338529436e-05 -6.6251646562e-05 -0.00019796081888 -0.00032326299152 2.555904468e-05 
-7.1969233957e-06 -0.00030970167291 4.0916511771e-05 -5.3554984335e-05 6.6503699697e-06 -1.9503892706e-05 0.00029697318931 -0.00024842193015 0.00013562950166 
-0.00015302020662 8.294939246e-05 0.00041128160051 2.1153222398e-05 -0.00018407547985 -0.00014407282588 -0.0003215060864 3.5010562119e-05 2.2560024812e-05 
-1.4074234412e-05 9.5066918686e-05 -3.7865345148e-05 0.00046253143856 3.389140934e-06 -0.00012427788205 -0.00014611940631 0.00028306692837 0.00019691125168 
-0.00012390723207 0.00015972178483 -5.2434313835e-05 0.00053884231319 -0.00011024943874 0.0003160614707 0.00029746906196 9.7993597107e-05 -0.00062149864901 
-0.0003044961083 0.00023064676114 -0.0005525151731 1.4750966544e-05 -0.00012300515867 0.00010994471003 -0.00019052267941 -0.00016644368366 0.00015953733442 
8.3437349547e-05 1.0873878432e-05 1.1602706788e-05 
