# vtk DataFile Version 4.2
Generated by LIGGGHTS
ASCII
DATASET POLYDATA
POINTS 70 float
0.0114581 -0.0368894 0.00699838 -0.0237986 -0.0238458 0.00699827 -0.00516478 -0.0202765 0.00953845 
0.0278628 -0.0211398 0.0135785 0.0230261 -0.0153722 0.00699752 -0.0253441 -0.00911908 0.0113724 
-0.0187622 -0.00161635 0.0107676 -0.00540934 -0.00082461 0.0069993 0.0045111 -0.00742059 0.00934088 
0.0159819 -0.000463851 0.0109253 0.0119743 0.00781084 0.0069976 0.0247776 0.00517861 0.00975104 
-0.0327818 0.0126216 0.00699878 -0.0248283 0.0178785 0.0100133 -0.000589488 0.0181855 0.0102347 
0.00562292 0.011265 0.0139045 -0.0125072 0.0218876 0.00749382 0.00288389 0.0293428 0.00699795 
0.0229398 0.0220761 0.0070533 -0.000836414 -0.0222524 0.0217332 0.0205449 -0.00875754 0.0144138 
-0.00820969 0.00387825 0.0164056 -0.0114136 0.0133337 0.0169576 0.0101142 0.0160929 0.0215669 
0.0225476 0.010684 0.0232497 0.0057422 0.0299437 0.0204631 -0.0141535 -0.0327213 0.0297117 
-0.000932094 -0.0397253 0.0283781 -0.00426073 -0.0305304 0.0304676 -0.0203286 -0.0203268 0.0274441 
-0.00721645 -0.018164 0.0282577 0.00504079 -0.0176016 0.0283518 0.019833 -0.0173874 0.0279802 
0.0294059 -0.0112395 0.0311967 -0.00674141 -0.00769605 0.0261014 0.0291985 -0.00143261 0.0292522 
-0.0127277 0.00477301 0.0347275 -0.00474817 0.00179301 0.0286245 0.0109787 0.0038892 0.0330456 
-0.012138 0.0145033 0.032501 0.0040476 0.0289293 0.0322747 0.0115002 0.0244725 0.0273158 
0.0295522 0.021592 0.0316808 0.00282281 -0.0325029 0.0374722 -0.0125618 -0.0252659 0.0410811 
0.0107596 -0.0251496 0.041906 -0.0216844 -0.0136966 0.0449292 0.00295226 -0.0199709 0.0378388 
0.0380504 -0.0114132 0.036744 -0.0161152 -0.00371844 0.0393055 -0.000240087 -0.00253142 0.0366106 
0.0163072 -0.000789572 0.0443757 0.0206867 -0.00931641 0.0414084 -0.0315248 0.00143338 0.0398353 
-0.0193531 0.0218709 0.0395089 -0.006833 0.0267618 0.0404402 0.0116872 0.0258019 0.0379173 
-0.0090512 -0.0234547 0.0502674 0.020305 -0.0299045 0.0510236 -0.0336379 -0.0136575 0.0531292 
0.0289081 -0.0133596 0.0475458 -0.0282449 -0.001882 0.0510298 -0.00557575 -0.00708143 0.0460092 
-0.0208779 0.00686567 0.0466713 -0.0126155 0.00283972 0.0506102 -0.0020702 0.00309101 0.0460998 
0.00615957 0.000137386 0.051779 0.0273787 0.00968743 0.0508261 -0.00966207 0.0205185 0.0524101 
4.5663e-05 0.0204071 0.0471149 
VERTICES 70 140
1 0 
1 1 
1 2 
1 3 
1 4 
1 5 
1 6 
1 7 
1 8 
1 9 
1 10 
1 11 
1 12 
1 13 
1 14 
1 15 
1 16 
1 17 
1 18 
1 19 
1 20 
1 21 
1 22 
1 23 
1 24 
1 25 
1 26 
1 27 
1 28 
1 29 
1 30 
1 31 
1 32 
1 33 
1 34 
1 35 
1 36 
1 37 
1 38 
1 39 
1 40 
1 41 
1 42 
1 43 
1 44 
1 45 
1 46 
1 47 
1 48 
1 49 
1 50 
1 51 
1 52 
1 53 
1 54 
1 55 
1 56 
1 57 
1 58 
1 59 
1 60 
1 61 
1 62 
1 63 
1 64 
1 65 
1 66 
1 67 
1 68 
1 69 

POINT_DATA 70
FIELD FieldData 7
id 1 70 int
44 732 1464 837 912 1986 1606 936 895 
1371 663 720 467 208 1438 1782 385 1157 
595 2267 398 2166 1751 2117 2149 1929 2782 
2509 2454 2873 2996 2710 2790 3102 2640 2566 
3057 2252 3510 3206 3209 3228 3475 3932 4179 
4006 4181 3841 3364 4052 3265 4362 4280 3857 
3770 3909 3724 5377 4989 4708 4482 5353 5397 
4796 5509 5103 5420 5050 5402 4610 
type 1 70 int
2 2 2 2 2 2 2 2 2 
2 2 2 2 2 2 2 2 2 
2 2 2 2 2 2 2 2 2 
2 2 2 2 2 2 2 2 2 
2 2 2 2 2 2 2 2 2 
2 2 2 2 2 2 2 2 2 
2 2 2 2 2 2 2 2 2 
2 2 2 2 2 2 2 
i 3 70 int
0 0 0 0 0 0 0 0 0 
0 0 0 0 0 0 0 0 0 
0 0 0 0 0 0 0 0 0 
0 0 0 0 0 0 0 0 0 
0 0 0 0 0 0 0 0 0 
0 0 0 0 0 0 0 0 0 
0 0 0 0 0 0 0 0 0 
0 0 0 0 0 0 0 0 0 
0 0 0 0 0 0 0 0 0 
0 0 0 0 0 0 0 0 0 
0 0 0 0 0 0 0 0 0 
0 0 0 0 0 0 0 0 0 
0 0 0 0 0 0 0 0 0 
0 0 0 0 0 0 0 0 0 
0 0 0 0 0 0 0 0 0 
0 0 0 0 0 0 0 0 0 
0 0 0 0 0 0 0 0 0 
0 0 0 0 0 0 0 0 0 
0 0 0 0 0 0 0 0 0 
0 0 0 0 0 0 0 0 0 
0 0 0 0 0 0 0 0 0 
0 0 0 0 0 0 0 0 0 
0 0 0 0 0 0 0 0 0 
0 0 0 
v 3 70 double
2.9712625391e-07 7.0484920186e-08 1.470909809e-07 -8.1118775655e-08 1.1041146048e-07 7.536524764e-08 -7.0525053746e-08 1.8313502497e-07 3.1672630997e-08 
2.7112785713e-07 1.3005449376e-08 1.613006472e-06 3.050292207e-07 -2.7671237089e-07 6.2209242985e-07 2.4090849154e-07 2.2997665279e-07 -9.3058273193e-08 
9.3479308855e-08 2.5227075397e-08 -4.0969161019e-08 -1.4523163856e-07 1.2562449469e-07 8.3125670027e-07 7.5622076273e-08 -1.2739865143e-06 8.6908591716e-07 
-8.456223163e-07 -1.0982142583e-07 -4.0674215524e-07 -1.2703791756e-07 1.1024633068e-07 -3.6277931432e-07 -1.5113003742e-07 1.178596306e-07 -1.3478084743e-06 
2.300178767e-07 7.1579961084e-07 -1.075031011e-06 4.2311915617e-07 2.3689079633e-07 5.6249140999e-07 -1.0386190636e-06 5.3130786711e-07 -2.7996332629e-07 
-8.2502538617e-08 -1.5560264631e-07 4.1930966014e-07 1.43013659e-06 -3.9490384109e-07 -1.9643518726e-06 1.1493256432e-06 -7.2539322779e-07 -3.0941298786e-08 
-4.6861530382e-07 -8.17615864e-07 -6.9846748539e-07 9.3498491303e-08 1.4635739262e-07 3.7347879703e-08 6.9322272861e-07 8.3968585974e-07 8.9403185269e-08 
-2.0965094196e-07 2.1025845855e-07 4.245053777e-07 2.6481416444e-07 -7.9759548053e-07 -4.1772937216e-08 3.4406120192e-08 1.2941786481e-07 -4.8329074255e-08 
2.5281891457e-07 6.9723207186e-08 -1.9531102172e-07 -3.0462494912e-07 2.3430956926e-07 7.5634871539e-08 -1.5567827066e-07 -1.6771770489e-07 3.0988357976e-08 
-5.894757338e-08 5.487245581e-08 -1.2636429943e-07 5.4468105992e-08 4.0804016371e-08 5.5022273279e-09 -1.1918120232e-07 -1.5194620869e-07 -2.2791436473e-07 
5.6395061203e-07 5.2391941394e-08 9.1064347439e-08 -5.5178746235e-07 -4.4802975379e-07 -5.2421210344e-07 2.5677186408e-07 5.9649563568e-07 -6.073424228e-07 
-1.8920896291e-07 -1.0997197818e-06 -4.8627340425e-08 9.8583183793e-08 8.8479221987e-09 1.0215671974e-07 -4.289979445e-08 -4.6680405321e-07 1.1653432268e-07 
1.8174496679e-07 -7.9494902723e-08 3.4654773725e-08 4.7782912375e-08 -1.5920951448e-07 -7.1475927703e-08 1.1594646551e-07 -8.5098623534e-08 -7.5867046352e-08 
4.8008978033e-07 2.3261347682e-07 -2.9113355949e-07 -3.253010885e-07 -3.1663091855e-07 -3.5951172671e-10 -6.4948071419e-07 3.9137114166e-07 -1.1825608435e-07 
1.4280803333e-07 2.1332538181e-08 -2.6901430878e-07 8.3751371514e-08 1.0795175258e-07 -2.2333358281e-08 1.0329623121e-07 8.8230282945e-08 3.0975315265e-07 
-3.4115240412e-08 -2.0006978197e-07 -1.7556420337e-08 1.3225216878e-07 2.453323609e-09 1.8010626059e-08 -2.7791422234e-08 -6.1925734401e-08 2.3423068639e-07 
5.2963099694e-07 -6.2420145739e-08 4.2710503586e-07 -4.2099726831e-08 5.1132924271e-08 -2.4194284837e-07 2.7564587678e-07 -4.1163913737e-08 -1.9656688819e-07 
2.1213386715e-07 -6.1317579404e-08 -1.460735795e-07 1.9273030255e-07 -2.9880602964e-07 9.3131931263e-08 9.083585728e-08 -6.2765713657e-09 1.361112813e-07 
-8.4605330755e-07 5.1251071176e-07 -1.8927785069e-06 6.2683000185e-08 1.7645994696e-07 -1.3827220271e-07 -2.9345655743e-07 -7.035305538e-08 -1.135148192e-07 
8.179217895e-08 -9.121780959e-08 1.3634644311e-07 -1.2126905811e-07 5.1409105997e-08 5.6366782621e-08 -3.3812120305e-07 5.738660967e-08 5.808223042e-08 
-1.0332666226e-09 -4.4842353484e-09 -1.0600809815e-07 4.1643863859e-08 -5.8540581204e-08 1.7155722617e-08 -1.0650274997e-08 -4.5811851733e-07 5.8777002573e-08 
-1.6715492239e-07 3.5076458352e-07 -7.1155895689e-08 2.1855591581e-07 -1.6352170668e-07 -2.2768103297e-07 3.1032609697e-07 -2.6678955242e-07 -7.0160467564e-08 
2.4018353994e-07 7.9446212469e-08 -5.3684310941e-08 -1.4786283396e-07 7.0389525267e-08 1.322406591e-07 -3.9769904665e-08 -2.5436355843e-07 7.5091997152e-07 
-6.9329856809e-08 1.2765419394e-07 4.0607142481e-07 
f 3 70 double
-0.0002387995481 0.00011859514121 0.00011888487408 0.00027125707476 0.00029429528692 0.00027547437972 5.4536181184e-05 -0.00016725323383 -0.00034867346898 
1.0424078952e-05 2.174741956e-05 0.00024155610643 -0.00034731729755 -5.7634412122e-06 0.00025301373648 0.00011038658023 0.00016446287288 -7.9337214843e-05 
-0.00015127926725 2.8011833148e-05 0.00016580587212 5.3556711728e-05 -0.00018733245235 -0.00029540571375 -0.00018155552172 -0.0002101782714 -0.00090807495531 
0.00029937798974 -0.00011469467262 0.0001267882896 3.054808281e-05 0.00022074786699 -0.0001138380424 9.5982335469e-06 -0.00026002197441 -0.00023501915076 
-7.6267452995e-05 0.00012623830147 -0.00016561508783 -0.00027870156336 0.00024850346091 -0.00031095172333 -8.2492741437e-05 4.0286835824e-05 0.0001812854001 
0.00027135348468 0.00013236720699 -8.5989185627e-05 0.00034256518762 -0.00053404371177 0.00025080658998 0.00032205104387 0.0001040264842 -6.7905667579e-05 
0.00011597325537 -0.00014377690073 -0.00051114875238 1.4784921552e-05 -4.4787086178e-05 -6.3489831334e-05 -5.2842137248e-06 0.00012235382604 0.00019878079006 
-6.5967497462e-06 0.00036933320789 -0.00024397170244 0.00025430203592 -0.00034570561466 -0.00023989017704 -5.9631543977e-06 6.6843585876e-06 -0.00015659381997 
-4.199048547e-05 -0.00021467992721 4.7116444762e-06 -9.9297760248e-05 -0.00021758636108 0.00011217068898 -4.1538483533e-06 -0.0001429857279 7.9251812075e-06 
-4.4664680217e-05 1.4548544264e-05 -0.00012136272487 -6.6889762945e-05 3.4497903204e-05 -7.5760340292e-05 0.0002708155084 -0.00012511231425 6.4833848826e-05 
-0.0001162962905 -9.1511070581e-05 -1.0008588558e-05 -0.00031084433908 -0.00018393172357 -0.00048204542824 -0.00017483106825 -0.00010234808904 -0.00011010357117 
-9.015756404e-05 -8.566520947e-05 -0.00015206912801 -2.4322501627e-05 -4.5035671585e-05 5.508220716e-05 3.6997909336e-05 1.9394625307e-06 -3.2611202284e-06 
-0.00028222528891 -5.2709075325e-05 -1.9221458016e-05 0.00014386178448 0.00022524014851 0.0001900633782 -1.6654234452e-05 1.6983855818e-06 -8.4883424136e-05 
-4.2491994406e-05 -0.00012646353204 1.8110886739e-05 9.0547707474e-05 1.5067372852e-05 3.2361514925e-06 -8.4489483261e-06 -0.0001184385194 -7.6295806675e-05 
5.7504484756e-05 8.523955709e-05 -1.0231230541e-05 9.5609006205e-06 4.2609349684e-05 -2.1139707233e-05 1.6322357536e-05 5.5837567017e-05 1.3683534164e-05 
-3.019241537e-05 5.9927019447e-05 -3.5059322575e-05 1.8337086559e-05 3.9380828418e-05 -5.1752807023e-05 -4.7397463121e-06 -1.0264361335e-05 4.3624658517e-05 
-2.7227815582e-05 -6.1302748539e-05 -6.3457091122e-05 3.7420329583e-05 -0.00011216569259 1.4896017182e-05 2.8012414608e-05 7.6293758458e-05 2.6535003809e-06 
1.0272543497e-05 8.4585409145e-06 1.5307437603e-05 -7.4042172663e-05 8.2786366786e-05 6.6174559127e-05 3.6577688616e-05 3.697675134e-05 5.3785473801e-05 
-7.7318738103e-05 1.068123938e-05 0.00019349463509 -9.1715760538e-05 6.309893484e-05 9.5660769241e-05 1.3251624848e-05 2.0803464406e-05 -2.5743678789e-05 
3.752251463e-05 4.5454847693e-06 2.2492373624e-05 -8.82356888e-06 -3.3118453219e-05 2.3555109424e-07 -4.6746914216e-05 6.1243083677e-06 1.1286055706e-05 
-1.9577644997e-06 -1.9643466796e-05 6.7297537806e-05 5.2205222456e-06 -5.0859601659e-05 1.4977341467e-05 -3.4516264558e-05 -3.1032136016e-05 -6.1218651402e-05 
-6.3149711846e-05 3.6961885154e-05 2.8340244938e-05 -3.7037874382e-07 -4.5901398568e-06 1.8208070682e-05 -1.5125203577e-06 -1.8577022065e-05 4.287954396e-05 
-5.2396708787e-05 -4.9020941813e-05 -1.5173969998e-05 -6.9812751405e-05 -7.0109476187e-06 -2.25655353e-05 1.5158967185e-05 1.0746380349e-06 -1.0289288457e-05 
3.3042737984e-05 -2.381892853e-05 9.4309458194e-06 
radius 1 70 double
0.005 0.005 0.005 0.005 0.005 0.005 0.005 0.005 0.005 
0.005 0.005 0.005 0.005 0.005 0.005 0.005 0.005 0.005 
0.005 0.005 0.005 0.005 0.005 0.005 0.005 0.005 0.005 
0.005 0.005 0.005 0.005 0.005 0.005 0.005 0.005 0.005 
0.005 0.005 0.005 0.005 0.005 0.005 0.005 0.005 0.005 
0.005 0.005 0.005 0.005 0.005 0.005 0.005 0.005 0.005 
0.005 0.005 0.005 0.005 0.005 0.005 0.005 0.005 0.005 
0.005 0.005 0.005 0.005 0.005 0.005 0.005 
omega 3 70 double
0.00010364593648 -5.6628390314e-05 -0.00010946778172 -9.3162084432e-05 4.1050810019e-05 2.6336319287e-05 -2.1482178663e-05 1.4412293487e-05 4.041771707e-05 
-8.8659059673e-05 -0.00017166549719 -0.00018371395693 8.136490791e-05 9.0395561551e-05 8.0331763555e-05 1.1778991071e-05 -1.8154547683e-05 5.2553101047e-05 
3.497445613e-05 1.2893222809e-06 -2.0061671407e-05 -1.7742037536e-05 0.00016215117157 4.4249644077e-06 -0.00011106962376 -0.00011023426136 -0.00041176171745 
6.5601056843e-05 0.00016859920326 -0.00017262150544 -1.562600801e-05 -5.5275576398e-05 -0.00011140745386 0.00069651426028 0.00026348109139 -0.00027307431916 
-0.00021966082451 0.0001813587976 0.00021717487512 -0.00034336785655 0.00029107225894 0.0004675287297 -6.7827173642e-05 0.00054370379704 -0.00026732075335 
0.00022786648277 6.1675041254e-07 -0.00013035561382 -8.1633116313e-05 -0.00099094195349 4.3337926806e-05 0.00015547347517 0.00028093282801 -0.00080376153126 
-0.00024760093534 3.6938015079e-06 -0.00027974914456 1.5027456583e-05 0.00011394965983 -6.9606613642e-05 4.615535232e-05 -0.00025827378257 -0.00027228626978 
-7.4648470149e-05 2.3994337796e-05 -0.00013280401114 -7.9052978435e-05 7.2893720535e-05 -0.00018056101818 -4.2326689912e-05 -2.4390438495e-05 -8.7161071596e-06 
-2.4279750574e-05 6.0681948577e-05 -2.2913828155e-05 0.00018292703529 -4.4451138845e-06 -0.00014932697917 5.8021194168e-05 -8.498892367e-05 0.00011670203601 
-4.7211108579e-05 6.6745642823e-05 1.1591032625e-05 2.3539832074e-05 -7.443423347e-06 -2.9820207453e-05 -2.7078725217e-07 9.3660959619e-05 -2.520016297e-05 
-1.366277381e-05 -6.3256420957e-06 1.0064703569e-05 -0.00013374278392 0.00013902415008 -0.0002350278581 -9.3072810675e-06 0.00015052895589 1.8496764021e-05 
-0.00040927413697 0.00010313967137 0.00027967039839 7.7908795414e-06 -4.3312628854e-05 3.5286227137e-05 3.2146878034e-05 -4.8259546658e-05 7.3831176287e-05 
-8.6315501253e-05 -1.976082586e-06 9.4636233482e-06 6.1034797548e-05 1.8774874977e-05 2.342887421e-05 1.5063472569e-05 -4.3787783422e-05 -4.0575279769e-05 
-1.5074229758e-05 -5.8379767707e-05 -1.1309833386e-06 -2.6639456658e-06 7.4071704488e-05 3.5027049037e-05 0.00017920595952 0.00012300285483 -3.5946478265e-06 
-4.1643948085e-05 -4.5961940047e-05 3.3805115789e-05 2.2629795572e-05 -4.8498730369e-05 1.2540885433e-05 6.8971788077e-05 4.1668883899e-05 -4.3729694142e-05 
-6.2334782897e-05 4.9641457512e-06 3.6917405938e-05 -1.9484122673e-06 4.0329451122e-05 2.3449328927e-05 -5.1035056538e-05 -0.00012866284525 -7.6843995031e-05 
-2.7364394777e-05 7.6445242405e-05 0.00016336394684 -9.0762886374e-05 -2.3604045133e-05 7.2695461638e-05 -5.697424671e-05 -0.00011910643695 1.359850681e-05 
-5.5395704429e-05 3.6884200906e-05 -2.4233564721e-05 -5.4316233347e-05 -2.6847445871e-05 7.486336875e-05 -5.9949005033e-05 -8.0401115707e-05 6.542093106e-05 
-3.6097366259e-05 -7.1167460101e-05 4.4325884563e-05 7.4603982962e-05 8.8731953219e-05 1.5797314693e-05 2.465411699e-05 4.2525472597e-05 2.724361864e-05 
4.9337367998e-05 3.6881738197e-05 6.6583686765e-06 1.238663547e-05 1.0138792155e-05 7.2687938059e-06 -4.1068817018e-05 0.00020948095946 -9.1730258847e-05 
-1.1304849902e-05 1.4807404322e-05 -2.6183728163e-05 -4.1572514029e-06 -2.160664735e-05 3.9551230171e-05 -0.00014149505965 2.6718430522e-05 0.00011206831275 
4.1575813175e-05 3.7273204741e-05 1.0307595424e-05 1.1522119451e-05 1.5435103078e-05 1.0768513596e-06 3.2313748771e-05 -4.2065871816e-05 3.1517071738e-05 
2.1633933687e-05 -1.6997980266e-05 -3.9085036243e-06 -2.3674880282e-05 -3.7732114018e-05 -2.5951167806e-05 6.6820671706e-05 0.00024969513089 5.0592524865e-05 
5.1201063858e-05 7.2617056566e-05 -1.3977817558e-05 
