# vtk DataFile Version 4.2
Generated by LIGGGHTS
ASCII
DATASET POLYDATA
POINTS 70 float
0.0114582 -0.0368893 0.00699838 -0.0237985 -0.0238459 0.00699828 -0.0051647 -0.0202765 0.00953845 
0.0278628 -0.0211397 0.0135785 0.0230262 -0.0153722 0.00699752 -0.0253441 -0.00911917 0.0113724 
-0.0187622 -0.00161642 0.0107676 -0.00540934 -0.00082463 0.0069993 0.00451113 -0.00742058 0.00934089 
0.0159819 -0.00046379 0.0109253 0.0119743 0.00781089 0.0069976 0.0247776 0.0051787 0.00975104 
-0.0327819 0.0126215 0.00699878 -0.0248284 0.0178784 0.0100133 -0.000589556 0.0181855 0.0102347 
0.00562287 0.011265 0.0139045 -0.0125073 0.0218876 0.00749382 0.00288378 0.0293429 0.00699795 
0.0229397 0.0220761 0.0070533 -0.000836323 -0.0222524 0.0217332 0.0205449 -0.00875746 0.0144138 
-0.00820971 0.00387822 0.0164056 -0.0114136 0.0133337 0.0169576 0.0101142 0.016093 0.0215669 
0.0225476 0.0106841 0.0232497 0.00574209 0.0299438 0.0204631 -0.0141533 -0.0327213 0.0297117 
-0.000931938 -0.0397253 0.0283781 -0.0042606 -0.0305304 0.0304676 -0.0203285 -0.0203269 0.0274441 
-0.00721638 -0.018164 0.0282577 0.00504087 -0.0176016 0.0283518 0.019833 -0.0173873 0.0279802 
0.0294059 -0.0112394 0.0311967 -0.00674139 -0.00769606 0.0261014 0.0291985 -0.00143251 0.0292522 
-0.0127277 0.00477296 0.0347275 -0.00474818 0.00179299 0.0286245 0.0109787 0.00388925 0.0330456 
-0.0121381 0.0145032 0.032501 0.0040475 0.0289294 0.0322747 0.0115002 0.0244726 0.0273158 
0.0295521 0.0215921 0.0316808 0.00282295 -0.0325029 0.0374722 -0.0125617 -0.025266 0.0410812 
0.0107597 -0.0251495 0.0419061 -0.0216843 -0.0136966 0.0449292 0.00295234 -0.0199708 0.0378388 
0.0380505 -0.0114131 0.036744 -0.0161152 -0.0037185 0.0393055 -0.000240081 -0.00253144 0.0366106 
0.0163071 -0.000789488 0.0443756 0.0206866 -0.00931631 0.0414084 -0.0315248 0.00143327 0.0398353 
-0.0193532 0.0218709 0.039509 -0.0068331 0.0267618 0.0404402 0.0116871 0.025802 0.0379173 
-0.00905111 -0.0234547 0.0502674 0.0203051 -0.0299044 0.0510236 -0.0336379 -0.0136576 0.0531292 
0.0289081 -0.0133595 0.0475457 -0.0282449 -0.00188212 0.0510298 -0.00557573 -0.00708146 0.0460092 
-0.0208779 0.00686559 0.0466713 -0.0126156 0.00283967 0.0506102 -0.00207021 0.003091 0.0460998 
0.00615955 0.000137451 0.051779 0.0273787 0.00968751 0.0508261 -0.00966214 0.0205185 0.0524101 
4.55905e-05 0.0204071 0.0471149 
VERTICES 70 140
1 0 
1 1 
1 2 
1 3 
1 4 
1 5 
1 6 
1 7 
1 8 
1 9 
1 10 
1 11 
1 12 
1 13 
1 14 
1 15 
1 16 
1 17 
1 18 
1 19 
1 20 
1 21 
1 22 
1 23 
1 24 
1 25 
1 26 
1 27 
1 28 
1 29 
1 30 
1 31 
1 32 
1 33 
1 34 
1 35 
1 36 
1 37 
1 38 
1 39 
1 40 
1 41 
1 42 
1 43 
1 44 
1 45 
1 46 
1 47 
1 48 
1 49 
1 50 
1 51 
1 52 
1 53 
1 54 
1 55 
1 56 
1 57 
1 58 
1 59 
1 60 
1 61 
1 62 
1 63 
1 64 
1 65 
1 66 
1 67 
1 68 
1 69 

POINT_DATA 70
FIELD FieldData 7
id 1 70 int
44 732 1464 837 912 1986 1606 936 895 
1371 663 720 467 208 1438 1782 385 1157 
595 2267 398 2166 1751 2117 2149 1929 2782 
2509 2454 2873 2996 2710 2790 3102 2640 2566 
3057 2252 3510 3206 3209 3228 3475 3932 4179 
4006 4181 3841 3364 4052 3265 4362 4280 3857 
3770 3909 3724 5377 4989 4708 4482 5353 5397 
4796 5509 5103 5420 5050 5402 4610 
type 1 70 int
2 2 2 2 2 2 2 2 2 
2 2 2 2 2 2 2 2 2 
2 2 2 2 2 2 2 2 2 
2 2 2 2 2 2 2 2 2 
2 2 2 2 2 2 2 2 2 
2 2 2 2 2 2 2 2 2 
2 2 2 2 2 2 2 2 2 
2 2 2 2 2 2 2 
i 3 70 int
0 0 0 0 0 0 0 0 0 
0 0 0 0 0 0 0 0 0 
0 0 0 0 0 0 0 0 0 
0 0 0 0 0 0 0 0 0 
0 0 0 0 0 0 0 0 0 
0 0 0 0 0 0 0 0 0 
0 0 0 0 0 0 0 0 0 
0 0 0 0 0 0 0 0 0 
0 0 0 0 0 0 0 0 0 
0 0 0 0 0 0 0 0 0 
0 0 0 0 0 0 0 0 0 
0 0 0 0 0 0 0 0 0 
0 0 0 0 0 0 0 0 0 
0 0 0 0 0 0 0 0 0 
0 0 0 0 0 0 0 0 0 
0 0 0 0 0 0 0 0 0 
0 0 0 0 0 0 0 0 0 
0 0 0 0 0 0 0 0 0 
0 0 0 0 0 0 0 0 0 
0 0 0 0 0 0 0 0 0 
0 0 0 0 0 0 0 0 0 
0 0 0 0 0 0 0 0 0 
0 0 0 0 0 0 0 0 0 
0 0 0 
v 3 70 double
1.0715673336e-06 1.1473615322e-06 -3.1836107484e-06 2.3404639161e-06 -2.0850535242e-06 -3.0587756551e-06 1.8244426186e-06 -1.5955939887e-06 -5.8391048812e-06 
-1.4740981481e-06 -3.7266381386e-07 -8.8061321535e-06 1.4681597168e-06 -1.6035881146e-06 -2.6141719885e-06 -5.9966603514e-07 -5.5267485274e-06 -6.4784165975e-06 
-1.4180547104e-06 -5.6420783407e-06 -2.4503404367e-06 2.5270238499e-07 2.651591379e-07 -2.3005788516e-06 -4.6849964705e-08 -8.4621895327e-07 -2.8010145711e-06 
1.2561947264e-06 -1.7506438193e-06 -2.806906037e-06 2.8878364281e-06 -2.4807149332e-06 -1.0264934831e-06 3.0154643895e-06 -3.3249687615e-06 -1.076908163e-06 
2.9653849306e-06 2.7208475224e-06 4.5893768908e-07 2.0665422142e-06 2.2234396686e-06 -5.3309611203e-07 3.7727198999e-06 -3.1586607679e-06 -3.0670882288e-06 
3.0634533606e-06 -3.9440845061e-06 -3.5024673585e-06 6.7232515578e-06 -1.0349407642e-06 -1.9925520356e-06 8.753330231e-06 -2.1343946326e-06 -8.097740166e-08 
5.0294373248e-06 -2.3543428852e-06 -7.9120005192e-07 -2.536486735e-06 -4.8144378724e-07 -6.8696495872e-06 3.0953468451e-07 -9.8449322163e-07 -3.847706996e-06 
-2.6708409067e-06 -4.7553609838e-06 -4.4740938247e-06 1.3363219365e-06 -2.8875920135e-06 -3.8580724343e-06 2.0381945706e-06 -3.8139293173e-06 -3.5267996272e-06 
2.5102838421e-07 -3.4063094652e-06 -6.1831952847e-06 6.1623576792e-06 -4.1469012989e-06 6.3376600204e-07 -7.6217133893e-06 -2.8161223066e-06 -5.5528942079e-06 
6.0393088043e-07 8.964651604e-07 -1.3595852725e-05 -3.0001839054e-07 -1.9691595148e-06 -1.2557251709e-05 -6.2001054352e-06 -2.0995654717e-06 -5.1040119069e-06 
-4.7582704219e-06 -3.1875981731e-06 -6.8861262208e-06 -7.4171286598e-06 -1.4613721653e-06 -8.146005737e-06 -2.5277130569e-06 -1.628776976e-06 -9.1997430198e-06 
-3.5713820605e-06 -8.1987139923e-06 -6.9737140295e-06 -5.8889827437e-06 -3.6512564647e-06 -3.0114059962e-06 -3.5150263186e-06 -2.489438349e-06 -4.4718739562e-06 
-4.6658235491e-06 -8.1591120938e-06 6.2642089739e-08 -6.0911983925e-06 -7.0156261165e-06 -5.4444171833e-06 -1.9007041838e-06 -4.0289030831e-06 -6.4328894658e-06 
-2.2932316072e-06 -6.8108560064e-06 -1.5700193261e-06 4.5934138415e-06 -5.3291609302e-06 1.5315125502e-06 6.6466690022e-06 -4.3597894495e-06 -4.4395861514e-07 
4.7403400665e-06 -6.5330690728e-06 -6.6649899738e-06 -5.7592871764e-07 -2.705935057e-06 -8.0559174892e-06 -4.2066563995e-06 2.2633172757e-06 -1.3391417317e-05 
4.8177163556e-06 -4.5037202987e-06 -8.4459541921e-06 2.9169114129e-06 6.9498733916e-06 -1.4006887331e-05 -7.5089554046e-06 -7.4524477324e-07 -5.3472919493e-06 
-8.6069290434e-06 -1.7937940556e-05 -1.1853337144e-05 -9.294383351e-06 -4.7650290972e-06 1.9080298467e-06 -5.9887930603e-06 -6.280820352e-06 -3.580433362e-06 
1.9721263107e-06 -3.8953492869e-06 -3.6206023146e-06 -1.2548170305e-06 -8.2888408351e-06 -3.9361518273e-06 6.5654322212e-07 -3.129850003e-06 -6.8565645097e-06 
-1.6300037815e-06 -3.4856472901e-06 -1.7179655427e-06 8.2601814887e-07 -6.4895554796e-06 7.4634186353e-06 3.8672691283e-06 -5.6175804625e-06 -2.9223909295e-07 
-2.5125351614e-08 -1.4471095818e-06 -3.2357228717e-06 1.0683519435e-05 -5.740686714e-06 9.5567063293e-06 -3.1957409169e-05 2.7978408605e-06 -1.6498179507e-05 
-3.7326960937e-06 -1.8836808018e-05 -1.4047923709e-05 -1.5516731501e-05 -1.3436636138e-05 -3.592786676e-06 -1.5454595384e-06 -3.8353776087e-06 3.2872296421e-08 
-2.4102517759e-07 -5.8911926726e-06 2.6912192425e-06 2.1047686077e-06 -4.7280719909e-06 2.5134381391e-06 1.8348953412e-06 -6.6585513155e-06 -4.7802104844e-06 
2.1078625347e-06 -2.3077147981e-06 -6.8293510882e-06 2.2965938694e-06 -6.0000421346e-06 -1.6340062611e-05 -3.3046077129e-06 -1.2358007473e-05 1.0292076782e-05 
7.5848809978e-07 -7.1887344576e-06 8.5347704073e-06 
f 3 70 double
0.00032060333514 0.00019004710278 0.00068566592656 0.00011103925174 -8.8232023092e-06 0.00015830809878 -0.000217409464 0.00025142170201 0.00028816562618 
0.00017496786987 -0.00025686917141 0.0002787489038 -3.7498730481e-05 4.0103064945e-05 -0.00020900095551 0.0003067740583 -0.0001599435031 -4.9500036606e-05 
0.00021843147487 -0.00022396828585 0.00025855228233 0.0001182597477 -0.00017557698397 -0.00017620141597 0.00044318860869 -0.00018707204189 -0.00084007299023 
1.2658955028e-05 -5.4595780304e-05 7.9919270988e-05 4.6863046996e-05 0.00028878079289 -0.00019408657554 -5.3165112938e-05 0.00015248009487 1.6526502762e-05 
-0.00035672162751 -0.00033609173019 -7.4489833863e-05 0.00029795989374 -0.000204693516 0.00010765688195 0.00020101713451 -4.3358771063e-05 1.0562666203e-05 
0.00026452958341 0.00014307276474 0.00018390131666 0.00047821246109 0.0008231588773 0.00052086925383 0.00017616380329 -0.00024303292959 -0.0010584861687 
0.00014078731407 0.0001291153656 0.00018281866424 -5.5188002038e-05 -7.7810719163e-05 -0.00017914463015 -0.00013100849297 -0.0003301018815 1.8249052339e-05 
4.6118943402e-05 0.00011721693682 -0.00021595158978 0.00017704736774 -0.00053801889865 -0.00028118955374 0.0003213950541 1.1654629765e-05 -3.8002680314e-05 
7.9652284967e-05 8.6773114175e-05 -2.981902024e-05 -2.5944014398e-05 0.00013156252402 -9.8413341542e-05 -0.00038925070261 -1.6736312718e-05 0.00029324520535 
-0.00028023333013 0.00016745750731 -5.5510090852e-05 -5.8499839753e-05 -2.4225495636e-05 9.707752083e-05 -0.00021616022213 -0.000200695363 9.7632327324e-05 
-4.7562958509e-05 -1.3517413286e-05 3.6447317989e-05 -0.00015521398846 -6.9579172701e-05 -0.00018875042572 0.00019621848695 7.0476293076e-05 0.00016103862163 
0.00015268690992 -0.0001171570831 -8.8830913818e-05 -5.4294707541e-05 1.6338078405e-05 4.1371116261e-05 8.7016212796e-05 2.1873980904e-05 1.158571288e-05 
0.00014597919045 6.6465449491e-05 1.8048357584e-05 -0.0001028438359 0.00029676748019 -0.00020922496298 -5.2022795771e-05 -0.00021477650312 -6.4920893579e-05 
1.1223404271e-06 3.8498937693e-05 -7.4463846031e-05 8.3867786218e-05 7.8945194523e-05 -7.0397476518e-05 -6.951876714e-05 8.0323411549e-05 0.00010706896723 
-2.7776142896e-05 -2.9383200436e-05 -5.1544316515e-05 -5.1252900404e-05 -1.2132224819e-07 2.2063935715e-05 7.7401194991e-05 0.00011055786241 0.00012888592779 
-6.8262019482e-05 -0.00010403048673 -6.5778147425e-05 0.00025130206127 0.00027222456785 -0.00020711187169 -6.6304265899e-05 -5.5350302475e-05 4.4553537639e-05 
-0.00014186703687 -0.00021596004065 -9.6863904562e-05 -0.00011982172976 0.0001100361647 -9.0005949545e-05 -0.00016705596489 -0.00012865516651 -1.9175263354e-05 
6.3435093339e-05 4.4999050902e-05 -4.2158638175e-05 2.1896631143e-05 -9.2346403664e-05 -4.5732668156e-05 -4.8190833414e-05 -2.9846657199e-05 -0.00017098095036 
0.00010090315336 -3.6910357485e-05 -3.5946068335e-05 -3.8991024493e-05 7.9621250013e-05 3.8982044739e-05 3.4352535848e-06 -1.3445260973e-05 3.6223852831e-05 
0.00021436766669 8.3400471692e-05 1.1595028376e-05 -0.00072710332058 0.00015415479677 0.00037084743195 8.6811386281e-05 0.00024656225055 0.00033966250419 
6.2403454217e-07 0.00044810990318 -0.00012395133275 -0.00027393175114 -0.00012160496399 -5.4076802535e-06 0.000111493666 2.4660640693e-05 -0.000101306237 
-0.00014594139765 -7.0335977189e-05 0.0001121702326 -1.2374837663e-05 -0.00011083419436 2.4315212198e-05 -8.2424214848e-05 -2.4246413977e-05 7.2109963596e-06 
-4.7813330638e-05 7.3939134758e-05 -9.009791907e-05 -0.00012163543756 2.3890146663e-05 -7.8854032111e-05 4.0081859647e-05 2.3543044413e-05 7.0854320625e-05 
9.8449447064e-06 1.6747182159e-05 4.9369108608e-05 
radius 1 70 double
0.005 0.005 0.005 0.005 0.005 0.005 0.005 0.005 0.005 
0.005 0.005 0.005 0.005 0.005 0.005 0.005 0.005 0.005 
0.005 0.005 0.005 0.005 0.005 0.005 0.005 0.005 0.005 
0.005 0.005 0.005 0.005 0.005 0.005 0.005 0.005 0.005 
0.005 0.005 0.005 0.005 0.005 0.005 0.005 0.005 0.005 
0.005 0.005 0.005 0.005 0.005 0.005 0.005 0.005 0.005 
0.005 0.005 0.005 0.005 0.005 0.005 0.005 0.005 0.005 
0.005 0.005 0.005 0.005 0.005 0.005 0.005 
omega 3 70 double
0.00017607267825 0.00029065603333 0.00028667703697 -0.0003038392666 -0.00036595621564 0.00041804778446 0.0001274024217 -0.00024037821836 0.00024931520975 
0.00028598505513 0.00056399836464 -7.7484074565e-05 -0.00090663950723 1.688901993e-05 0.00023704919357 0.00028520680557 -4.0401257059e-05 0.00037957284624 
0.00029507569704 -0.00042851960929 -0.00056207886109 0.0001695717672 -0.00016735963971 0.00010596695343 0.00013561694166 -9.0460082841e-05 -0.00056383460935 
-0.00015283440894 -0.0003043709543 -0.00023097375595 0.0001677781238 0.00044896157446 -0.00060984662686 -5.0619816945e-06 -0.00026187684075 -0.0001433895581 
-0.00010225382129 0.0003036038821 -3.0202532683e-06 9.2586052165e-05 -0.00012272801357 -6.158290639e-05 -0.00024852772927 0.0012197217046 0.00053952153088 
0.00021683230699 -0.00031158302751 -0.0008184339944 0.00022573581326 -2.3434816679e-05 -0.00018172632616 -7.5145669102e-05 2.8336243857e-05 -0.00020467396208 
-0.00010872334618 0.00011784811451 0.00013015859937 0.00021505309585 -0.0002485530091 5.1368777218e-05 -0.00031312949135 -0.00045672912399 -0.00042064944197 
0.00033408607986 -3.3740887567e-05 -7.3459968797e-05 0.00049303719731 -0.0003851407404 -0.00053093402744 3.6496103958e-05 -0.00023706270388 -0.0001128041167 
9.542545192e-05 -0.0003066820589 -0.00038767887175 0.00037000776069 -7.4327437637e-05 -0.00010857486727 -0.0004218969553 -0.00029344026538 -0.00024444077112 
-3.1327373239e-05 -0.00014218135995 0.00056300362761 0.0002837439568 0.00028236816662 0.00025721022667 -0.00090168524172 -0.001190564167 -0.00060935642347 
0.0001232851329 -0.00012558939181 4.9610465905e-05 -2.1605671713e-05 0.00015716850023 -9.6489914744e-05 0.0005084375621 0.00022542779346 -0.00016987999076 
0.00089634303981 0.00043696728407 -0.00038195782618 0.00018688486132 -0.00016044690753 0.00028158511742 0.00012084530096 1.5660697225e-05 -0.00016400390612 
4.966118371e-05 3.1277779061e-05 -0.00023326771274 4.0426719454e-05 -0.00013335209371 5.6693359319e-06 -0.00025673796549 0.00030362841358 9.9849921344e-05 
0.00022261306344 -0.00021163351184 -0.00026589077932 4.6142025681e-05 -0.00013739608521 1.9680269689e-05 0.00019904299264 4.2575098737e-05 7.7060484767e-05 
0.00024129089911 9.7198097836e-05 -0.00027434904398 7.0572477942e-05 0.0006922775561 4.3736666562e-05 -9.7424077406e-05 0.00043292266174 -0.00076490580823 
0.00049638798848 0.0011222684078 -0.00034042799027 0.00015684615201 0.0032618463128 0.001773466137 -0.00010331407711 -1.772706289e-05 0.0004095111788 
0.0011316351386 -0.00040527684556 -0.00089845076768 0.00040161937631 -0.00028107577168 -0.00034864856659 0.00024655512023 7.7050207024e-05 0.00021581668277 
0.00016766249673 0.00010721281705 -0.00026445195215 0.00085847562759 0.00031992909549 -0.00012156429095 0.00080699791663 -0.0015641530285 -0.00080038240184 
-5.6226812049e-05 -0.0003460581208 -0.00029835931489 2.5557203821e-05 -9.6592008154e-05 -0.00028979772273 -7.9277406726e-05 -1.5080483509e-05 -6.2784507447e-06 
-8.0870474901e-05 0.00056927864207 -0.00053916632311 -0.0017042035289 -0.0059179236851 -0.00070744181338 -0.00082515910721 -0.00032582221005 0.00059270355403 
-0.00097968178658 0.0019727321207 0.00054492542245 -0.00039148004466 -0.0014286524033 -0.00096330856259 -0.00021752922857 0.00058488010568 0.00021920466497 
-2.0229193705e-05 -0.0001040963825 0.00019124844965 0.00065389535852 0.00058460970972 0.00035771772899 -8.9874004691e-05 0.00066436738866 -0.00040526207987 
-0.00045046341644 0.00023034813269 -0.00027923971506 -0.00051032851303 0.00055961661317 -0.00030857333817 0.00077106164992 -0.00046906864886 -4.3421531654e-05 
0.00029266056539 0.00057816524811 0.0001363061751 
