# vtk DataFile Version 4.2
Generated by LIGGGHTS
ASCII
DATASET POLYDATA
POINTS 70 float
0.0114581 -0.0368894 0.00699838 -0.0237986 -0.0238458 0.00699827 -0.00516478 -0.0202765 0.00953845 
0.0278628 -0.0211398 0.0135785 0.0230261 -0.0153722 0.00699752 -0.0253441 -0.00911908 0.0113724 
-0.0187622 -0.00161635 0.0107676 -0.00540934 -0.00082461 0.0069993 0.0045111 -0.00742059 0.00934088 
0.0159819 -0.000463851 0.0109253 0.0119743 0.00781084 0.0069976 0.0247776 0.00517861 0.00975104 
-0.0327818 0.0126216 0.00699878 -0.0248283 0.0178785 0.0100133 -0.000589488 0.0181855 0.0102347 
0.00562292 0.011265 0.0139045 -0.0125072 0.0218876 0.00749382 0.00288389 0.0293428 0.00699795 
0.0229398 0.0220761 0.0070533 -0.000836414 -0.0222524 0.0217332 0.0205449 -0.00875754 0.0144138 
-0.00820969 0.00387825 0.0164056 -0.0114136 0.0133337 0.0169576 0.0101142 0.0160929 0.0215669 
0.0225476 0.010684 0.0232497 0.0057422 0.0299437 0.0204631 -0.0141535 -0.0327213 0.0297117 
-0.000932094 -0.0397253 0.0283781 -0.00426073 -0.0305304 0.0304676 -0.0203286 -0.0203268 0.0274441 
-0.00721645 -0.018164 0.0282577 0.00504079 -0.0176016 0.0283518 0.019833 -0.0173874 0.0279802 
0.0294059 -0.0112395 0.0311967 -0.00674141 -0.00769605 0.0261014 0.0291985 -0.00143261 0.0292522 
-0.0127277 0.00477301 0.0347275 -0.00474817 0.00179301 0.0286245 0.0109787 0.0038892 0.0330456 
-0.012138 0.0145033 0.032501 0.0040476 0.0289293 0.0322747 0.0115002 0.0244725 0.0273158 
0.0295522 0.021592 0.0316808 0.00282281 -0.0325029 0.0374722 -0.0125618 -0.0252659 0.0410811 
0.0107596 -0.0251496 0.041906 -0.0216844 -0.0136966 0.0449292 0.00295226 -0.0199709 0.0378388 
0.0380504 -0.0114132 0.036744 -0.0161152 -0.00371844 0.0393055 -0.000240087 -0.00253142 0.0366106 
0.0163072 -0.000789572 0.0443757 0.0206867 -0.00931641 0.0414084 -0.0315248 0.00143338 0.0398353 
-0.0193531 0.0218709 0.0395089 -0.006833 0.0267618 0.0404402 0.0116872 0.0258019 0.0379173 
-0.0090512 -0.0234547 0.0502674 0.020305 -0.0299045 0.0510236 -0.0336379 -0.0136575 0.0531292 
0.0289081 -0.0133596 0.0475458 -0.0282449 -0.001882 0.0510298 -0.00557575 -0.00708143 0.0460092 
-0.0208779 0.00686567 0.0466713 -0.0126155 0.00283972 0.0506102 -0.0020702 0.00309101 0.0460998 
0.00615957 0.000137386 0.051779 0.0273787 0.00968743 0.0508261 -0.00966207 0.0205185 0.0524101 
4.5663e-05 0.0204071 0.0471149 
VERTICES 70 140
1 0 
1 1 
1 2 
1 3 
1 4 
1 5 
1 6 
1 7 
1 8 
1 9 
1 10 
1 11 
1 12 
1 13 
1 14 
1 15 
1 16 
1 17 
1 18 
1 19 
1 20 
1 21 
1 22 
1 23 
1 24 
1 25 
1 26 
1 27 
1 28 
1 29 
1 30 
1 31 
1 32 
1 33 
1 34 
1 35 
1 36 
1 37 
1 38 
1 39 
1 40 
1 41 
1 42 
1 43 
1 44 
1 45 
1 46 
1 47 
1 48 
1 49 
1 50 
1 51 
1 52 
1 53 
1 54 
1 55 
1 56 
1 57 
1 58 
1 59 
1 60 
1 61 
1 62 
1 63 
1 64 
1 65 
1 66 
1 67 
1 68 
1 69 

POINT_DATA 70
FIELD FieldData 7
id 1 70 int
44 732 1464 837 912 1986 1606 936 895 
1371 663 720 467 208 1438 1782 385 1157 
595 2267 398 2166 1751 2117 2149 1929 2782 
2509 2454 2873 2996 2710 2790 3102 2640 2566 
3057 2252 3510 3206 3209 3228 3475 3932 4179 
4006 4181 3841 3364 4052 3265 4362 4280 3857 
3770 3909 3724 5377 4989 4708 4482 5353 5397 
4796 5509 5103 5420 5050 5402 4610 
type 1 70 int
2 2 2 2 2 2 2 2 2 
2 2 2 2 2 2 2 2 2 
2 2 2 2 2 2 2 2 2 
2 2 2 2 2 2 2 2 2 
2 2 2 2 2 2 2 2 2 
2 2 2 2 2 2 2 2 2 
2 2 2 2 2 2 2 2 2 
2 2 2 2 2 2 2 
i 3 70 int
0 0 0 0 0 0 0 0 0 
0 0 0 0 0 0 0 0 0 
0 0 0 0 0 0 0 0 0 
0 0 0 0 0 0 0 0 0 
0 0 0 0 0 0 0 0 0 
0 0 0 0 0 0 0 0 0 
0 0 0 0 0 0 0 0 0 
0 0 0 0 0 0 0 0 0 
0 0 0 0 0 0 0 0 0 
0 0 0 0 0 0 0 0 0 
0 0 0 0 0 0 0 0 0 
0 0 0 0 0 0 0 0 0 
0 0 0 0 0 0 0 0 0 
0 0 0 0 0 0 0 0 0 
0 0 0 0 0 0 0 0 0 
0 0 0 0 0 0 0 0 0 
0 0 0 0 0 0 0 0 0 
0 0 0 0 0 0 0 0 0 
0 0 0 0 0 0 0 0 0 
0 0 0 0 0 0 0 0 0 
0 0 0 0 0 0 0 0 0 
0 0 0 0 0 0 0 0 0 
0 0 0 0 0 0 0 0 0 
0 0 0 
v 3 70 double
3.6125821857e-07 1.6130462818e-08 6.3487420554e-08 2.5931625446e-08 -1.2015731089e-07 1.6323955306e-07 -1.8310478543e-07 -8.9461851081e-08 7.0125230706e-08 
4.2299561776e-07 -9.0143603543e-08 5.5701208496e-07 1.1965486278e-07 -2.3815231679e-07 7.6000398696e-07 -1.3287198365e-07 -4.5972278363e-08 7.1739290109e-08 
-1.6364302946e-07 9.922069595e-08 -6.5126163354e-08 3.0101967557e-07 -2.9890560121e-07 -6.8928135201e-07 5.9755765267e-07 1.0527353855e-06 -1.1077632923e-06 
3.3022343751e-07 -2.3949000482e-07 -8.1307730388e-08 -2.069748609e-08 -1.3556595036e-07 -2.6742443203e-07 -5.3416136467e-07 2.0356703933e-09 -1.4653207578e-06 
-2.6054999335e-07 -8.185188551e-07 2.3062936584e-07 -9.1031786514e-07 -8.1256817074e-08 -8.0292548916e-07 -6.7425394387e-07 -9.9283734426e-07 1.7636520604e-07 
-1.3788233325e-07 1.6589521669e-08 -1.9821653589e-07 1.5052095395e-07 4.6499720693e-07 -8.2517962293e-08 4.9615173226e-07 2.0004206681e-07 4.7746876399e-08 
4.7485854997e-07 9.9456304316e-07 -1.2940121857e-07 1.6853870048e-07 -7.5924392448e-08 1.1738643144e-07 -3.6089234641e-07 -1.9004277038e-07 4.695367984e-07 
9.9291267934e-09 1.3654584793e-07 8.974842677e-09 -5.6107429433e-07 7.8388234265e-07 3.7364865661e-08 3.2912002715e-07 -2.5656566535e-08 -1.1371407402e-07 
-3.2588319284e-07 7.0749746891e-09 8.8898655339e-08 -1.4014033075e-07 -8.67375668e-08 2.1273805044e-07 2.554148095e-07 1.3098716931e-07 1.6555043901e-07 
7.4300475137e-09 5.9440351957e-09 1.6783381528e-09 8.0709883166e-08 -1.6769819823e-08 -9.7726871271e-08 3.6091002142e-07 -3.117638204e-07 -1.4360960573e-07 
1.3000193804e-07 6.5971479445e-10 1.7257302722e-08 -9.6336489154e-08 8.0094942795e-08 1.5628995282e-07 8.3703458138e-07 -8.5039746067e-08 9.4153872799e-07 
-2.1233783535e-08 5.522477776e-07 -7.4182832903e-08 1.8656405745e-07 7.4285876508e-08 -2.0002448812e-07 6.0421275305e-07 -2.2290944457e-07 -2.0557265007e-08 
-1.6637067096e-07 2.5260347666e-07 2.7883262341e-07 -2.3886981804e-07 -1.477587514e-08 2.1096226748e-07 2.7984094089e-08 -4.9605031572e-08 -1.1370416383e-07 
3.1491020341e-07 -8.7009340525e-08 -3.1657306344e-08 3.6659559695e-08 -1.4123952188e-07 1.8805073852e-07 -5.5586477996e-07 2.8629611317e-07 7.7083051737e-08 
-1.6257121844e-07 5.5748112361e-08 -2.376359849e-08 7.7926269483e-09 -1.0337728133e-07 -3.8144567403e-08 -7.0980014933e-08 -5.2161346674e-08 -2.6038138332e-07 
-1.7627986161e-07 -1.7545131325e-07 -2.3453277088e-07 8.4204395825e-08 -1.6950201749e-07 7.4738660612e-08 -8.9940389476e-08 -2.0362588762e-07 9.7850387723e-08 
4.2412707785e-07 -2.7754008596e-07 7.5158299378e-07 -5.4182052182e-07 -4.6651656419e-07 1.1184431067e-07 -1.2061957238e-07 1.8210890375e-07 -1.6689855073e-07 
3.6684681588e-08 2.4548705991e-08 7.306061303e-08 -2.4918005353e-07 -3.2851966748e-07 -2.7494172381e-07 -3.6367104249e-07 1.7409355763e-07 -1.9813826061e-07 
-2.7730454728e-07 3.4712970581e-07 -1.2130027698e-06 -6.452144226e-07 4.9777493065e-07 -2.7650806242e-07 1.4661574342e-07 1.2800884793e-07 -1.0845606862e-07 
1.6124556505e-07 -4.7851253819e-08 -1.7810622576e-07 6.7061618408e-08 5.7079392698e-08 -1.3811384952e-08 -2.5740725741e-07 -5.43117202e-07 9.4361466039e-08 
-5.0775865971e-08 8.8662518037e-08 -3.3817942186e-08 1.1434153427e-07 -3.7816171501e-07 6.6378926739e-08 3.8990094141e-08 1.7608430616e-07 -1.6930803185e-07 
-9.2563518257e-08 1.9125945326e-07 -1.0910809139e-07 6.9953390394e-08 -2.8787325399e-07 2.8757894626e-08 -2.1803440088e-07 -4.4395813161e-08 9.1156250577e-08 
-2.3602473606e-07 -9.5972470703e-08 8.7797927604e-08 -9.5801442672e-08 8.3189209781e-08 4.5538109242e-08 9.6828851295e-07 -1.0915884458e-07 4.8310679633e-07 
1.0818154239e-07 1.9867836521e-08 3.0294744044e-09 
f 3 70 double
-0.00013028758697 3.935614655e-05 0.00011574544352 0.00033363227184 0.00024802597281 0.00028331488631 7.4654494613e-05 -0.00013131225203 -0.00034299765959 
-0.00017992071553 -4.7986282176e-06 -4.4411339283e-05 -0.00037148734527 -8.3511286018e-06 0.0001790388086 0.00016025809847 0.00018330046477 -7.2770505929e-05 
-0.00013545230792 7.5978099518e-05 0.00016199491569 2.4607164805e-05 -0.00014458950636 -0.00012573089815 -0.00040702517187 -0.0004344523713 -0.00079050305592 
0.00018022701011 -5.911857263e-05 7.7893040501e-05 3.7164351081e-05 0.000248395759 -8.3223989027e-05 0.00010700068706 -0.00033192968965 2.4639075469e-05 
-0.00010488349758 2.5536823837e-05 -1.757381278e-06 -0.00017073436594 0.00024579455545 -0.00035349700096 5.8247157757e-05 -0.00011955041968 0.00019392388615 
0.00025081975875 0.00012594740031 -9.3865114275e-05 0.00023946552555 -0.00060426682619 0.00052561581134 -0.00020717664975 0.0003332538609 -9.7043476838e-05 
8.176551765e-05 -0.00028664799707 -0.00050496127225 1.451113313e-05 -8.7693532543e-05 -5.7526640986e-05 6.2769898127e-05 0.00020944702027 6.6549151913e-05 
-4.0739161901e-06 0.00036102018506 -0.00024847796189 0.00024771069556 -0.00017089708725 -0.00020345043669 -5.5722484301e-05 -2.2358931632e-05 -0.00012394783482 
-3.0999028785e-05 -0.00020544420417 3.6691520816e-06 -8.5785660609e-05 -0.00027720131939 0.00014929629053 3.7950005858e-05 -9.9334141426e-05 5.5981851817e-05 
-2.0237089056e-05 1.9838469296e-05 -9.1688891468e-05 -7.5113042697e-05 -2.1027722954e-05 -6.6312391593e-05 0.00023665936487 -0.00014747975326 -8.1952000066e-05 
-0.00011370897097 -0.00010170019875 6.7308594219e-06 -0.00028585251851 -0.00011183029724 -0.00057633609159 -0.0001213173771 9.5186775025e-06 8.754674412e-05 
-0.00028278657292 0.00010452882347 5.7851171323e-05 -4.5371226351e-05 -4.9883493302e-06 4.7853132726e-05 -1.1083048047e-05 7.1078643152e-05 1.5672543277e-05 
-0.00029652558133 -3.9167092519e-05 -2.3757520379e-05 0.00015619450466 0.00019383833364 0.00018685591622 -1.5540259339e-05 2.0269897968e-05 -0.00010601673687 
-3.26570579e-05 -0.00014234667622 2.2123908162e-05 8.1099872198e-05 1.5645064691e-05 -2.0730523369e-06 0.00012501317193 -0.00015339416149 1.600424104e-05 
0.00013141206297 4.5516280039e-05 -5.2037948505e-05 -1.6228225736e-06 3.0753616495e-05 -3.3434279337e-05 -7.0394003379e-05 3.2196225128e-05 -1.3222008149e-05 
1.6292066399e-05 1.2817574335e-05 1.550433719e-05 4.7930695639e-05 1.7553116756e-05 -4.488571144e-05 -2.950442452e-06 -1.9730587131e-05 1.5094372914e-05 
2.0954153742e-05 -9.5250365181e-05 -8.2104233077e-05 8.3141605819e-05 2.1459507316e-05 -4.7571440541e-05 3.9703549647e-05 -4.2141641065e-05 -1.9053528185e-05 
3.5683427498e-06 -1.2100921214e-06 1.0394299082e-05 -9.7378093936e-05 2.8147566993e-05 3.2856498855e-05 3.8229292917e-05 7.347472066e-05 3.9997973832e-05 
1.6590551692e-05 1.9224192398e-06 0.0001513443062 -0.00011496435337 4.4548696009e-05 8.2949429506e-05 2.2165443787e-06 1.9276387246e-05 -1.0605704338e-05 
1.6036310913e-05 8.1798985549e-06 1.3270007289e-05 -1.0682883643e-05 -3.1224835224e-05 -3.2776992809e-06 -0.00014033843349 -1.5846260156e-05 6.3131989206e-06 
-1.0642368092e-05 -2.8757995297e-05 6.5796946086e-05 -1.1776386398e-05 -1.4730785673e-05 -1.5927569316e-05 -9.1261476497e-05 -0.00014559022173 4.6508566374e-05 
-4.6490362733e-05 2.0115357165e-05 2.2185500443e-05 7.6932208205e-06 -4.2115772357e-06 1.9462944243e-05 2.9025806229e-05 -1.1064769197e-06 -2.4065229083e-05 
-2.5519253539e-05 -3.9472906108e-05 5.5773276657e-06 -6.7270943088e-05 -1.055994583e-05 -1.3308224466e-05 -2.0270547145e-06 -2.9416728088e-05 -1.6861435839e-05 
3.6792370484e-05 -1.7710340788e-05 1.5814542063e-05 
radius 1 70 double
0.005 0.005 0.005 0.005 0.005 0.005 0.005 0.005 0.005 
0.005 0.005 0.005 0.005 0.005 0.005 0.005 0.005 0.005 
0.005 0.005 0.005 0.005 0.005 0.005 0.005 0.005 0.005 
0.005 0.005 0.005 0.005 0.005 0.005 0.005 0.005 0.005 
0.005 0.005 0.005 0.005 0.005 0.005 0.005 0.005 0.005 
0.005 0.005 0.005 0.005 0.005 0.005 0.005 0.005 0.005 
0.005 0.005 0.005 0.005 0.005 0.005 0.005 0.005 0.005 
0.005 0.005 0.005 0.005 0.005 0.005 0.005 
omega 3 70 double
-8.4772514178e-05 3.2469898058e-05 -2.4231142714e-05 6.5439921706e-05 -3.2178722079e-05 -4.2382505505e-05 2.6631955566e-05 -2.8751605584e-05 2.0309654392e-05 
-1.1061922854e-05 0.00034033422362 -0.00018707425239 7.8860721824e-05 -0.00016199964363 7.4071044588e-07 -5.1836888863e-05 -9.5668564165e-06 -2.1960740077e-05 
-3.9937801946e-05 -1.6241887692e-05 0.00010298856367 3.60814815e-05 -0.00016106618241 0.00019272605234 -0.00035131845869 0.00076770836934 0.00053670275369 
-0.00011477166447 0.0002522980089 0.00016545926499 -4.1515425425e-05 -1.8990847527e-05 0.00017975089742 0.00063972165583 0.0001173949312 -0.00024595666718 
-0.00010128692311 9.9520989454e-05 -4.6533789744e-05 -0.00016689557595 -0.00010932128229 -0.00031942696616 0.00037192468204 0.0001518376626 0.00038384945844 
3.861123425e-05 5.4193674847e-05 8.701971993e-05 3.1611861276e-05 0.00067431706683 -4.6311696982e-05 -1.4591653193e-05 -5.0574249751e-05 0.00012125593048 
0.00039490556676 -0.00029431689742 8.2920051539e-05 5.2834412568e-05 -0.00010069553466 2.0993250021e-05 -2.3821765111e-05 -3.7659547842e-05 0.00063273263865 
8.9623713348e-06 4.04126934e-05 7.263929386e-05 0.00012449796179 -5.7002762464e-05 0.00013471110799 -9.4114777193e-05 -4.7929286718e-05 -7.3537221312e-05 
1.3950166461e-06 -6.3778323126e-05 2.1682619985e-05 0.00019487177987 -4.0378263274e-05 -0.00010914973446 1.6782975548e-05 9.7741070195e-05 -5.1050391672e-05 
2.8583038697e-05 -5.9953618264e-05 -1.5507482244e-05 1.1858406548e-05 1.9293359547e-05 9.2786556914e-06 5.3770770434e-06 -5.0615774797e-05 -0.0001364143304 
3.3890919505e-05 -2.8401510905e-05 3.350357883e-05 7.2349219103e-05 -2.6185525539e-05 3.5385892729e-05 0.00020284846281 0.00036433090739 -0.00058129631062 
0.00020156736991 -0.00012359929088 -0.00020603105375 -4.0596532835e-05 4.2941906865e-05 -2.4620315532e-05 -4.7045874321e-05 1.9898845508e-05 8.5836054403e-05 
-6.5918558457e-05 -1.4666662506e-05 -2.8612206956e-05 1.4574360484e-05 -8.8700832334e-06 -3.2856271548e-05 -1.5465738294e-05 5.061146342e-05 -1.2973863351e-05 
-2.286117152e-05 -1.2131897346e-05 -4.7827501029e-05 8.9972758528e-07 -4.0590996568e-05 -1.7204933095e-05 0.00012966549492 0.0001000815051 -5.5552237431e-05 
5.6348790332e-05 2.2076711802e-05 -9.1255514533e-05 6.9419641582e-06 7.2998912633e-06 1.6015623671e-05 -4.0450087928e-05 7.2798573353e-05 7.9748310393e-05 
-2.8862256594e-05 0.00013206052543 2.057611476e-05 2.8705810442e-05 -6.4568115949e-05 2.3665092928e-05 2.0008362585e-05 4.9631850753e-05 -1.5830695696e-05 
-3.5411439578e-05 -0.00013920027215 -5.6766900168e-05 8.0945637128e-05 -0.0001021916896 -0.00013090857038 1.0222886534e-05 0.00013440860599 -4.8696408731e-05 
-2.9926109942e-05 2.9890226517e-05 -1.9884146799e-05 6.6137358369e-05 7.919128954e-05 -4.9577530922e-05 5.0374776409e-05 9.5526137513e-06 -8.8865848666e-05 
-0.00013705407006 0.0001372762126 -7.8313235291e-06 -7.9956294311e-05 -0.00027212557677 -0.0002779250925 -1.3466296578e-05 -5.4742100786e-05 -2.4838726711e-05 
-1.6611859241e-05 8.0889276865e-06 2.8785960393e-05 -4.3338696664e-05 2.978768289e-05 -1.1882492544e-05 -5.4693382038e-05 0.00011420831801 -0.00012633713697 
-4.3064481022e-05 1.281450963e-05 3.8976066525e-05 3.2794942754e-05 1.7055002609e-05 -2.6417030712e-05 4.8093865705e-05 -0.0001792256836 -5.9018714228e-05 
1.9559309596e-05 4.691492224e-05 1.1643022957e-06 2.2230713816e-05 5.9002232013e-05 3.1415656886e-06 -2.3389790919e-06 7.6007049497e-05 -1.4963432327e-05 
-5.4460441049e-05 9.1119612615e-06 -7.9413513767e-06 -1.1920213706e-05 -1.2490725013e-05 -3.5402646209e-05 2.0872892611e-05 -0.00017841956256 -0.00010948027795 
-6.3734885909e-06 3.3847056317e-05 2.7817411626e-05 
