# vtk DataFile Version 4.2
Generated by LIGGGHTS
ASCII
DATASET POLYDATA
POINTS 70 float
0.0114581 -0.0368894 0.00699838 -0.0237986 -0.0238458 0.00699828 -0.00516478 -0.0202765 0.00953845 
0.0278628 -0.0211398 0.0135785 0.0230261 -0.0153722 0.00699752 -0.0253441 -0.00911908 0.0113724 
-0.0187622 -0.00161635 0.0107676 -0.00540934 -0.00082461 0.0069993 0.0045111 -0.00742059 0.00934088 
0.0159819 -0.000463851 0.0109253 0.0119743 0.00781084 0.0069976 0.0247776 0.00517861 0.00975104 
-0.0327818 0.0126216 0.00699878 -0.0248283 0.0178785 0.0100133 -0.000589488 0.0181855 0.0102347 
0.00562292 0.011265 0.0139045 -0.0125072 0.0218876 0.00749382 0.00288389 0.0293428 0.00699795 
0.0229398 0.0220761 0.0070533 -0.000836415 -0.0222524 0.0217332 0.0205449 -0.00875754 0.0144138 
-0.00820969 0.00387825 0.0164056 -0.0114136 0.0133337 0.0169576 0.0101142 0.0160929 0.0215669 
0.0225476 0.010684 0.0232497 0.0057422 0.0299437 0.0204631 -0.0141535 -0.0327213 0.0297117 
-0.000932095 -0.0397253 0.0283781 -0.00426073 -0.0305304 0.0304676 -0.0203286 -0.0203268 0.0274441 
-0.00721645 -0.018164 0.0282577 0.00504079 -0.0176016 0.0283518 0.019833 -0.0173874 0.0279802 
0.0294059 -0.0112395 0.0311967 -0.00674141 -0.00769605 0.0261014 0.0291985 -0.00143261 0.0292522 
-0.0127277 0.00477301 0.0347275 -0.00474817 0.00179301 0.0286245 0.0109787 0.0038892 0.0330456 
-0.012138 0.0145033 0.032501 0.0040476 0.0289293 0.0322747 0.0115002 0.0244725 0.0273158 
0.0295522 0.021592 0.0316808 0.00282281 -0.0325029 0.0374722 -0.0125618 -0.0252659 0.0410811 
0.0107596 -0.0251496 0.041906 -0.0216844 -0.0136966 0.0449292 0.00295226 -0.0199709 0.0378388 
0.0380504 -0.0114132 0.036744 -0.0161152 -0.00371844 0.0393055 -0.000240087 -0.00253142 0.0366106 
0.0163072 -0.000789572 0.0443757 0.0206867 -0.00931641 0.0414084 -0.0315248 0.00143338 0.0398353 
-0.0193531 0.0218709 0.0395089 -0.006833 0.0267618 0.0404402 0.0116872 0.0258019 0.0379173 
-0.0090512 -0.0234547 0.0502674 0.020305 -0.0299045 0.0510236 -0.0336379 -0.0136575 0.0531292 
0.0289081 -0.0133596 0.0475458 -0.0282449 -0.001882 0.0510298 -0.00557575 -0.00708143 0.0460092 
-0.0208779 0.00686567 0.0466713 -0.0126155 0.00283972 0.0506102 -0.0020702 0.00309101 0.0460998 
0.00615957 0.000137386 0.051779 0.0273787 0.00968743 0.0508261 -0.00966207 0.0205185 0.0524101 
4.5663e-05 0.0204071 0.0471149 
VERTICES 70 140
1 0 
1 1 
1 2 
1 3 
1 4 
1 5 
1 6 
1 7 
1 8 
1 9 
1 10 
1 11 
1 12 
1 13 
1 14 
1 15 
1 16 
1 17 
1 18 
1 19 
1 20 
1 21 
1 22 
1 23 
1 24 
1 25 
1 26 
1 27 
1 28 
1 29 
1 30 
1 31 
1 32 
1 33 
1 34 
1 35 
1 36 
1 37 
1 38 
1 39 
1 40 
1 41 
1 42 
1 43 
1 44 
1 45 
1 46 
1 47 
1 48 
1 49 
1 50 
1 51 
1 52 
1 53 
1 54 
1 55 
1 56 
1 57 
1 58 
1 59 
1 60 
1 61 
1 62 
1 63 
1 64 
1 65 
1 66 
1 67 
1 68 
1 69 

POINT_DATA 70
FIELD FieldData 7
id 1 70 int
44 732 1464 837 912 1986 1606 936 895 
1371 663 720 467 208 1438 1782 385 1157 
595 2267 398 2166 1751 2117 2149 1929 2782 
2509 2454 2873 2996 2710 2790 3102 2640 2566 
3057 2252 3510 3206 3209 3228 3475 3932 4179 
4006 4181 3841 3364 4052 3265 4362 4280 3857 
3770 3909 3724 5377 4989 4708 4482 5353 5397 
4796 5509 5103 5420 5050 5402 4610 
type 1 70 int
2 2 2 2 2 2 2 2 2 
2 2 2 2 2 2 2 2 2 
2 2 2 2 2 2 2 2 2 
2 2 2 2 2 2 2 2 2 
2 2 2 2 2 2 2 2 2 
2 2 2 2 2 2 2 2 2 
2 2 2 2 2 2 2 2 2 
2 2 2 2 2 2 2 
i 3 70 int
0 0 0 0 0 0 0 0 0 
0 0 0 0 0 0 0 0 0 
0 0 0 0 0 0 0 0 0 
0 0 0 0 0 0 0 0 0 
0 0 0 0 0 0 0 0 0 
0 0 0 0 0 0 0 0 0 
0 0 0 0 0 0 0 0 0 
0 0 0 0 0 0 0 0 0 
0 0 0 0 0 0 0 0 0 
0 0 0 0 0 0 0 0 0 
0 0 0 0 0 0 0 0 0 
0 0 0 0 0 0 0 0 0 
0 0 0 0 0 0 0 0 0 
0 0 0 0 0 0 0 0 0 
0 0 0 0 0 0 0 0 0 
0 0 0 0 0 0 0 0 0 
0 0 0 0 0 0 0 0 0 
0 0 0 0 0 0 0 0 0 
0 0 0 0 0 0 0 0 0 
0 0 0 0 0 0 0 0 0 
0 0 0 0 0 0 0 0 0 
0 0 0 0 0 0 0 0 0 
0 0 0 0 0 0 0 0 0 
0 0 0 
v 3 70 double
4.6546465921e-07 5.0420614824e-09 -7.4679224561e-08 -2.0428994534e-07 -1.0708973044e-07 6.6248528071e-08 -9.0968993576e-08 -8.5486917781e-08 -9.6572935084e-08 
2.7225633349e-07 -1.8451580009e-07 -5.6331799769e-07 -8.6734361738e-07 1.4565383693e-07 2.9564134543e-07 -1.5754266526e-08 2.7806433694e-08 1.5296779495e-07 
-8.7724705271e-10 -1.7497236912e-08 -1.0633666299e-07 2.4214630949e-07 2.4270798042e-07 5.9749944224e-07 8.721414848e-07 1.1876651148e-06 -8.0601015289e-07 
4.7010177922e-07 -3.1215454888e-07 -3.0228696718e-08 -7.7376991466e-08 1.5119486703e-07 -1.015219025e-07 -5.4768863677e-07 2.5875874493e-07 -1.032764067e-06 
-3.9495328829e-07 -1.8748766281e-07 1.2751012941e-07 -1.323230154e-06 -6.294616824e-07 -4.426272457e-07 7.0790967961e-07 2.9212193987e-07 5.2701756276e-07 
3.5873741213e-07 1.1632736433e-07 -1.7667980573e-07 -3.5063586001e-07 1.1281853581e-06 -2.0153203654e-07 -9.3764102721e-07 2.3715752469e-07 3.2376294533e-07 
6.7920013282e-07 1.0961183586e-06 7.9120351258e-08 2.1047706623e-08 3.3365136812e-08 1.0781980003e-07 -1.4202052244e-07 -4.8572815676e-07 1.7997369316e-07 
1.9491323914e-07 -9.4780576815e-08 -1.9343064226e-08 6.4334472779e-08 -5.4098542921e-07 -1.3701263298e-07 -1.8954102889e-07 8.7814489455e-08 -2.2401178969e-09 
2.974863795e-07 -2.2689087695e-07 -1.2973995252e-07 2.429908516e-07 1.0502021402e-07 -7.5670763826e-07 1.3650370838e-07 -1.2500879629e-08 4.1318145992e-08 
4.6532505462e-08 9.3990181894e-09 -1.4261091426e-07 6.9731733146e-08 9.4419678068e-09 -6.8354881619e-08 1.4696364577e-07 -4.8226864597e-08 2.0800166162e-07 
-1.0079804119e-08 -7.6183679925e-08 4.4352531966e-08 4.0431637875e-07 6.2655123894e-07 3.3450660003e-07 5.385280028e-07 -8.9210916254e-07 3.0857211901e-07 
5.0781444307e-08 1.664225032e-06 -5.0994132584e-07 -8.359788391e-08 -4.2152986426e-08 -2.6065598542e-07 1.6135629603e-08 4.028626698e-07 2.2297113194e-07 
-3.3490396982e-08 1.9606334126e-07 2.0987717896e-07 -2.1329861818e-07 2.2745303551e-07 2.6754502516e-07 4.9699317564e-08 -5.970852585e-08 -1.6406550027e-08 
-1.8492926608e-07 -1.107601816e-07 -1.3226055684e-07 7.4504867531e-08 2.5432537021e-07 4.5647825409e-08 2.9038733142e-07 2.0040225019e-07 2.9023389895e-07 
-4.1019461625e-08 -7.3056354223e-08 1.549700292e-07 1.4201254451e-07 -9.1869512769e-09 -1.3469518604e-07 -1.5485725368e-07 -2.1720008714e-07 -1.6167453292e-07 
1.3970176299e-07 -5.1416502926e-08 1.5989665992e-07 1.9826787492e-08 9.3756602513e-08 -1.0891975772e-08 1.1230750693e-07 2.8208414419e-08 -2.9939600989e-08 
-3.6325099319e-08 -4.4346166669e-07 -1.7974552224e-07 -3.8281709567e-07 -5.817839851e-08 1.2440003415e-07 -1.6465470996e-07 1.156944859e-07 1.8930482739e-07 
-7.761387363e-08 7.737621809e-08 2.5418211728e-07 8.6065132748e-08 2.1997653117e-07 3.5147646678e-07 -2.9307991734e-07 7.9465764793e-08 -3.1584805552e-07 
7.3224291998e-07 -9.4903124603e-08 6.777725447e-07 9.6111460238e-08 1.3879649563e-07 3.5928298675e-08 1.338807284e-08 2.1223566832e-07 9.3525378223e-08 
-7.1468452071e-09 1.0521611874e-07 -2.200872125e-08 1.8562290608e-07 1.0440875821e-09 8.8411415029e-08 -3.8049264057e-08 -1.4427166716e-07 -4.0545906678e-08 
-6.1384154813e-08 -2.1591922628e-07 1.6498008489e-07 8.0106518738e-08 -4.8800407231e-08 1.5503132854e-07 1.9170494031e-07 1.6786622911e-07 -2.6007154765e-07 
4.1194045095e-08 7.950718755e-08 -2.9112521923e-08 -9.3682824665e-08 -7.6211992348e-08 1.9896660777e-07 -3.0489592614e-07 2.850252682e-08 -3.2851312499e-09 
-1.3429690738e-07 1.3199294037e-07 1.9646728505e-07 -7.0370164617e-08 5.9217138165e-08 1.6213071191e-07 -1.3635197252e-07 9.3084221591e-08 -2.9837708665e-07 
-2.5342112486e-07 2.841321135e-08 4.6582065006e-08 
f 3 70 double
-5.7721437936e-05 3.013777635e-05 0.0001249356432 0.00035208656619 0.00026459638153 0.00027461951901 7.4542446268e-05 -0.00017776789403 -0.00035907182145 
-0.00034569870693 0.00015588653369 -6.1181854519e-05 -0.00021451365704 -4.1470787157e-05 0.00026579834247 0.0001710903952 0.00018563543813 -7.6942044257e-05 
-0.00013331222064 8.1605051781e-05 0.00015632440118 4.1113975986e-05 -0.00018815876391 -0.00034295418764 -0.00034505115419 -0.0003156764713 -0.00064009453878 
0.00027282608275 -3.7385530967e-05 0.00011082421016 2.0225248263e-05 0.00022218809038 -5.8904248075e-05 0.00011630484481 -0.00035670869447 0.0002009919338 
-8.551216137e-05 9.4936916349e-06 1.4511897599e-06 -0.00018004465366 0.0002418095347 -0.00034803508191 -9.5923098486e-05 7.1025869245e-05 0.0001763377561 
0.00019605435718 0.00012018181383 -0.0001714227162 0.00023500972363 -0.00051765258361 0.00048904256803 0.00033911302817 4.7471282527e-05 -7.1804153822e-05 
-8.0671840917e-05 -0.00017262231286 -0.00033716585578 3.2231688992e-05 -5.8134183577e-05 -4.6387943402e-05 -2.5614903417e-05 9.2731776974e-05 6.144378625e-05 
7.8510436857e-06 0.00034444627322 -0.00027902213217 0.00031708239859 -0.00032990577022 -0.00024844744901 -0.00010826622321 -4.6140586801e-06 -0.0001230973963 
-6.7772212502e-05 -0.00022271347052 7.9318367832e-06 -0.00012966611996 -0.00022040333262 6.0878423235e-05 2.4073933768e-05 -0.00010029414873 5.6883701895e-05 
-3.8311157098e-05 1.3131456838e-05 -9.3916988261e-05 -6.0718515666e-05 -6.0889618359e-06 -6.1977726455e-05 0.00020516987595 -0.00010082027877 1.9978145541e-05 
-0.00010662831501 -0.00011186786612 -3.4262992087e-06 -0.0001905986672 -9.7572829134e-05 -0.00028091550906 -1.2733076388e-05 0.00021369366094 9.8419623419e-05 
-4.4217078729e-06 -8.8772935803e-06 -0.00012990625725 -1.2910305439e-05 -4.9094867308e-05 5.1968566619e-05 -3.6503556727e-05 6.6526799983e-05 2.682384433e-05 
-0.00028456957386 -6.2663113143e-05 -3.8122434516e-05 0.00016475474697 0.00021917939363 0.00018618150482 -4.8216986987e-05 1.472821113e-07 -0.00014056542459 
-6.2241625794e-05 -0.00010188361279 0.00012863002394 8.4821702313e-05 1.9355124005e-05 -1.5294845351e-06 -4.6795015409e-05 5.7380076969e-05 -2.0725977669e-05 
0.00016729351387 1.270659519e-05 -8.5652791721e-05 -5.8982584986e-06 1.7098082682e-05 -2.6656959645e-05 -4.6982616108e-05 4.6440663998e-05 -4.7325378803e-06 
-3.6611186065e-05 5.8402597952e-05 -7.7252828319e-06 4.6265845459e-05 2.8101876124e-05 -5.0078380985e-05 1.1787975491e-06 -7.2817586834e-06 2.7415147136e-05 
7.7149645003e-06 -6.0900085596e-05 -8.9987150132e-05 7.0814413008e-05 1.5081798229e-05 -4.8600637516e-05 -8.3280873339e-06 5.5396788972e-05 -4.2732316831e-05 
4.6713161814e-06 1.9130497038e-05 4.222176028e-06 -9.5587461657e-05 6.0811435657e-05 -3.2705733705e-05 -6.2371648416e-06 0.00011296651938 1.518867942e-05 
-6.1407919078e-05 -1.5056100239e-05 0.00020277674524 1.9243272606e-05 2.8729337383e-06 9.7712264811e-05 -3.0502430065e-05 2.1989855367e-05 -2.5902412107e-06 
8.333881454e-06 -4.1932297948e-06 4.4195013584e-06 -4.7186383075e-06 -2.5176981132e-05 -2.0212106818e-06 7.7115572184e-05 6.4694864808e-07 6.1431752414e-06 
-7.9562098955e-07 -1.8047295115e-05 5.2290026028e-05 -1.8959662332e-05 3.1049599582e-07 -3.8579310951e-07 -7.1929063783e-05 -0.00013111585368 3.885691434e-05 
-8.1307700047e-05 4.1157154811e-05 3.858271355e-05 4.2897762985e-06 5.5849300273e-06 1.7769524948e-05 6.3059177389e-05 -1.1428186449e-05 8.4489134888e-06 
-1.5925552834e-05 -2.315640717e-05 1.00076393e-05 -6.5272795549e-05 -1.2581732888e-06 -1.4933138817e-05 -6.6542031862e-05 -9.4558021814e-06 -2.2381779099e-05 
1.6524953103e-05 8.7326284184e-06 1.6107287599e-06 
radius 1 70 double
0.005 0.005 0.005 0.005 0.005 0.005 0.005 0.005 0.005 
0.005 0.005 0.005 0.005 0.005 0.005 0.005 0.005 0.005 
0.005 0.005 0.005 0.005 0.005 0.005 0.005 0.005 0.005 
0.005 0.005 0.005 0.005 0.005 0.005 0.005 0.005 0.005 
0.005 0.005 0.005 0.005 0.005 0.005 0.005 0.005 0.005 
0.005 0.005 0.005 0.005 0.005 0.005 0.005 0.005 0.005 
0.005 0.005 0.005 0.005 0.005 0.005 0.005 0.005 0.005 
0.005 0.005 0.005 0.005 0.005 0.005 0.005 
omega 3 70 double
3.7708714841e-05 1.9345018751e-05 -1.1702243163e-05 7.0808006137e-06 6.769488498e-06 2.3083605686e-05 -4.5564888079e-05 -1.5932284486e-05 -4.8106190467e-06 
0.00013405880383 -0.00060198655352 0.00013474685492 2.5136391142e-05 0.00021817143708 0.00020042165012 -4.2397738525e-05 8.062636864e-06 2.6457953743e-05 
-1.535690279e-05 9.6984737299e-06 4.4359795858e-05 5.1532261812e-05 1.4634734029e-06 -9.5921863251e-05 -0.0006674891718 0.0011309311202 0.00030066961162 
-5.250959352e-05 0.00037746489689 0.00020701517694 -1.4926797176e-05 3.4843514932e-05 0.00015581668738 0.00043624399145 0.0001550867487 -0.00026379608041 
-0.00013407247276 0.00011320017554 0.00012291546431 -0.0004497353882 -0.00021381275163 -1.7110918024e-05 -0.00044053608124 -0.00055669073679 -0.00027598134442 
1.1923648757e-05 -3.9438611828e-05 -1.2285352108e-05 -6.1794249691e-05 0.00048883853507 -0.00010904842646 7.7271254102e-05 0.00020546542177 0.00081451409911 
0.0001278422358 -0.00020906009254 -5.5739505461e-05 -8.6243949972e-06 -5.4149664121e-05 5.0935207228e-06 0.00015548084974 0.00021447241771 0.00070871907227 
0.00013469832658 -2.570063129e-05 -0.00012456051044 -0.00021896216298 -0.00021434032216 -0.00031436346281 7.1147216861e-05 6.6682064035e-05 0.00011232334369 
3.0343768888e-05 2.0496755213e-05 -4.355453807e-05 7.7303816639e-05 2.7726524747e-05 3.6610050762e-05 4.5779109056e-06 6.3422127416e-05 -5.1500417345e-05 
-2.9310460858e-06 5.193373228e-05 -5.7764140434e-06 -3.829140791e-06 -3.2487558159e-05 -1.6223925864e-05 -4.7454577858e-05 -0.00031641216348 -3.4759546312e-05 
-5.3952270346e-06 -4.6278897746e-05 -3.5730928163e-05 0.00010266100426 -0.00028526711374 0.00015071395215 -0.00015661957181 -0.00025100300578 -2.0970095429e-05 
0.00059845741225 -0.00036979310894 -0.00024761323815 -6.5077440589e-05 2.7512346674e-05 -8.0831307708e-05 -4.2135726558e-05 6.6105137623e-05 4.3627484872e-06 
7.669652184e-05 -3.8305726453e-05 5.1156546177e-05 -4.4934558964e-06 2.0824775971e-05 -6.4095397531e-06 -4.7714485069e-07 3.3591837219e-05 2.0845711912e-05 
-0.00012201398603 1.2110524235e-05 6.1009084666e-05 4.0650359791e-06 -4.9092702829e-05 1.2902137279e-05 4.2481512754e-05 1.8176437098e-05 4.4802446053e-05 
5.4419863679e-05 2.5749580168e-05 5.8739948097e-06 2.2286455185e-05 -5.4624364268e-05 1.6249891253e-06 -3.5089322962e-05 1.3642642705e-06 0.00010854750291 
9.6544585313e-05 -7.1390118872e-05 -2.8963207204e-05 -3.8545741634e-05 -2.5624574987e-05 -1.1927583619e-05 1.7041057758e-05 -1.2221075912e-05 3.0872913281e-05 
0.00021312230787 9.7485388633e-05 1.3203364778e-05 4.0883854912e-05 -7.382841301e-05 -0.00016798618843 5.5231195683e-05 9.4654407068e-05 -3.6700978665e-05 
3.9212071003e-06 -1.5343088671e-05 -1.7863118765e-05 6.9514696346e-05 -7.3070715143e-05 4.6214901206e-06 0.0001191146365 3.0841378612e-05 -7.7273410863e-05 
7.30474541e-05 -2.9804144128e-05 -8.6699548848e-05 3.0216991369e-05 4.2679359472e-05 4.8294306597e-05 -9.2586089643e-05 2.8826923338e-05 5.7743583983e-05 
-5.8246753154e-05 -1.9351878634e-05 2.9472964536e-05 3.0967392451e-05 -3.7696404848e-05 -2.4087734556e-06 -7.3377309573e-05 1.7063796881e-05 -0.00011457237205 
-2.4812361227e-05 2.5926613209e-05 1.0812786984e-05 9.5858727225e-06 -5.2222061073e-05 3.3268871679e-05 9.913900438e-05 -0.00013471092677 -8.1707789759e-05 
-2.2355770002e-05 -4.2760913721e-05 -4.0442323751e-05 2.7462891381e-05 2.0766321689e-05 -2.0404092669e-07 -1.9330597773e-05 0.00011040273005 -2.4088105075e-05 
1.284319549e-06 -3.0220818147e-05 -2.8479026517e-05 3.2440752347e-05 1.2499768226e-05 9.8792799382e-06 2.0159830448e-05 9.0318771018e-05 -1.1621335429e-05 
2.1517644344e-05 3.2710638735e-06 -7.8709557987e-06 
