# vtk DataFile Version 4.2
Generated by LIGGGHTS
ASCII
DATASET POLYDATA
POINTS 70 float
-0.00741696 -0.0187148 0.00853348 0.00503498 -0.021049 0.00962532 -0.0150059 -0.0102016 0.00727522 
-0.0148676 -0.0140709 0.0119322 -0.000425761 -0.0135285 0.00749503 -0.0216229 -0.000267509 0.0114954 
-0.0105466 -0.00415094 0.00797867 -0.0172319 0.00368885 0.0102329 -0.00975307 0.00220884 0.00849573 
0.00912878 0.00561792 0.0106208 -0.0199181 0.00895671 0.0119117 -0.00427874 0.0166149 0.0117854 
0.00353914 0.014123 0.00996423 0.0159197 0.0111455 0.0101268 5.92414e-05 0.0210812 0.0111793 
0.00993361 0.0173374 0.0111018 -0.0016464 -0.0177626 0.0153724 -0.000273345 -0.0218724 0.019792 
0.0055058 -0.0184342 0.0150333 -0.0194772 -0.00903853 0.0145873 -0.0139483 -0.0122638 0.0196289 
-0.00742036 -0.0106203 0.0123171 0.000952526 -0.0104369 0.0160497 0.0121892 -0.0117977 0.0137679 
0.0179599 -0.0102628 0.0197489 -0.019631 -0.00333318 0.0189653 -0.0121877 -0.00170288 0.0167543 
-0.00259982 -0.00404179 0.013435 -0.0115057 0.00701438 0.0145033 0.000463361 0.00531601 0.0130367 
0.015315 0.00100536 0.0171508 0.0207838 0.00676548 0.0151108 -0.00680435 0.0124261 0.0177641 
0.003987 0.0101663 0.0181849 0.014013 0.0129292 0.0184221 0.00515216 0.0212976 0.0170316 
0.00240245 -0.0185478 0.0245687 0.00868153 -0.0182652 0.0270958 9.59618e-05 -0.0108177 0.0242111 
0.00727302 -0.0127681 0.0242928 0.0108943 -0.0165825 0.0204043 -0.0175354 -0.00594956 0.0239614 
-0.00833203 -0.00731032 0.0213047 -0.00467326 -0.000315624 0.0273635 0.00527951 -0.00510254 0.0213745 
0.0148222 -0.00564706 0.0257073 -0.0199392 0.00208212 0.0261062 -0.0147784 0.0064933 0.0219548 
-0.0109594 0.00103281 0.0267711 -0.00185314 0.00471284 0.0239323 0.00861299 0.00325053 0.0208406 
0.0137544 0.0073093 0.0266604 0.0216858 0.00308566 0.0257723 -0.00331417 0.0120987 0.0286721 
0.00641799 0.0164737 0.0230942 0.00610265 0.00913811 0.0260301 0.0175071 0.0132849 0.0241691 
-0.00812458 0.0203882 0.0241997 0.00123065 0.0185898 0.0208433 0.000163628 0.0218597 0.0280426 
0.0104301 -0.00176662 0.0312669 0.0212895 -0.00474963 0.0332591 -0.00203275 0.00717392 0.0330768 
0.00367661 0.00139422 0.0297067 -0.0170751 0.013336 0.0308739 -0.0116816 0.00854978 0.0296352 
0.0116799 0.0137527 0.030993 0.0185917 0.00951668 0.0323735 -0.00715461 0.0182466 0.033737 
0.0131387 0.0106655 0.0383308 
VERTICES 70 140
1 0 
1 1 
1 2 
1 3 
1 4 
1 5 
1 6 
1 7 
1 8 
1 9 
1 10 
1 11 
1 12 
1 13 
1 14 
1 15 
1 16 
1 17 
1 18 
1 19 
1 20 
1 21 
1 22 
1 23 
1 24 
1 25 
1 26 
1 27 
1 28 
1 29 
1 30 
1 31 
1 32 
1 33 
1 34 
1 35 
1 36 
1 37 
1 38 
1 39 
1 40 
1 41 
1 42 
1 43 
1 44 
1 45 
1 46 
1 47 
1 48 
1 49 
1 50 
1 51 
1 52 
1 53 
1 54 
1 55 
1 56 
1 57 
1 58 
1 59 
1 60 
1 61 
1 62 
1 63 
1 64 
1 65 
1 66 
1 67 
1 68 
1 69 

POINT_DATA 70
FIELD FieldData 7
id 1 70 int
2526 4507 3387 3295 3015 5432 3250 4394 3867 
44 5455 209 468 1943 2889 4735 5547 1999 
5417 2813 901 398 5080 1477 3500 3793 3959 
385 724 3076 1796 4318 596 5141 2726 3117 
2469 4085 1166 5438 3755 2182 3532 5024 5388 
4635 2801 1617 942 1762 914 3936 4213 3230 
736 2163 2282 3233 4210 4832 4035 1380 3884 
842 665 2582 2268 2654 1446 2132 
type 1 70 int
2 2 2 2 2 2 2 2 2 
2 2 2 2 2 2 2 2 2 
2 2 2 2 2 2 2 2 2 
2 2 2 2 2 2 2 2 2 
2 2 2 2 2 2 2 2 2 
2 2 2 2 2 2 2 2 2 
2 2 2 2 2 2 2 2 2 
2 2 2 2 2 2 2 
i 3 70 int
0 0 0 0 0 0 0 0 0 
0 0 0 0 0 0 0 0 0 
0 0 0 0 0 0 0 0 0 
0 0 0 0 0 0 0 0 0 
0 0 0 0 0 0 0 0 0 
0 0 0 0 0 0 0 0 0 
0 0 0 0 0 0 0 0 0 
0 0 0 0 0 0 0 0 0 
0 0 0 0 0 0 0 0 0 
0 0 0 0 0 0 0 0 0 
0 0 0 0 0 0 0 0 0 
0 0 0 0 0 0 0 0 0 
0 0 0 0 0 0 0 0 0 
0 0 0 0 0 0 0 0 0 
0 0 0 0 0 0 0 0 0 
0 0 0 0 0 0 0 0 0 
0 0 0 0 0 0 0 0 0 
0 0 0 0 0 0 0 0 0 
0 0 0 0 0 0 0 0 0 
0 0 0 0 0 0 0 0 0 
0 0 0 0 0 0 0 0 0 
0 0 0 0 0 0 0 0 0 
0 0 0 0 0 0 0 0 0 
0 0 0 
v 3 70 double
-0.00091086526839 0.01463870539 -0.44232567383 0.059853457453 0.01055677948 -0.43729999214 -0.0089768102776 0.043635065387 -0.43151031847 
-0.0044948425609 0.016777638855 -0.45765828224 0.038833160137 0.029823554603 -0.43261748862 0.0081227663135 0.066248089176 -0.44215378144 
0.013028166285 0.045009836585 -0.42439024541 0.016712976697 0.053823714017 -0.42616750331 0.014497403263 0.046497748899 -0.41218458362 
0.012640706552 0.023031525764 -0.38658337841 0.030274768965 0.062855657561 -0.41760835398 0.033984295777 0.015993619555 -0.38678821809 
0.014913863617 0.0053351070532 -0.38482897469 -0.004847501091 0.025725016268 -0.39200003067 0.031165523899 0.0088447532095 -0.37964000291 
0.0026081900332 0.0055441567106 -0.38362739531 0.025708516986 0.023200147299 -0.47024538949 0.028482633454 0.0046574106039 -0.47893822232 
0.052381400821 0.019217998557 -0.44492896289 -0.016024349492 0.034127544442 -0.45434380549 -0.0037065411317 0.023851573268 -0.46069502541 
0.0028428193588 0.027600564658 -0.44169850138 0.026530757278 0.023270167453 -0.4327438714 0.049765796598 0.038854763017 -0.41632889205 
0.036515783387 0.053764921419 -0.3871898554 -0.013397262199 0.05579799611 -0.45528500467 -8.4161340636e-06 0.035666982155 -0.42998195675 
0.01419921718 0.025813755112 -0.41346116833 0.018211025963 0.040694157979 -0.40795065629 0.015475837535 0.017922467657 -0.38873405734 
0.001553219651 0.040149033985 -0.37355357906 -0.0095700424642 0.030780220119 -0.36238616272 0.026705002751 0.029562293815 -0.37989533807 
0.018216515836 0.0088031096098 -0.36590399989 -0.005437682082 0.017573759173 -0.34690599149 0.014460117767 -0.002832203107 -0.3464045841 
0.039229507936 0.023367484397 -0.48417518287 0.048454218742 0.025878483989 -0.4525746446 0.02415206433 0.027991361456 -0.4479871066 
0.044770254185 0.029628112377 -0.43536211294 0.053908723935 0.037381644564 -0.43814665758 -0.01110226113 0.054741781313 -0.48523915242 
0.0015996610676 0.025262016652 -0.4395957995 0.014640393063 0.067915497815 -0.42362919568 0.014298385594 0.02630433519 -0.40683036881 
0.029172136591 0.037412806832 -0.37557989663 0.0019563314879 0.074442251072 -0.4352849391 0.020257154934 0.062279877042 -0.41546699931 
0.016660352387 0.074076224865 -0.42509425737 0.0028548162692 0.033958979183 -0.38747507791 0.0071984927461 0.020040635272 -0.36369076973 
0.00093259349835 0.018666614963 -0.31544004321 -0.010149039988 0.039792578927 -0.33532057843 0.020062444204 0.026188222067 -0.33263300585 
0.0090160844127 0.0085232653977 -0.33892897064 0.0049845183835 0.013735878353 -0.33754041249 -0.022559534991 0.029262445395 -0.33480075475 
0.049893035765 0.029591716424 -0.34335135376 0.010868001682 0.0039003600132 -0.34338945534 0.028008197072 0.00022671383668 -0.30818639039 
0.05249338771 0.086928333162 -0.37076750144 0.0082015605399 0.098151493345 -0.33147235307 0.035690044882 0.076526408428 -0.33438069224 
0.023686232356 0.062372395987 -0.35773258083 0.073860028805 0.075458364347 -0.37907581658 0.017839416689 0.065290439632 -0.38420943437 
-0.003763512908 0.033300784684 -0.30525933383 0.00065897082451 0.060780121544 -0.29456466336 0.058720548338 0.038139364706 -0.29534509873 
0.013615839277 0.12075687206 -0.23752189484 
f 3 70 double
0 0 -0.0098744152677 0 0 -0.0098744152677 0 0 -0.0098744152677 
0 0 -0.0098744152677 0 0 -0.0098744152677 -1.2764805103e-05 -1.5240399296e-06 -0.0098708030068 
0 0 -0.0098744152677 0 0 -0.0098744152677 0 0 -0.0098744152677 
-0.00020479493292 0.00089781277379 -0.010238128786 -1.7498646745e-05 -1.3004049804e-06 -0.0098618312248 -0.0017529392247 -0.00038319899265 -0.010210644058 
0 0 -0.0098744152677 0 0 -0.0098744152677 -9.5605050992e-05 -0.00026692196991 -0.0099254808684 
0.00044565620569 -0.00014576596753 -0.0094669785815 0 0 -0.0098744152677 0 0 -0.0098744152677 
0 0 -0.0098744152677 0 0 -0.0098744152677 0 0 -0.0098744152677 
0 0 -0.0098744152677 0 0 -0.0098744152677 -0.00030655966337 0.00011608194481 -0.0096953362515 
-0.00032697301354 -0.00053314674623 -0.0098088217795 0.0036542215435 -0.0021701658982 -0.0082565897004 0.00011381154625 -0.00045385885679 -0.0097889548773 
0 0 -0.0098744152677 0 0 -0.0098744152677 0 0 -0.0098744152677 
-0.000125857626 -1.5356924272e-05 -0.0099970561954 -0.00094427472854 -0.0034541469773 -0.01008698939 -0.00073489324883 0.0002772423358 -0.0099080125363 
0 0 -0.0098744152677 -0.00089041403813 0.001388403253 -0.010960696642 -0.0023831765552 0.0012816192927 -0.01112834126 
0 0 -0.0098744152677 0 0 -0.0098744152677 0 0 -0.0098744152677 
0.00010370209004 0.0004781400666 -0.0098519899884 -0.00076297415803 0.00068667418249 -0.0092056979396 0 0 -0.0098744152677 
0 0 -0.0098744152677 0 0 -0.0098744152677 0 0 -0.0098744152677 
7.7097873736e-05 -0.00010699326005 -0.0097038868339 0 0 -0.0098744152677 0 0 -0.0098744152677 
0 0 -0.0098744152677 0 0 -0.0098744152677 0 0 -0.0098744152677 
0.0032645126179 -0.00074499302978 -0.010616883404 0 0 -0.0098744152677 -0.0012590694144 -0.0006268786807 -0.0097009634538 
-0.0011909042807 -0.00032271808122 -0.0076608237905 0 0 -0.0098744152677 0.0017573191881 -0.00032716321775 -0.0089705339074 
0.00029444128085 -0.00020386940201 -0.010311428587 -0.00070398478107 -0.00031016288725 -0.012552611341 0.0026148116911 0.00093803784785 -0.010564799393 
0 0 -0.0098744152677 0 0 -0.0098744152677 0 0 -0.0098744152677 
0 0 -0.0098744152677 0 0 -0.0098744152677 -0.0016840224548 0.005873918462 -0.010601765079 
0 0 -0.0098744152677 0 0 -0.0098744152677 0 0 -0.0098744152677 
0 0 -0.0098744152677 
radius 1 70 double
0.003 0.003 0.003 0.003 0.003 0.003 0.003 0.003 0.003 
0.003 0.003 0.003 0.003 0.003 0.003 0.003 0.003 0.003 
0.003 0.003 0.003 0.003 0.003 0.003 0.003 0.003 0.003 
0.003 0.003 0.003 0.003 0.003 0.003 0.003 0.003 0.003 
0.003 0.003 0.003 0.003 0.003 0.003 0.003 0.003 0.003 
0.003 0.003 0.003 0.003 0.003 0.003 0.003 0.003 0.003 
0.003 0.003 0.003 0.003 0.003 0.003 0.003 0.003 0.003 
0.003 0.003 0.003 0.003 0.003 0.003 0.003 
omega 3 70 double
-1.5367339361 1.1466473968 -2.2783960146 1.477266756 1.3484260137 7.1017490995 -4.2397803753 1.3303195252 -5.8215898487 
0.96510553043 -4.9255110191 2.816253196 0.39144598654 -6.5443866781 -6.8061278843 4.1767820527 -0.44383021581 -3.0470928521 
1.2085556822 -0.26755488667 -7.1306122569 2.8023464994 -1.5216244193 -3.3388421664 1.5791427424 0.07415926485 -1.9469157419 
0.53488481589 1.5533301556 -0.041365740354 1.0959615639 -0.16478907383 -3.433966338 1.1714090441 -1.9676150196 -2.3435034204 
1.1257599047 -1.9510985165 -2.0886388606 -2.3479156974 -1.1046048105 -0.93912631381 2.4034530629 -0.58212147026 -1.9471423746 
-5.0658849444 2.8395600812 1.4550244198 9.5224456399 -7.0258768133 6.4818017426 1.4254160361 1.426885795 -0.21957989528 
-0.77966838593 -0.93095788028 3.3341809185 -6.0761825013 -1.0670368927 1.1668958358 3.6554758112 1.574293009 -0.66007843034 
2.2869713986 -1.56356733 0.94655560454 1.8422933797 0.40942134311 -2.5330866315 0.47610155871 -0.63629861013 4.252659432 
0.73749263045 0.28866747177 2.8187659843 7.3963912983 -0.28766553275 -3.3371225289 0.91886690446 -0.46182400928 -1.2412446667 
2.2034369764 -1.5377192289 -0.98256178487 -0.18671285086 -0.48351682587 -2.3081353389 1.700846912 -1.4874997508 -1.1379971114 
1.0442825107 0.96730162564 2.2804484723 2.4759395715 3.175027468 -1.8386996524 2.7551568199 -1.5382482077 -2.1830243618 
2.0149120981 -1.4737358015 -1.5582412363 0.82691102334 -2.9944653834 1.4557804773 1.4077745764 0.15280582007 -0.039219517376 
-8.3310337734 -0.42377340798 -1.9882921185 5.6113803377 -12.325709336 2.8258076985 -3.5230403064 -0.018317983104 -1.8059943588 
-1.9717949231 0.53098538843 5.8878173016 -1.9340821699 -2.9553893717 2.8097372524 -0.71043275463 4.3423207536 5.7521429982 
0.76309772111 1.6939988033 -2.4035450964 -1.4630213349 -10.935785844 -1.7840197497 1.5295794395 -3.3135967065 1.7849424632 
-0.59720135669 0.619068879 0.37522973167 0.27314246256 4.4073159029 -11.612652443 3.6185157071 -1.3821217511 -1.736425529 
1.5841000556 14.152865314 2.2580858144 1.787345894 -2.4796596095 1.8533508036 2.7059257044 -2.2717141958 -0.54644638184 
-6.2490780882 -1.5703896045 -0.093507118841 -0.14282100734 0.079354588181 1.1403120845 2.1832963359 3.0517984084 0.35263649535 
-0.69749579575 -1.4379888717 0.58795854172 2.1978265504 -0.76408275859 -1.0862800645 0.57533132436 0.82238967196 3.2589060071 
1.8809292528 -1.6040313507 -3.451757506 2.0747037881 0.53684617255 -0.064559685673 -0.29011726148 -0.25094311619 -0.46057230594 
-17.926150321 24.814355931 -1.4753751176 -5.067313364 1.4058934966 0.21017367267 -12.881398224 8.1971147159 9.4707361548 
11.270828218 19.280930452 -12.134315383 -2.2018654081 0.65184036167 1.1954247712 -1.5444730372 -2.8039429961 1.0014538891 
-3.4837855342 -2.098175936 1.9079413392 -11.149442765 5.9019508812 3.1385420692 -3.3021447331 6.5091704746 -5.080095942 
-22.960948268 -4.9707750531 -10.558450785 
