# vtk DataFile Version 4.2
Generated by LIGGGHTS
ASCII
DATASET POLYDATA
POINTS 70 float
-0.0127382 -0.0176478 0.0125823 -0.00598713 -0.0195524 0.0141527 -1.79297e-05 -0.0189702 0.00973389 
-0.0107857 -0.0120617 0.0108498 0.00549646 -0.00983534 0.0102953 0.0104108 -0.0153295 0.0115575 
0.0193929 -0.0103126 0.0132553 -0.0129868 -0.00535816 0.0146223 -0.00597655 -0.00611137 0.00934583 
0.00239963 -0.00307716 0.0148539 0.0140552 -0.00518649 0.0110524 -0.011972 0.00775529 0.00872873 
-0.00886987 0.00452547 0.0147581 -0.0151995 0.0151428 0.00924332 -0.0108195 0.0138511 0.0131343 
-0.000703024 0.0163854 0.00992826 0.00170432 0.0109529 0.00911333 0.0166073 0.0109807 0.0135361 
0.00511223 0.0213079 0.0130233 0.0126346 0.0176046 0.011393 -0.01074 -0.0184702 0.0217207 
0.0107569 -0.0172284 0.0179652 -0.0187572 -0.0109696 0.0207057 -0.00266435 -0.00920472 0.0158936 
-0.00450647 -0.0160167 0.020844 -0.00706792 -0.00886636 0.0222008 0.00287361 -0.0153832 0.0173399 
0.00637166 -0.0087479 0.01954 -0.0113011 -0.00463411 0.0228717 -0.00365295 -0.000233723 0.0190214 
0.00974633 0.00010112 0.0151842 0.0145488 -0.00780959 0.0214469 0.0215154 -0.004109 0.0195214 
-0.0192857 0.00288555 0.0164742 -0.0107605 0.00300787 0.0234002 -0.00241277 0.00752818 0.018284 
0.00668536 0.00712748 0.0153518 -0.0173062 0.00986235 0.0192905 -0.0102864 0.0090104 0.0236455 
0.00285937 0.0139768 0.0164985 0.0122132 0.0140207 0.018995 -0.0115375 0.0186217 0.0195228 
-0.00412138 0.0181982 0.016502 0.00359075 0.01709 0.0232212 -0.00120028 -0.021836 0.0280636 
-0.0116336 -0.0122989 0.0240345 -0.00193566 -0.00977157 0.0252282 0.00553551 -0.0146868 0.0257243 
0.0133336 -0.0137464 0.0265024 0.0172969 -0.0133322 0.0220156 -0.0175587 -0.00643178 0.0274908 
-3.97928e-05 0.000452173 0.0257657 0.00908641 -0.00570585 0.026279 0.0124738 -0.000768974 0.0293226 
0.0198674 -0.00707528 0.0281387 0.0181642 0.000460822 0.024671 -0.0193601 0.00443979 0.0243627 
0.00408061 0.00417496 0.0234701 0.0105514 0.00824572 0.0259675 -0.000992845 0.0131645 0.0235702 
0.0189021 0.0106883 0.0281368 0.0102136 0.0191662 0.0254743 -0.013015 -0.0169824 0.0299428 
-0.00778133 -0.0203995 0.0299801 -0.00318849 -0.0167524 0.0336014 0.00836404 -0.0187013 0.0349042 
0.000542016 -0.0121677 0.0321178 0.00540478 -0.0087936 0.0331127 0.0153358 -0.0154726 0.0341271 
0.0168238 -0.00560123 0.0337325 
VERTICES 70 140
1 0 
1 1 
1 2 
1 3 
1 4 
1 5 
1 6 
1 7 
1 8 
1 9 
1 10 
1 11 
1 12 
1 13 
1 14 
1 15 
1 16 
1 17 
1 18 
1 19 
1 20 
1 21 
1 22 
1 23 
1 24 
1 25 
1 26 
1 27 
1 28 
1 29 
1 30 
1 31 
1 32 
1 33 
1 34 
1 35 
1 36 
1 37 
1 38 
1 39 
1 40 
1 41 
1 42 
1 43 
1 44 
1 45 
1 46 
1 47 
1 48 
1 49 
1 50 
1 51 
1 52 
1 53 
1 54 
1 55 
1 56 
1 57 
1 58 
1 59 
1 60 
1 61 
1 62 
1 63 
1 64 
1 65 
1 66 
1 67 
1 68 
1 69 

POINT_DATA 70
FIELD FieldData 7
id 1 70 int
1943 2801 3936 1762 2813 1166 2726 209 1617 
942 1999 4635 2889 4832 385 3884 5455 596 
4318 1796 3793 4213 3867 842 3295 736 3250 
4035 1446 3500 5417 4085 914 665 3117 2163 
3532 5024 3076 1380 5080 3233 4507 2282 3015 
5388 2582 5438 1477 2268 4210 5547 3755 2526 
2654 901 4735 398 5141 2182 468 44 4394 
5432 3387 724 3230 2469 2132 3959 
type 1 70 int
2 2 2 2 2 2 2 2 2 
2 2 2 2 2 2 2 2 2 
2 2 2 2 2 2 2 2 2 
2 2 2 2 2 2 2 2 2 
2 2 2 2 2 2 2 2 2 
2 2 2 2 2 2 2 2 2 
2 2 2 2 2 2 2 2 2 
2 2 2 2 2 2 2 
i 3 70 int
0 0 0 0 0 0 0 0 0 
0 0 0 0 0 0 0 0 0 
0 0 0 0 0 0 0 0 0 
0 0 0 0 0 0 0 0 0 
0 0 0 0 0 0 0 0 0 
0 0 0 0 0 0 0 0 0 
0 0 0 0 0 0 0 0 0 
0 0 0 0 0 0 0 0 0 
0 0 0 0 0 0 0 0 0 
0 0 0 0 0 0 0 0 0 
0 0 0 0 0 0 0 0 0 
0 0 0 0 0 0 0 0 0 
0 0 0 0 0 0 0 0 0 
0 0 0 0 0 0 0 0 0 
0 0 0 0 0 0 0 0 0 
0 0 0 0 0 0 0 0 0 
0 0 0 0 0 0 0 0 0 
0 0 0 0 0 0 0 0 0 
0 0 0 0 0 0 0 0 0 
0 0 0 0 0 0 0 0 0 
0 0 0 0 0 0 0 0 0 
0 0 0 0 0 0 0 0 0 
0 0 0 0 0 0 0 0 0 
0 0 0 
v 3 70 double
-0.045366885654 0.030009962388 0.39199261215 -0.036199018367 0.023654443679 0.35094445365 -0.048560012425 -0.012719688376 0.36494073503 
-0.05049072082 0.0251741834 0.39988906696 -0.0042979246771 0.025048442418 0.36280739706 -0.010193592391 0.025329715687 0.25542371818 
0.039738935588 0.077585205116 0.37457423077 -0.043160148349 0.044208383712 0.40101560048 -0.0456678897 0.030533301477 0.3761814156 
-0.0076313622813 0.0069040298287 0.39259316578 0.006377700203 0.034101914966 0.3782402916 -0.0026047343999 0.03056050895 0.42045714108 
-0.0041666633751 0.021743331995 0.42971472323 0.009506660313 0.024976227382 0.45523215816 0.0016079252838 0.0036701605022 0.46022512746 
-0.030163910037 0.00014208430867 0.42509925151 -0.025300651754 0.0064010733907 0.40245235268 -0.038745355711 0.062705666225 0.40538974147 
-0.042760056819 -0.0001855892351 0.43694263414 -0.058746184 0.034256148873 0.40917789304 -0.092150322431 0.0294755439 0.3149372413 
-0.04340679209 -0.031453807149 0.20252502901 -0.14103596696 0.11563770619 0.3737373452 -0.013194400917 0.0019593864336 0.36952109726 
-0.079942120528 0.076120945146 0.24514413464 -0.092789529872 0.11699820358 0.30167756385 -0.028693599846 0.0033326513475 0.32975540274 
-0.00039838328821 -0.00065503580891 0.261216147 -0.10107283037 0.084909612766 0.44917747943 -0.02066424284 0.00947018947 0.41385242496 
0.0034769334146 0.038053224551 0.38449551618 0.044539008493 0.061970588095 0.26467387272 0.0083771553591 0.10199338495 0.27989274431 
-0.0042052066182 0.064905888387 0.41851588232 -0.042850029891 0.080298272869 0.44960291631 -0.035614307843 0.014903805839 0.41554929389 
-0.029203360702 0.01166459847 0.4142574761 0.014632802168 0.040897621367 0.49932699764 -0.024276920595 0.078001522279 0.53012093579 
-0.024971227979 0.016942870947 0.45348212543 -0.038954451933 0.032212122353 0.41444455549 0.032740971788 0.017493383067 0.47556274571 
0.00079467443077 -0.01439706546 0.44974223967 -0.071239783242 0.049395277093 0.50674203666 -0.096145908107 0.016937631531 0.10810100948 
-0.097143332821 0.11475955594 0.28984024425 -0.083263929117 0.11179718412 0.24360543303 -0.068118876288 -0.027559272849 0.16862623553 
-0.060184102108 0.051228615453 0.11280324877 0.11610815916 0.024328744215 0.15580313996 -0.047887448856 0.18319687165 0.32026328753 
-0.058494051831 0.14922504786 0.46246153429 -0.01521498232 0.079843150094 0.27013763277 -0.061248215811 0.15957675485 0.31093367979 
-0.018803961633 0.13091435938 0.25162137431 -0.024051473619 0.15805766848 0.3792452287 -0.017013699621 0.083499937649 0.53298886256 
-0.041801713163 0.14035685594 0.45699557475 -0.043938329762 0.12672502735 0.47080474462 -0.065777238484 -0.0060900251899 0.4979770009 
-0.08088026787 0.16963643436 0.40632527079 -0.13016175766 0.088097528132 0.49059825107 -0.1422411372 0.047099100082 0.12025296281 
-0.10961020646 0.066925875853 0.076411031729 -0.0905544538 0.053966738881 0.076588103313 0.0021648137803 0.0090605353497 -0.21603746731 
-0.043702077552 0.12233985746 0.15484496811 -0.025283230637 0.17600223579 0.23517313993 -0.042367901443 0.036972242571 -0.07406669376 
-0.096595171884 0.1457062743 0.040861949979 
f 3 70 double
-0.019611380945 0.027556260881 0.015347016398 0.00066782553283 0.023188871742 -0.02376814404 -0.00038950861629 0.022287958375 -0.024619848373 
0.043824987372 -0.023765509071 0.0074729727328 -0.003058608163 0.0104697551 0.03061625854 0.0044082066078 0.0080215240652 0.075059433983 
-0.018850694159 0.017143775591 -0.077463212788 -0.034024797962 -0.012268877205 0.0078553384834 0.01717211874 -0.023791288602 0.02308454948 
0.00087644362546 0.015188767357 0.00053146375273 -0.0069960383486 0.011421011312 0.023342684499 -0.024520860452 -0.011454555184 0.016967706436 
-0.0046985907365 -0.0059886293667 0.018285462551 -0.016988650493 -0.0077521682768 0.014446999626 -0.011887658969 0.017732830118 -0.010142285758 
-0.0073290006715 0.0010973995632 0.0003904344245 -0.0022237057527 0.0056723218473 -0.019212823011 -0.010888961183 0.044099925564 -0.0083323372867 
0.024105765175 0.0045076254458 0.0032409027279 0.0043498249446 0.00072397399757 0.0028222144669 0.0064631045642 -0.07391368992 0.048620092193 
-0.074471118633 0.0076023848119 -0.053868266658 0.013176092646 0.00033269215551 0.013866375375 -0.026967347619 0.005217974714 0.036106364177 
-0.031056430754 -0.0021825015262 0.057053154508 0.037244598013 0.01438102072 -0.032156980392 0.014636994681 -0.031125634324 0.055242994738 
-0.032880710038 -0.087896254299 -0.10780125694 0.058586928134 0.089684581218 -0.024830265905 0.010881250094 -0.016074005393 -0.0018882817525 
0.0099827218038 -0.015867787291 0.020621859217 0.015256253065 0.011113619798 0.037087670577 -0.24160896507 0.064317384396 0.027242212787 
0.00067597477845 -0.028177852432 0.0028141735323 -0.0019623587993 0.012119811209 0.025870650281 0.0053186475054 -0.043033650519 0.027627856128 
-0.010991582354 -0.0038557229018 0.00048904312269 -0.00313425271 0.015172854761 0.0085984264043 -0.015307521315 -0.024245494437 0.006319617226 
-0.008833628389 -0.019971498902 -0.0098084828515 0.010302073753 0.029049255397 -0.035030270454 -0.024098180174 -0.032253981866 0.0077582628703 
-0.0076515228763 -0.010018239992 0.015399653717 -0.0047710364947 -0.04236769054 0.0057490845255 -0.059366652573 0.036475373742 0.043917945887 
0.047990770207 0.0032159626635 -0.032956488987 -0.090967648165 0.043421831127 -0.12584924755 -0.00024950444051 0.015333519108 0.01580774001 
0.0061544019004 0.0049428822099 -0.0025299882996 0.030206465415 -0.040432206562 0.1597507842 0 0 -0.0098744152677 
0.0018203255034 -0.0067937555054 0.0034213485113 0.088750135437 0.10477854094 0.24551054164 0.022764899718 -0.02967539773 0.027787904256 
-0.033447418365 -0.080737290635 0.12917656673 -0.0425891245 0.043032638294 -0.029426356216 -0.0027707876125 -0.022330053946 0.0011227031054 
-0.029910052313 -0.038675517389 0.030140737439 0.031803935576 -0.062880085204 -0.042516916537 0.021704835307 -0.018102723769 0.018945445356 
0.0098686871127 0.0097402890671 0.018636418066 0.051709852872 0.00052430593774 0.029202359467 -0.01679518193 -0.01763148982 0.040419491263 
0.022682743591 0.0041737149065 0.086161316372 0 0 -0.0098744152677 -0.001806373084 0.0038539954977 0.018854062854 
0.040802702269 -0.046525770147 0.11193653787 0 0 -0.0098744152677 0.01094964667 0.0078252088378 -0.012286518726 
0 0 -0.0098744152677 
radius 1 70 double
0.003 0.003 0.003 0.003 0.003 0.003 0.003 0.003 0.003 
0.003 0.003 0.003 0.003 0.003 0.003 0.003 0.003 0.003 
0.003 0.003 0.003 0.003 0.003 0.003 0.003 0.003 0.003 
0.003 0.003 0.003 0.003 0.003 0.003 0.003 0.003 0.003 
0.003 0.003 0.003 0.003 0.003 0.003 0.003 0.003 0.003 
0.003 0.003 0.003 0.003 0.003 0.003 0.003 0.003 0.003 
0.003 0.003 0.003 0.003 0.003 0.003 0.003 0.003 0.003 
0.003 0.003 0.003 0.003 0.003 0.003 0.003 
omega 3 70 double
6.2498227386 10.394902145 -5.175450506 9.0873688026 17.197620896 1.9246371463 8.6102921777 3.8142022365 7.5313852671 
-3.2575384526 0.5162012729 1.2613101427 -4.1236143354 11.578918116 3.8456669177 -12.162187076 24.785435361 6.8776579971 
-1.6890153048 -3.1764959634 7.0287594507 -2.1827667578 1.3797369308 0.83251282744 12.973819633 5.6786957734 -7.7013738691 
1.1734325831 5.5917144684 1.1468310827 2.0765854366 0.015823958354 0.21586399623 2.5861452248 -1.1594273573 -5.2630805747 
-0.32611787154 4.2296788428 -2.4254281218 3.8362566459 -3.1068806566 -5.4385161838 -4.5676189087 7.0775187964 -1.4064767132 
2.4898543826 3.9483848679 -2.7063121955 -4.3748129986 15.041499679 7.7024408548 0.90206361401 3.392067853 3.9149087617 
-4.0820640734 5.1033877136 -1.9854617003 -0.87407312723 4.1030862448 6.315501736 2.2474105146 7.983442295 10.312398207 
-1.4002674397 1.5216461479 -8.3012111081 2.652582634 2.759047992 -6.8035421663 -9.1442808269 10.14309877 -3.1904627435 
8.1933943244 -0.90253391504 -16.925594244 7.2094262012 10.115717927 -1.2394395881 -7.6063840204 -13.375612772 2.9411073627 
6.5644232792 -2.1666583444 2.911457825 0.58608329679 -10.235759522 -30.423783662 -2.2936972635 -5.6944350482 -6.3165917167 
-0.47605903391 2.4379609144 4.8405972409 -13.105882395 -6.3968177687 15.765426286 22.335967126 16.550276316 7.6548199132 
-0.5118579919 -4.1620957639 3.9184150175 31.037511908 -8.7537647415 0.95983776718 -0.030421246033 -0.061894737807 3.0231676036 
-1.6962235919 -0.32382200487 1.1857369013 1.1489711827 2.0307844351 0.71483914153 -12.139594886 -3.6611306104 -10.73964639 
-0.60833947072 10.391172503 2.8626950866 3.0181962437 3.9713190764 4.4479665162 -1.2598198796 4.6117717596 0.056539240026 
4.9701127573 5.2077131683 -6.222619196 0.13094109434 10.947493269 -1.3842404177 0.79925054076 -18.708761083 -18.450375198 
6.87808778 -1.9927395191 -5.79098085 6.138632294 -4.5104732926 -1.8780910935 24.089965042 -19.350131151 -7.0756027763 
3.1035728831 -21.100736486 -20.066291687 -12.037773966 -23.874616624 17.337869893 8.4901083782 -8.4652745785 8.1224964237 
-4.1571266258 24.543265697 -2.5628524819 6.3146940563 -2.9184525577 29.968840374 12.057733795 22.972456102 -16.846643771 
13.688822575 16.724209279 22.239748968 10.511739382 -8.3011669023 13.324091683 -22.632414082 9.3125785453 -17.02281421 
21.133722954 9.856994281 1.357910174 -17.458714094 8.4137802599 22.052142198 -14.447322304 -17.300956799 5.9200361837 
-13.561653009 3.7670853393 -5.3154700608 14.898835154 -5.7604839489 23.88085988 -23.8808452 25.739155191 -17.343982982 
-16.440080359 -19.905697424 -8.7324526912 26.197760524 21.868418102 -35.00809772 17.430686399 2.4923580583 0.49533687162 
41.390751611 -2.9023509354 26.738694442 -29.791522462 -8.1855312769 -7.0642602454 14.813444989 -55.953166303 -18.055655024 
1.6518599963 -31.181476948 24.881567121 
