# vtk DataFile Version 4.2
Generated by LIGGGHTS
ASCII
DATASET POLYDATA
POINTS 70 float
0.0114581 -0.0368894 0.00699838 -0.0237986 -0.0238458 0.00699827 -0.00516478 -0.0202765 0.00953845 
0.0278628 -0.0211398 0.0135785 0.0230261 -0.0153722 0.00699752 -0.0253441 -0.00911908 0.0113724 
-0.0187622 -0.00161635 0.0107676 -0.00540934 -0.00082461 0.0069993 0.0045111 -0.00742059 0.00934088 
0.0159819 -0.000463851 0.0109253 0.0119743 0.00781084 0.0069976 0.0247776 0.00517861 0.00975104 
-0.0327818 0.0126216 0.00699878 -0.0248283 0.0178785 0.0100133 -0.000589488 0.0181855 0.0102347 
0.00562292 0.011265 0.0139045 -0.0125072 0.0218876 0.00749382 0.00288389 0.0293428 0.00699795 
0.0229398 0.0220761 0.0070533 -0.000836414 -0.0222524 0.0217332 0.0205449 -0.00875754 0.0144138 
-0.00820969 0.00387825 0.0164056 -0.0114136 0.0133337 0.0169576 0.0101142 0.0160929 0.0215669 
0.0225476 0.010684 0.0232497 0.0057422 0.0299437 0.0204631 -0.0141535 -0.0327213 0.0297117 
-0.000932094 -0.0397253 0.0283781 -0.00426073 -0.0305304 0.0304676 -0.0203286 -0.0203268 0.0274441 
-0.00721645 -0.018164 0.0282577 0.00504079 -0.0176016 0.0283518 0.019833 -0.0173874 0.0279802 
0.0294059 -0.0112395 0.0311967 -0.00674141 -0.00769605 0.0261014 0.0291985 -0.00143261 0.0292522 
-0.0127277 0.00477301 0.0347275 -0.00474817 0.00179301 0.0286245 0.0109787 0.0038892 0.0330456 
-0.012138 0.0145033 0.032501 0.0040476 0.0289293 0.0322747 0.0115002 0.0244725 0.0273158 
0.0295522 0.021592 0.0316808 0.00282281 -0.0325029 0.0374722 -0.0125618 -0.0252659 0.0410811 
0.0107596 -0.0251496 0.041906 -0.0216844 -0.0136966 0.0449292 0.00295226 -0.0199709 0.0378388 
0.0380504 -0.0114132 0.036744 -0.0161152 -0.00371844 0.0393055 -0.000240087 -0.00253142 0.0366106 
0.0163072 -0.000789572 0.0443757 0.0206867 -0.00931641 0.0414084 -0.0315248 0.00143338 0.0398353 
-0.0193531 0.0218709 0.0395089 -0.006833 0.0267618 0.0404402 0.0116872 0.0258019 0.0379173 
-0.0090512 -0.0234547 0.0502674 0.020305 -0.0299045 0.0510236 -0.0336379 -0.0136575 0.0531292 
0.0289081 -0.0133596 0.0475458 -0.0282449 -0.001882 0.0510298 -0.00557575 -0.00708143 0.0460092 
-0.0208779 0.00686567 0.0466713 -0.0126155 0.00283972 0.0506102 -0.0020702 0.00309101 0.0460998 
0.00615957 0.000137386 0.051779 0.0273787 0.00968743 0.0508261 -0.00966207 0.0205185 0.0524101 
4.56629e-05 0.0204071 0.0471149 
VERTICES 70 140
1 0 
1 1 
1 2 
1 3 
1 4 
1 5 
1 6 
1 7 
1 8 
1 9 
1 10 
1 11 
1 12 
1 13 
1 14 
1 15 
1 16 
1 17 
1 18 
1 19 
1 20 
1 21 
1 22 
1 23 
1 24 
1 25 
1 26 
1 27 
1 28 
1 29 
1 30 
1 31 
1 32 
1 33 
1 34 
1 35 
1 36 
1 37 
1 38 
1 39 
1 40 
1 41 
1 42 
1 43 
1 44 
1 45 
1 46 
1 47 
1 48 
1 49 
1 50 
1 51 
1 52 
1 53 
1 54 
1 55 
1 56 
1 57 
1 58 
1 59 
1 60 
1 61 
1 62 
1 63 
1 64 
1 65 
1 66 
1 67 
1 68 
1 69 

POINT_DATA 70
FIELD FieldData 7
id 1 70 int
44 732 1464 837 912 1986 1606 936 895 
1371 663 720 467 208 1438 1782 385 1157 
595 2267 398 2166 1751 2117 2149 1929 2782 
2509 2454 2873 2996 2710 2790 3102 2640 2566 
3057 2252 3510 3206 3209 3228 3475 3932 4179 
4006 4181 3841 3364 4052 3265 4362 4280 3857 
3770 3909 3724 5377 4989 4708 4482 5353 5397 
4796 5509 5103 5420 5050 5402 4610 
type 1 70 int
2 2 2 2 2 2 2 2 2 
2 2 2 2 2 2 2 2 2 
2 2 2 2 2 2 2 2 2 
2 2 2 2 2 2 2 2 2 
2 2 2 2 2 2 2 2 2 
2 2 2 2 2 2 2 2 2 
2 2 2 2 2 2 2 2 2 
2 2 2 2 2 2 2 
i 3 70 int
0 0 0 0 0 0 0 0 0 
0 0 0 0 0 0 0 0 0 
0 0 0 0 0 0 0 0 0 
0 0 0 0 0 0 0 0 0 
0 0 0 0 0 0 0 0 0 
0 0 0 0 0 0 0 0 0 
0 0 0 0 0 0 0 0 0 
0 0 0 0 0 0 0 0 0 
0 0 0 0 0 0 0 0 0 
0 0 0 0 0 0 0 0 0 
0 0 0 0 0 0 0 0 0 
0 0 0 0 0 0 0 0 0 
0 0 0 0 0 0 0 0 0 
0 0 0 0 0 0 0 0 0 
0 0 0 0 0 0 0 0 0 
0 0 0 0 0 0 0 0 0 
0 0 0 0 0 0 0 0 0 
0 0 0 0 0 0 0 0 0 
0 0 0 0 0 0 0 0 0 
0 0 0 0 0 0 0 0 0 
0 0 0 0 0 0 0 0 0 
0 0 0 0 0 0 0 0 0 
0 0 0 0 0 0 0 0 0 
0 0 0 
v 3 70 double
2.6692505845e-07 -4.1526671855e-07 3.8809247299e-08 8.7216757854e-08 -1.2947029188e-07 1.543202348e-08 2.7140678663e-07 -2.8006483937e-07 -3.4877948781e-08 
1.5475681748e-07 1.9196413986e-07 1.1887381189e-06 -3.5527757416e-08 -4.4677743906e-07 2.6070973368e-07 1.0170415966e-07 5.3461693028e-08 1.0960666107e-07 
2.1144054794e-07 1.9451526007e-07 3.4002584068e-08 -5.183069797e-07 1.0568036156e-07 2.566582932e-07 6.9495169704e-07 1.8842804288e-06 -2.3159990791e-07 
1.2973141469e-06 5.4286284881e-07 2.7568431514e-07 -1.5446585135e-07 1.244656208e-07 2.8960083294e-07 3.0712044364e-07 -1.4278352192e-07 9.7563313114e-07 
-5.9988021657e-08 -5.1774773395e-07 9.2209772273e-07 1.2402336802e-06 -4.7176921649e-07 5.7657480802e-07 6.2305710931e-07 -6.0838420324e-07 -3.7124694377e-07 
-9.6584180377e-08 -3.9728967814e-07 1.6695857392e-07 -7.3826729712e-07 -5.9228681475e-08 1.6057170027e-06 -1.309854076e-06 3.9194843236e-07 -3.9381614443e-07 
-4.8246629417e-08 9.2184898963e-07 7.7645911789e-07 -9.4053269263e-09 1.2385307079e-07 -1.577337297e-08 -4.2240783634e-07 -8.471108659e-07 5.8908326997e-07 
-4.9072448936e-08 -4.3509181971e-07 -8.9039425958e-08 4.369224909e-07 6.0581809297e-07 -2.2016909408e-07 3.3353123724e-09 -5.1848057487e-08 1.6390218691e-07 
2.7012973358e-07 3.1340171733e-08 -1.1840105645e-07 -1.3652200172e-07 9.622307575e-08 1.4817380727e-07 -1.6180312064e-07 -1.0687077524e-07 -1.1113507432e-07 
-1.8837932087e-07 -3.5202918325e-08 -6.450967163e-08 -3.5647915488e-09 8.9340894702e-08 -9.0296940775e-08 2.8328733841e-07 -1.5637852742e-07 8.8630715854e-08 
-2.2540158536e-07 -1.7583028731e-07 -5.9335796091e-08 -3.9130915765e-07 3.2889818187e-07 1.2708705157e-08 -6.2670545137e-07 -4.2975616633e-07 -7.8658967969e-08 
-7.5377651045e-07 1.2417149823e-06 -1.983850286e-07 -1.5980537194e-07 -3.4430592321e-07 -1.2757210056e-07 3.2537072144e-07 5.923528525e-07 4.4666891916e-07 
1.4596645863e-07 1.8389917431e-07 -1.2406177155e-07 7.5207540175e-08 -2.9309042704e-07 1.3421120567e-07 8.4637742658e-08 -5.2808875408e-07 -2.8707423465e-07 
-2.2572971092e-07 1.2086535524e-07 -5.5270667403e-07 8.7956126969e-08 -1.8275138457e-07 6.5643792481e-09 -2.0593826755e-07 2.0067182346e-07 2.1996660518e-07 
-1.2170279084e-07 2.2384513212e-07 2.9956336077e-07 -2.0838510468e-08 -3.2077473087e-07 1.3043232976e-07 4.5811942114e-08 -3.6515609752e-08 2.8444225058e-08 
-2.3281574246e-07 -2.1318073917e-07 3.8726164779e-07 -2.5997351605e-07 -3.572624616e-08 -1.0833675312e-07 1.0465607184e-07 -2.0366961057e-07 4.131130405e-07 
9.5554753968e-07 3.8411460925e-07 3.4614821681e-07 1.5168141338e-07 2.181597433e-07 1.4744787677e-08 -1.1687495762e-07 -3.8453030842e-07 3.58275911e-08 
-9.0072027371e-08 -2.9129315218e-07 -1.9771908932e-07 -6.3202444384e-08 -2.2034112607e-07 4.2101603056e-08 -7.7831030194e-08 1.5233505418e-07 -1.309867061e-07 
4.3636159475e-07 -5.8060719149e-07 5.108001876e-07 3.3305492823e-07 8.134168229e-08 1.2405126777e-07 1.0595351502e-07 -1.5013418638e-07 2.2908628493e-08 
-2.6912449896e-08 1.3601991499e-07 -3.9382337144e-08 -1.901004618e-08 -3.7757522197e-08 1.3684484444e-07 4.8180878981e-07 -9.5608922835e-08 3.5226239548e-08 
-8.327185393e-08 -1.3271973715e-07 -1.2941044561e-07 1.5653088185e-07 -1.6214532621e-07 -2.7042882102e-08 -1.1374671905e-07 -5.0509195057e-07 8.4708928276e-08 
1.351903222e-07 -1.8694554433e-07 -1.0313819537e-07 2.0017957649e-07 -1.9065576146e-07 1.1381688105e-07 1.2229289248e-07 2.1989554232e-07 -1.3445097319e-07 
-1.9686180691e-07 1.7037628433e-07 1.8224378401e-07 1.7260790139e-07 -1.1814849243e-07 -5.8481794533e-08 -2.0450585676e-07 1.5258971531e-07 -3.4254920766e-07 
-1.251743978e-07 4.3051928988e-08 5.213443475e-08 
f 3 70 double
-0.00011888275221 4.8993448232e-05 9.5466277773e-05 0.000348666476 0.00027720589369 0.00028582588409 9.8234700626e-05 -0.00014601487412 -0.0003472981325 
-9.1989426439e-05 6.9406685663e-05 0.00036022028728 -4.8996782471e-05 -3.2588069788e-06 -6.1824070264e-05 0.00017339607286 0.00016543984942 -6.8262758777e-05 
-0.00014785504618 5.5970660846e-05 0.00016348248196 5.7807036582e-05 -0.0002506254076 -0.00045542930467 -0.00035102156038 -9.2295168078e-05 -0.00063364307859 
0.000420683575 -3.4319480881e-05 0.00013461774784 1.0403793456e-05 0.00024157002624 -2.6649559853e-05 0.00022482410159 -0.0003415570137 0.00055530599666 
-0.00010125475244 0.00015936837078 -0.00017948942224 -0.00020282025659 0.00022802106453 -0.0002729956728 -0.00082703237565 7.7425268819e-05 -1.655833258e-05 
0.00022725270672 7.98199028e-05 -0.00010340347372 0.00033607506922 -0.0005936407121 0.00027901531973 0.00024890427208 -7.976773112e-05 -9.0132472139e-05 
-6.2604191318e-06 -0.00020114663573 -0.00039726196089 1.1821363068e-07 -5.5582886767e-05 -6.5522627068e-05 -0.00024703252334 -0.00047768992991 0.00010123667504 
-7.2416112236e-06 0.0003896946606 -0.00024587457768 0.00019631947914 -0.00013368563 -0.00018717497429 1.461081664e-05 -1.6192899386e-05 -0.00016755330192 
-5.6578000886e-05 -0.00024075571169 2.6095667812e-05 -7.4380032677e-05 -0.0001390935831 7.2292658485e-05 7.5549783716e-05 -7.408004408e-05 6.576198783e-05 
-2.2403222297e-05 1.7644206767e-05 -7.0344957012e-05 -5.7972381061e-05 1.1644339915e-05 -7.0920514766e-05 0.00017818763322 -6.8538794388e-05 0.00012562605877 
-0.00013276339873 -0.00011658847157 -8.6192566337e-07 -0.0003336758536 -0.00014009109906 -0.0004914236168 1.5756633384e-06 0.00015939077469 0.00010527268852 
-6.7686631857e-05 -7.1825592076e-05 -0.00012064232541 6.0405774129e-07 -5.0161099372e-05 5.0065004337e-05 1.688243264e-05 5.1606953514e-05 2.6107168158e-06 
-0.0002842495815 -7.5693607901e-05 -3.0206611089e-05 0.00017642371136 0.00024225032895 0.00017308832798 -3.4231905978e-05 -3.5616181556e-05 -0.00013055864932 
-5.0067217934e-05 -0.00010532724098 6.2320973826e-05 2.2689686144e-05 1.3279418091e-05 6.4805679585e-06 -4.3829776978e-06 -8.4020606949e-05 -7.7369477414e-06 
0.00013013257702 7.6919042957e-05 -6.3217066657e-05 -3.4385862279e-06 2.6399504826e-05 -2.1723643043e-05 -7.3565850541e-05 -1.220360676e-05 -4.4806300476e-05 
1.2670257612e-06 3.797261591e-05 2.9765076599e-05 5.6150669134e-05 2.2577164142e-05 -3.0007431665e-05 1.1852564519e-06 5.5389479888e-06 2.1082876972e-05 
1.3909119693e-05 -8.1732155782e-05 -0.00010496360112 8.7173521911e-05 -5.1972144107e-05 2.4590202751e-05 -3.776443028e-05 6.7384876356e-05 -3.1241450754e-05 
4.4658587432e-06 3.3759523824e-05 1.0420421108e-05 -0.00010505234539 6.6707169128e-05 -9.4582258261e-06 -2.9630281799e-05 0.00013025162226 -9.0000066476e-07 
-1.2207894579e-05 -2.0156818846e-05 0.0001487022237 -7.2222844057e-05 2.4265541867e-05 9.1373646452e-05 4.0062181222e-05 1.4025794006e-05 -9.6264164431e-06 
1.8545879458e-05 2.144623511e-06 1.3005598473e-05 -3.9988778379e-06 -3.3281884261e-05 -5.5113764537e-06 -3.3367162696e-05 -2.1917400449e-05 -5.5934663647e-06 
-6.0192667051e-06 -2.7048892354e-05 6.1491052443e-05 -4.0882210921e-05 1.5451494983e-05 -2.0706742439e-06 -5.86057663e-05 -0.00011904301882 2.9509645423e-05 
-8.070005162e-05 6.082389633e-05 3.582909138e-05 -3.5242082645e-06 9.151770586e-06 6.0017626386e-06 5.707798091e-05 -9.4707986385e-06 -2.1538098081e-07 
-3.9609236897e-05 -4.7948150122e-05 -2.5892999526e-05 -7.3803791271e-05 -8.8670433492e-06 -1.0337062293e-05 5.2169521768e-06 -5.6233744993e-06 -2.2623848181e-05 
2.6645203007e-05 -2.0901040654e-05 1.5964225756e-05 
radius 1 70 double
0.005 0.005 0.005 0.005 0.005 0.005 0.005 0.005 0.005 
0.005 0.005 0.005 0.005 0.005 0.005 0.005 0.005 0.005 
0.005 0.005 0.005 0.005 0.005 0.005 0.005 0.005 0.005 
0.005 0.005 0.005 0.005 0.005 0.005 0.005 0.005 0.005 
0.005 0.005 0.005 0.005 0.005 0.005 0.005 0.005 0.005 
0.005 0.005 0.005 0.005 0.005 0.005 0.005 0.005 0.005 
0.005 0.005 0.005 0.005 0.005 0.005 0.005 0.005 0.005 
0.005 0.005 0.005 0.005 0.005 0.005 0.005 
omega 3 70 double
0.00010199854436 -5.2428699861e-06 -0.00023705270677 -8.9455315919e-06 2.2215673834e-07 -4.0943522508e-05 8.4221755114e-05 -8.4862245556e-05 -5.5011760143e-05 
-0.00021045152986 0.00046501631865 -0.0001537066052 -3.2367821887e-05 -0.00052989420156 -6.0549802783e-05 1.0734077739e-05 2.4348878758e-05 -2.6444916329e-05 
2.3406696793e-05 1.4407732971e-05 -8.6492339271e-05 0.00014478197163 -0.00017452304038 8.8702223893e-05 6.4317532224e-05 0.00043188736 0.00073225967476 
3.1223865919e-05 -0.00025634483711 0.0003084073258 0.00013669374529 4.1018073428e-05 0.00011715267076 -0.00010571242268 -2.7614897583e-05 0.00036050994223 
0.00043427906603 -0.00041753745622 -0.0002119527373 0.00076087590551 -8.7272424641e-05 -6.2417459295e-06 0.00023551347009 0.00012191518697 0.00020018696321 
-0.00010551039744 6.5839413079e-05 6.2313068481e-05 5.2276578887e-06 9.2226382788e-05 0.00017490632946 0.00014708404674 0.00025093886773 0.00077131515361 
0.00031020280313 0.00010713817365 0.00014520863128 0.00017417090158 -0.00036861777125 0.00012401187368 9.9980113539e-05 0.00019979486964 0.00042311305918 
-4.2851396145e-05 -1.0380354034e-05 0.00014122689403 0.00012339803488 0.00011614732874 0.00026646679401 4.3662771751e-05 5.2597904684e-05 9.0804345245e-05 
1.3051736434e-05 -9.7544931692e-06 -5.2967672264e-06 3.0507269428e-05 0.00010401365614 2.1368612692e-05 -4.679435575e-06 -7.5550608146e-05 5.3936776376e-06 
-2.5461454068e-05 1.9996281576e-05 -3.2430023371e-05 2.6510334119e-06 -3.2870917483e-05 -4.9187385769e-05 -4.9042408208e-05 -0.00031818001998 -2.5120067865e-05 
-5.9555913754e-06 -5.9253460264e-05 7.4388394132e-05 3.8745491736e-05 0.00021779881309 8.4638799729e-06 3.4739590032e-05 -0.0002880430917 0.00035243052251 
0.00017322908328 0.0002101807412 -7.4834341109e-05 -2.5679261007e-05 -2.1241023499e-05 -4.3469054693e-05 7.5610976244e-05 0.00021943714131 5.2985865643e-05 
-7.3443543541e-05 1.4857431843e-05 7.9156256088e-05 6.5224250838e-05 2.2504295449e-05 -4.9345368319e-05 -1.5130764242e-06 1.4102428487e-06 -3.6678544431e-05 
3.8754048634e-05 0.00013302248564 6.3484417846e-05 -3.2549484519e-05 4.674159049e-05 2.7734336885e-05 0.00018384585309 0.00020076062945 1.6807672903e-06 
3.189639889e-05 2.5127124637e-05 -1.6006295261e-05 3.3657800876e-05 2.046531637e-05 -2.1805473179e-05 -3.6060507716e-05 -7.5688377322e-05 -3.7907558136e-05 
8.6909651793e-05 5.8955100519e-05 -1.3932392167e-05 -8.7590823591e-05 5.3987503456e-05 -5.1842735688e-05 8.3045827382e-05 0.00012273586248 7.3520855392e-05 
0.00018347209944 -0.00012433746926 -7.3697894726e-05 -9.4663511774e-05 6.0155627376e-05 0.00020818939672 5.893448325e-05 -0.00011600897143 0.00011559698354 
-3.8140023941e-05 1.6516837933e-06 -3.6396082984e-05 8.6666755804e-06 -9.5673753147e-05 3.5890472209e-05 0.00012089393992 6.7056472445e-05 -2.2474798394e-06 
3.8967993892e-05 -7.0039878853e-05 9.4599096952e-05 0.00011333803971 0.00023353230238 0.00013470222721 -7.8598733217e-06 -1.5240894351e-05 -5.961625815e-05 
1.428017978e-05 3.3614371475e-05 1.264027698e-05 1.2303057015e-05 3.2513129814e-05 1.1682520125e-05 7.2951037114e-05 -0.00025073793518 7.8479744987e-05 
-2.6389245245e-05 -6.0504992312e-06 2.8465647561e-05 7.1696595281e-05 -1.098289511e-05 2.4492963075e-05 -4.7456127546e-05 0.00012692722181 9.473060211e-05 
-7.8634724603e-05 -8.4194647565e-05 -6.8112951805e-05 4.9025623188e-05 3.3482177156e-05 1.2717527469e-05 0.00012143289763 -0.00013569816357 7.1436760476e-05 
3.2401363978e-05 -5.3083420781e-05 -1.6813581513e-05 2.339183508e-05 9.6689475221e-06 2.3871762638e-05 3.7603581116e-05 0.00030239877243 2.1093308856e-05 
3.8052879845e-05 4.2885101486e-05 -6.1381490752e-06 
