# vtk DataFile Version 4.2
Generated by LIGGGHTS
ASCII
DATASET POLYDATA
POINTS 70 float
0.0114581 -0.0368894 0.00699838 -0.0237986 -0.0238458 0.00699828 -0.00516478 -0.0202765 0.00953845 
0.0278628 -0.0211398 0.0135785 0.0230261 -0.0153722 0.00699752 -0.0253441 -0.00911908 0.0113724 
-0.0187622 -0.00161635 0.0107676 -0.00540934 -0.00082461 0.0069993 0.0045111 -0.00742059 0.00934088 
0.0159819 -0.000463851 0.0109253 0.0119743 0.00781084 0.0069976 0.0247776 0.00517861 0.00975104 
-0.0327818 0.0126216 0.00699878 -0.0248283 0.0178785 0.0100133 -0.000589488 0.0181855 0.0102347 
0.00562292 0.011265 0.0139045 -0.0125072 0.0218876 0.00749382 0.00288389 0.0293428 0.00699795 
0.0229398 0.0220761 0.0070533 -0.000836415 -0.0222524 0.0217332 0.0205449 -0.00875754 0.0144138 
-0.00820969 0.00387825 0.0164056 -0.0114136 0.0133337 0.0169576 0.0101142 0.0160929 0.0215669 
0.0225476 0.010684 0.0232497 0.0057422 0.0299437 0.0204631 -0.0141535 -0.0327213 0.0297117 
-0.000932097 -0.0397253 0.0283781 -0.00426073 -0.0305304 0.0304676 -0.0203286 -0.0203268 0.0274441 
-0.00721645 -0.018164 0.0282577 0.00504079 -0.0176016 0.0283518 0.019833 -0.0173874 0.0279802 
0.0294059 -0.0112395 0.0311967 -0.00674141 -0.00769605 0.0261014 0.0291985 -0.00143262 0.0292522 
-0.0127277 0.00477301 0.0347275 -0.00474817 0.00179301 0.0286245 0.0109787 0.0038892 0.0330456 
-0.012138 0.0145033 0.032501 0.0040476 0.0289293 0.0322747 0.0115002 0.0244725 0.0273158 
0.0295522 0.021592 0.0316808 0.00282281 -0.0325029 0.0374722 -0.0125618 -0.0252659 0.0410811 
0.0107596 -0.0251496 0.041906 -0.0216844 -0.0136966 0.0449292 0.00295226 -0.0199709 0.0378388 
0.0380504 -0.0114132 0.036744 -0.0161152 -0.00371844 0.0393055 -0.000240088 -0.00253142 0.0366106 
0.0163072 -0.000789571 0.0443757 0.0206867 -0.00931641 0.0414084 -0.0315248 0.00143338 0.0398353 
-0.0193531 0.0218709 0.0395089 -0.006833 0.0267618 0.0404402 0.0116872 0.0258019 0.0379173 
-0.00905119 -0.0234547 0.0502674 0.020305 -0.0299045 0.0510236 -0.0336379 -0.0136575 0.0531292 
0.0289081 -0.0133596 0.0475458 -0.0282449 -0.001882 0.0510298 -0.00557575 -0.00708143 0.0460092 
-0.0208779 0.00686567 0.0466713 -0.0126155 0.00283972 0.0506102 -0.0020702 0.00309101 0.0460998 
0.00615957 0.000137386 0.051779 0.0273787 0.00968743 0.0508261 -0.00966207 0.0205185 0.0524101 
4.5663e-05 0.0204071 0.0471149 
VERTICES 70 140
1 0 
1 1 
1 2 
1 3 
1 4 
1 5 
1 6 
1 7 
1 8 
1 9 
1 10 
1 11 
1 12 
1 13 
1 14 
1 15 
1 16 
1 17 
1 18 
1 19 
1 20 
1 21 
1 22 
1 23 
1 24 
1 25 
1 26 
1 27 
1 28 
1 29 
1 30 
1 31 
1 32 
1 33 
1 34 
1 35 
1 36 
1 37 
1 38 
1 39 
1 40 
1 41 
1 42 
1 43 
1 44 
1 45 
1 46 
1 47 
1 48 
1 49 
1 50 
1 51 
1 52 
1 53 
1 54 
1 55 
1 56 
1 57 
1 58 
1 59 
1 60 
1 61 
1 62 
1 63 
1 64 
1 65 
1 66 
1 67 
1 68 
1 69 

POINT_DATA 70
FIELD FieldData 7
id 1 70 int
44 732 1464 837 912 1986 1606 936 895 
1371 663 720 467 208 1438 1782 385 1157 
595 2267 398 2166 1751 2117 2149 1929 2782 
2509 2454 2873 2996 2710 2790 3102 2640 2566 
3057 2252 3510 3206 3209 3228 3475 3932 4179 
4006 4181 3841 3364 4052 3265 4362 4280 3857 
3770 3909 3724 5377 4989 4708 4482 5353 5397 
4796 5509 5103 5420 5050 5402 4610 
type 1 70 int
2 2 2 2 2 2 2 2 2 
2 2 2 2 2 2 2 2 2 
2 2 2 2 2 2 2 2 2 
2 2 2 2 2 2 2 2 2 
2 2 2 2 2 2 2 2 2 
2 2 2 2 2 2 2 2 2 
2 2 2 2 2 2 2 2 2 
2 2 2 2 2 2 2 
i 3 70 int
0 0 0 0 0 0 0 0 0 
0 0 0 0 0 0 0 0 0 
0 0 0 0 0 0 0 0 0 
0 0 0 0 0 0 0 0 0 
0 0 0 0 0 0 0 0 0 
0 0 0 0 0 0 0 0 0 
0 0 0 0 0 0 0 0 0 
0 0 0 0 0 0 0 0 0 
0 0 0 0 0 0 0 0 0 
0 0 0 0 0 0 0 0 0 
0 0 0 0 0 0 0 0 0 
0 0 0 0 0 0 0 0 0 
0 0 0 0 0 0 0 0 0 
0 0 0 0 0 0 0 0 0 
0 0 0 0 0 0 0 0 0 
0 0 0 0 0 0 0 0 0 
0 0 0 0 0 0 0 0 0 
0 0 0 0 0 0 0 0 0 
0 0 0 0 0 0 0 0 0 
0 0 0 0 0 0 0 0 0 
0 0 0 0 0 0 0 0 0 
0 0 0 0 0 0 0 0 0 
0 0 0 0 0 0 0 0 0 
0 0 0 
v 3 70 double
-3.0133765208e-07 1.3094281473e-07 1.0611198081e-07 1.3234939053e-07 5.0660713216e-08 9.6450285069e-09 9.8827137128e-08 7.0775292489e-09 8.3125279315e-08 
-1.9421699188e-07 1.4657499534e-07 7.7314956759e-07 5.3585762467e-07 -3.3818250942e-07 9.9922185262e-07 1.7041466958e-07 1.2857292165e-07 8.2848202568e-08 
1.7639767784e-08 3.597162254e-07 1.9445409374e-07 -4.6876437636e-07 2.7347277879e-08 -1.3847694605e-07 -6.9034611428e-07 -1.0985174304e-06 6.5689691977e-07 
-4.743892558e-07 -2.77845832e-09 1.5613939208e-07 -4.495138272e-08 2.2504785855e-07 -1.4104067341e-07 -3.7423382616e-08 -8.3905315405e-08 -1.8555874719e-07 
-3.6064265191e-07 -1.0954990618e-06 1.0247834878e-06 1.2900345596e-06 -6.5412706237e-07 -7.5400512505e-09 3.3481510324e-07 -4.5687602729e-07 -6.398912382e-08 
-2.745883727e-07 -2.2324644239e-07 1.2489246233e-07 -5.2592339475e-07 1.0087475171e-07 1.863661824e-06 4.3668871502e-08 3.2054415144e-07 -4.3005220902e-07 
7.5093145141e-08 -8.7318017558e-07 -7.0111309287e-07 -1.8454091013e-07 -3.9319042631e-08 1.3100635059e-07 1.124530115e-06 1.0657624624e-06 -1.1392101298e-07 
-3.1737496577e-07 -2.2430229749e-08 -1.2719231679e-07 4.1513918017e-07 -4.9640503975e-09 -2.2774838146e-07 -1.3343751636e-07 7.1905475846e-08 1.3773541562e-07 
3.3391046384e-07 1.0058065521e-07 -1.9218324955e-07 5.8754882392e-08 2.849459015e-08 1.4497428762e-07 2.215783686e-07 2.9631295118e-07 2.0502564597e-07 
-1.9241138544e-08 -3.9254961068e-08 -1.1269036283e-07 1.1613147977e-07 2.4958904242e-08 -1.4498489768e-08 -2.983160037e-07 1.8881820228e-07 1.0641029262e-07 
4.2487399376e-07 -6.9408944845e-08 -8.5661002738e-09 -5.2437787153e-07 -8.9023834762e-07 -1.2717699426e-06 8.1140333548e-07 5.0254684705e-07 -4.8781912637e-07 
-3.4892750931e-07 -6.349361151e-07 4.9789843462e-07 2.4432446982e-07 1.1647437192e-07 -1.0936963021e-07 -4.5169125291e-07 -1.4347635844e-07 1.9776751088e-07 
2.308565749e-08 1.0238776259e-07 2.3161367535e-07 -5.6732915301e-08 -8.5546947882e-09 1.6309246148e-07 3.5700805574e-08 4.6386701625e-08 -1.3332141752e-07 
-1.6979688119e-07 -2.3732513074e-07 -8.4660527452e-07 -1.3774979736e-08 7.1825079224e-08 -1.2843616021e-07 1.8887785088e-07 -1.8014263622e-07 -1.5924576289e-07 
-3.9211876781e-08 8.2367262557e-08 -1.9344144476e-07 8.8326409477e-09 -1.4500076038e-07 9.6919111366e-08 -2.9030214257e-07 -1.5536370281e-07 3.6907218669e-08 
-1.8939875026e-07 -9.536276758e-08 2.0653021554e-07 8.9844807016e-08 -2.3696027318e-08 7.962192673e-08 -1.7540316272e-07 -1.6201906796e-07 3.0419753888e-07 
2.6715446072e-08 2.0366078499e-07 1.8775179898e-07 -1.8076248596e-08 -1.5597570832e-07 9.5430088089e-08 -3.0009134453e-08 -1.1497295889e-07 -5.2230069215e-09 
-2.5082048353e-09 5.7409542917e-09 5.9548790983e-09 1.5870963503e-07 -3.1079865129e-08 2.5564494237e-07 1.9177655831e-07 -1.5982960901e-07 3.0193676919e-07 
1.4672655937e-08 1.0718260758e-07 -8.0990249199e-07 -4.3269361967e-08 4.5702746194e-07 -1.6068685961e-07 -3.3310027307e-08 4.738103253e-08 5.3849019753e-08 
6.4761890171e-09 4.0967110493e-08 -1.3080763176e-07 4.764669988e-08 6.3550560036e-09 1.2259959255e-07 -3.7505946563e-07 -8.1634515058e-08 3.2443263303e-08 
8.5567221056e-08 -5.7295351698e-08 7.6603038569e-08 8.9868091988e-08 -2.6446097338e-07 -1.0646425439e-07 -8.6387147816e-08 -4.2764033472e-08 1.3219686136e-07 
-3.013271623e-08 3.7706348889e-07 -1.8288864112e-07 6.8990320115e-08 -2.0970593998e-07 -1.0185254335e-07 -7.9368015821e-08 2.1809469436e-07 -2.7892081289e-08 
-1.2635368051e-07 1.3323314417e-07 8.3201260751e-08 -9.0187031676e-08 1.860491376e-07 3.832707547e-07 3.1274352349e-07 -1.4297992641e-07 2.4149578776e-08 
-1.4269908463e-07 2.4811523836e-09 1.4919479444e-07 
f 3 70 double
-0.00032620183759 0.00014746388168 6.8811268853e-05 0.00034395722542 0.00027825865214 0.00026865402727 8.0577339867e-05 -3.2860713644e-05 -0.00031166868525 
6.8867802184e-05 -5.5427760121e-05 0.00010781926858 -0.00012400342188 1.155264723e-05 -1.7056592638e-05 0.00015622158445 0.00016120438711 -5.2625639629e-05 
-0.00015407676763 5.2633199891e-05 0.00017033152084 6.5473491669e-05 -0.00021492130512 -0.00040232673464 -0.00011573519715 -0.00012767177044 -0.00070313246816 
0.00038167436425 -8.3916919861e-05 0.00013865791149 1.1089823168e-06 0.0002777205306 -0.0001073964481 0.00029425774589 -0.00039551566784 0.00053842937131 
3.2257837612e-05 0.00013753297719 -8.3897860064e-05 -0.00018690407663 0.00037825874235 -0.00018243963959 0.00014816120188 -0.00029988461742 0.00016028808812 
0.00029097686738 0.0001202906188 -6.0958497306e-05 0.00034225759066 -0.00059475877591 0.00031128280314 -0.00024461847874 0.00027862384125 3.5220313915e-05 
-6.434596379e-05 -0.00015710942476 -0.00042865559712 -2.7381337877e-05 -0.00016298106126 -0.00011324407504 -0.00017008152388 -0.00033513354578 7.7094931403e-05 
-2.3618772611e-05 0.00037351958359 -0.00021456769038 0.00016682516515 -3.3668256938e-05 -0.00017819793735 -0.00025032462069 2.9369018985e-05 -7.2824389505e-05 
-4.2005112604e-05 -0.00020572312101 -1.5506745116e-06 -7.9380280442e-05 -0.00025122400786 3.2286532125e-07 3.1523810945e-05 -8.4683669097e-05 6.7391056563e-05 
-2.3977301024e-05 2.5237220704e-05 -7.3991341861e-05 -6.2773596435e-05 -3.8296436873e-05 -5.0116564938e-05 0.00018863056917 -0.00015135072193 -0.00010538903808 
-0.00011149516897 -0.00010550152259 4.1051264958e-06 -1.9022119966e-05 7.4788726829e-05 -1.5494689329e-05 -0.00012278574232 -0.00012504394404 -0.00016619623131 
-3.8499948935e-05 -5.2709070962e-05 -0.00018805424623 -3.1909792187e-05 -1.0528877207e-05 5.3717688698e-05 1.8609996239e-05 2.7392367002e-05 2.7825412433e-06 
-0.00028471328847 -4.5468984365e-05 -2.5178339786e-05 0.00018330476532 0.00023459316903 0.00016273105188 1.7083955008e-05 -2.677473584e-05 -8.3579238853e-05 
-4.1446444636e-05 -0.00010143837866 4.2507722166e-05 6.7805557801e-05 3.6760728486e-05 -1.4799707972e-05 0.00013308993079 -2.7344771379e-06 3.0323161933e-05 
9.5652099089e-05 2.6358434637e-05 -9.9610635971e-06 -1.0190234716e-05 -2.736813059e-05 -3.6026954724e-05 -7.0544415924e-05 5.4992711149e-05 -3.4945544893e-05 
-5.9800055645e-05 5.9750565282e-05 3.8779171647e-06 5.209086918e-05 2.0228937258e-05 -4.8028231313e-05 8.1663505115e-07 4.7207229753e-08 3.751131585e-05 
-1.7348435952e-05 -3.2025808779e-05 -6.6669614911e-05 5.4897794217e-05 -4.2938325197e-05 6.2292953004e-06 3.7943370709e-05 4.5879286139e-06 2.8008407387e-05 
6.9948795615e-06 8.3515924936e-07 1.0219288444e-05 -8.6314450361e-05 6.1896331194e-05 5.5026121219e-05 4.7085470645e-05 5.3869116676e-05 5.4764737867e-05 
-8.1739925896e-05 -1.3743443567e-05 0.0001899776143 7.8787814396e-06 -1.65873671e-06 8.9550775105e-05 -4.4582043555e-05 3.3842689912e-05 -1.1405949271e-05 
6.0947613813e-06 1.7602575805e-05 7.9046085886e-06 -1.0172717559e-05 -2.0933480259e-05 6.3115425533e-06 1.7927174668e-05 1.7108677944e-05 7.681123396e-06 
-1.8813396795e-07 -1.0863823448e-05 7.0103217414e-05 -1.3414956306e-06 -5.0414949684e-05 -3.6051536097e-06 -4.7516483173e-05 -8.4047936896e-05 -5.8420234827e-07 
-7.5026258119e-05 5.5003968257e-05 3.3061998471e-05 -1.0650849638e-05 1.7155382246e-06 9.8968089628e-06 3.8097122257e-05 -1.7576647168e-05 2.5382164921e-05 
-2.5089034706e-05 -2.3610072958e-05 2.9818778962e-06 -6.8913679905e-05 -5.5352498285e-06 -2.3877014439e-05 -6.6771794081e-05 -1.8739628983e-05 -2.5245496916e-05 
2.6048075118e-05 -1.7676377053e-06 9.2753008606e-06 
radius 1 70 double
0.005 0.005 0.005 0.005 0.005 0.005 0.005 0.005 0.005 
0.005 0.005 0.005 0.005 0.005 0.005 0.005 0.005 0.005 
0.005 0.005 0.005 0.005 0.005 0.005 0.005 0.005 0.005 
0.005 0.005 0.005 0.005 0.005 0.005 0.005 0.005 0.005 
0.005 0.005 0.005 0.005 0.005 0.005 0.005 0.005 0.005 
0.005 0.005 0.005 0.005 0.005 0.005 0.005 0.005 0.005 
0.005 0.005 0.005 0.005 0.005 0.005 0.005 0.005 0.005 
0.005 0.005 0.005 0.005 0.005 0.005 0.005 
omega 3 70 double
6.7598548656e-05 -5.3281636323e-05 1.3473077744e-05 4.4847797237e-05 -1.9761287683e-05 -4.2739396289e-05 5.1053018664e-05 -4.3466854495e-05 6.2421494238e-06 
-7.5286123521e-05 0.0003266695338 -1.782798038e-05 -1.4544307921e-05 -8.9178276964e-05 7.1871804935e-05 2.10699008e-05 2.0942433008e-05 -1.4200037455e-05 
2.2663543266e-05 -4.4555035443e-06 -7.8454779716e-05 0.00019504771585 -0.00034817852687 0.00016582227913 0.00069572363153 -0.0011700851751 -0.00035894539058 
8.0509840547e-05 -0.00030010945468 -0.00020015843041 -1.1429022017e-05 -3.5215405638e-05 -0.0002199677181 0.00010210758834 -1.1878095476e-05 1.6819140278e-05 
0.00038967814023 -0.00032823239425 -0.00025540392818 0.00081189211005 -0.00024512958227 -0.00028776154903 2.2450277145e-07 6.2055105985e-05 8.4559762612e-05 
0.0001152180496 -3.3498905047e-05 4.4984008281e-05 -0.00010012011528 0.00045117374323 0.00028463931955 -9.2452169534e-05 -0.0003264538598 8.7464421473e-05 
-0.0003166812673 1.2400492903e-05 -0.0003169103056 7.6869432753e-07 3.2801081596e-05 -7.1356247168e-05 0.00026128600416 -0.00039624026302 -0.00014357013238 
6.0896379199e-05 0.00010046800203 8.7504302335e-05 -0.00011265926921 -4.9264506655e-05 7.2769019827e-05 5.5234281237e-05 -1.3837973512e-06 -4.690971623e-05 
-3.5385673739e-05 2.7903391598e-05 -8.7331075078e-05 -0.00024372619787 -9.6587390094e-05 0.00010908758415 -5.3334389308e-05 0.00013683474458 -0.00015178565225 
-4.4513613411e-05 8.4861126197e-06 -1.5848814786e-05 3.8013631035e-05 -8.4680703758e-06 2.6105393953e-05 6.7048457967e-06 2.6372040944e-05 0.00014404391542 
6.6723090128e-06 -2.6448865808e-05 3.2387988029e-08 -0.00029817737575 0.00033824603666 -0.00038258297684 -0.00022113066387 0.00041805017637 -0.00036689390968 
-0.00020460501789 -9.6754545671e-06 6.8721424289e-06 -9.6860135707e-06 4.4723161809e-05 5.4280813205e-05 3.0710277849e-06 -6.0144858874e-05 9.2871249076e-05 
-9.9880545561e-05 -4.4021689766e-05 3.0254389269e-05 7.3113454576e-05 1.8687111952e-05 -2.5106980201e-05 8.9685365922e-06 -3.2946249073e-05 7.5027717479e-06 
-2.8978155127e-05 -0.00011929043257 3.4228478228e-05 2.7935849783e-05 -3.0059470935e-05 -2.0927172808e-05 -0.00018345900682 -0.00016967950334 -1.5031036963e-06 
-8.9392441555e-05 -3.495531825e-05 1.345932143e-05 5.4975334506e-06 1.7415978622e-05 4.2738363533e-06 -2.9363766188e-05 -2.6096656218e-05 7.7806638419e-05 
9.0979150563e-06 -3.1972085134e-06 -1.9502759726e-06 -2.4984187935e-05 -5.7915296772e-05 -2.4320023351e-05 -0.00015180370698 -8.0389900946e-05 -4.9860383646e-05 
7.5391989235e-05 0.00017317702498 0.00014419179025 5.9545908784e-05 -2.4938996839e-05 8.9560760086e-06 -8.4027235867e-05 9.2017773571e-06 -2.9431839912e-05 
-4.832064197e-05 2.610780671e-05 -2.7484475526e-05 -7.0920235762e-05 -3.4329819648e-05 7.0805548303e-05 -7.0780742085e-05 -1.6430965523e-05 0.00010020470834 
0.00012087171903 9.7873003964e-06 1.0247602991e-05 5.0900586071e-05 -3.1339133126e-05 -8.5182640077e-05 -4.6876709127e-06 1.1290197291e-05 4.0962834671e-05 
-3.8700427253e-05 -8.691409913e-05 2.325150541e-05 2.0759799426e-05 2.2223754994e-05 1.6289460813e-05 -1.5937180679e-05 0.0001196402653 -3.9797197084e-05 
1.1183060923e-05 -1.7833761953e-05 -3.4380125183e-05 -3.8179138617e-05 3.0565139463e-05 -1.1816117338e-05 3.3260437861e-06 -8.1043427976e-06 4.0870498921e-05 
4.9714085626e-06 -3.2499483962e-05 -2.7604805476e-05 4.9835163769e-05 6.4853301064e-05 1.750532977e-05 7.5348407862e-05 2.418853445e-05 4.1525118812e-05 
2.6294596006e-05 -4.4017341681e-05 -4.5703190076e-06 -1.3717371914e-05 -9.9376965223e-06 2.4500154502e-05 4.7628463389e-05 5.4309786312e-05 -3.5887118809e-05 
6.7633286121e-05 1.2232938997e-05 2.607109248e-07 
