# vtk DataFile Version 4.2
Generated by LIGGGHTS
ASCII
DATASET POLYDATA
POINTS 70 float
0.00361318 -0.0184688 0.0174964 -0.00885495 -0.0162858 0.0167135 -0.00398756 -0.0122498 0.0192784 
0.0103243 -0.0103696 0.0164133 0.0118452 -0.0161884 0.0167762 -0.00822209 -0.00372174 0.0186254 
0.00225819 -0.00770295 0.0170658 0.0156705 -0.00152581 0.0193172 -0.00923995 0.00601569 0.0169508 
-0.014853 0.0114248 0.0198166 -0.00676645 0.0135434 0.0159567 0.00542649 0.0146457 0.0157328 
0.00664031 0.00891471 0.017197 0.0159365 0.0148942 0.0211622 -0.0123774 0.0173453 0.0146564 
-0.0102703 0.0191718 0.0211121 -0.00178883 0.0167889 0.0185744 0.00955082 0.0195947 0.0198062 
-0.00325528 -0.020424 0.0260489 0.00974854 -0.0173019 0.0265403 -0.018195 -0.0120735 0.0237682 
-0.01358 -0.01576 0.0226594 -0.00909461 -0.0132896 0.0287647 0.00336521 -0.0122854 0.024563 
0.0132627 -0.00881754 0.0244067 0.0179714 -0.0125167 0.0247832 -0.0139853 -0.00804035 0.0222817 
-0.0135953 -0.00197701 0.0272274 -0.00504744 -0.00671887 0.0271378 -0.00024988 -0.00121074 0.025089 
0.00552652 -0.00583396 0.0252394 0.0211591 -0.0058336 0.022701 -0.0194634 0.00381554 0.025546 
-0.00706522 0.00518011 0.0238797 0.000567347 0.00640052 0.0263188 0.00923411 0.00679379 0.0253365 
0.0104006 0.000908102 0.0252118 -0.01773 0.0125882 0.0271099 -0.00922263 0.0124205 0.0258594 
0.00716568 0.0140049 0.0250097 0.0181847 0.00899844 0.0274931 -0.00280375 0.0181134 0.0268997 
0.00290112 0.021619 0.0264744 -0.00739837 -0.0204341 0.0309294 0.00313815 -0.0217158 0.0299548 
-0.0161999 -0.0133452 0.0333576 -0.00971208 -0.00977294 0.0344159 -0.00173451 -0.0131563 0.0303273 
0.00641969 -0.015444 0.0334225 0.0100676 -0.0110392 0.0315661 0.0148187 -0.0148033 0.0318232 
0.0192311 -0.00932647 0.0352021 -0.0169731 -0.00579203 0.0344948 -0.0102467 -0.00153297 0.0343218 
0.00220181 -0.0060739 0.0325154 0.00473404 -0.000966743 0.0351046 0.015749 -0.00362422 0.0299494 
-0.0216431 0.00124628 0.0356984 -0.0165502 0.0063843 0.0347815 -0.00659112 0.00617174 0.0331011 
-0.000357859 0.00555279 0.0345094 0.0112002 0.000600858 0.0355323 0.0152039 0.00804053 0.0344892 
-0.0118191 0.00947204 0.0326347 -0.0148517 0.0144591 0.0359853 -0.00449985 0.0143566 0.0336285 
0.00264218 0.0127261 0.0311109 0.00550984 0.0120039 0.0363552 0.00309753 0.0195895 0.0336937 
0.0120091 0.0173451 0.0314808 
VERTICES 70 140
1 0 
1 1 
1 2 
1 3 
1 4 
1 5 
1 6 
1 7 
1 8 
1 9 
1 10 
1 11 
1 12 
1 13 
1 14 
1 15 
1 16 
1 17 
1 18 
1 19 
1 20 
1 21 
1 22 
1 23 
1 24 
1 25 
1 26 
1 27 
1 28 
1 29 
1 30 
1 31 
1 32 
1 33 
1 34 
1 35 
1 36 
1 37 
1 38 
1 39 
1 40 
1 41 
1 42 
1 43 
1 44 
1 45 
1 46 
1 47 
1 48 
1 49 
1 50 
1 51 
1 52 
1 53 
1 54 
1 55 
1 56 
1 57 
1 58 
1 59 
1 60 
1 61 
1 62 
1 63 
1 64 
1 65 
1 66 
1 67 
1 68 
1 69 

POINT_DATA 70
FIELD FieldData 7
id 1 70 int
724 3936 3250 1166 4213 1617 2813 1999 4635 
5024 385 3884 5455 1796 4832 3233 4507 4318 
3015 2132 1943 2801 3295 5438 1477 2268 1762 
209 842 942 4035 2726 665 2889 2163 3532 
5417 4735 3076 1380 596 2282 44 5432 3230 
3793 4394 3387 3959 3755 2654 914 5388 736 
2582 2469 4085 3867 1446 3500 5547 2526 901 
3117 4210 2182 398 5141 468 5080 
type 1 70 int
2 2 2 2 2 2 2 2 2 
2 2 2 2 2 2 2 2 2 
2 2 2 2 2 2 2 2 2 
2 2 2 2 2 2 2 2 2 
2 2 2 2 2 2 2 2 2 
2 2 2 2 2 2 2 2 2 
2 2 2 2 2 2 2 2 2 
2 2 2 2 2 2 2 
i 3 70 int
0 0 0 0 0 0 0 0 0 
0 0 0 0 0 0 0 0 0 
0 0 0 0 0 0 0 0 0 
0 0 0 0 0 0 0 0 0 
0 0 0 0 0 0 0 0 0 
0 0 0 0 0 0 0 0 0 
0 0 0 0 0 0 0 0 0 
0 0 0 0 0 0 0 0 0 
0 0 0 0 0 0 0 0 0 
0 0 0 0 0 0 0 0 0 
0 0 0 0 0 0 0 0 0 
0 0 0 0 0 0 0 0 0 
0 0 0 0 0 0 0 0 0 
0 0 0 0 0 0 0 0 0 
0 0 0 0 0 0 0 0 0 
0 0 0 0 0 0 0 0 0 
0 0 0 0 0 0 0 0 0 
0 0 0 0 0 0 0 0 0 
0 0 0 0 0 0 0 0 0 
0 0 0 0 0 0 0 0 0 
0 0 0 0 0 0 0 0 0 
0 0 0 0 0 0 0 0 0 
0 0 0 0 0 0 0 0 0 
0 0 0 
v 3 70 double
0.017092658264 -0.019683025988 0.25853984637 0.04754655861 -0.036236648961 0.22804321252 0.034930228006 -0.036729114039 0.2438988111 
0.00011866991002 -0.014791337733 0.23201182803 -0.0047869932123 -0.012242787029 0.25944921312 0.006509661192 -0.05175705761 0.21657810002 
0.012781017258 -0.038718950392 0.22876600099 0.0059285606447 -0.051848612288 0.23505696566 -0.010333038625 -0.061101814673 0.18637455082 
-0.01205583101 -0.056409922936 0.14441711689 -0.0080727170593 -0.042305234249 0.1774608017 0.035563066137 -0.03806359401 0.18927096292 
0.023588905286 -0.054031063515 0.19282166472 0.061668280033 -0.056028942579 0.19592696671 -0.032841645024 -0.050109997919 0.16095838384 
0.00015844180809 -0.013986687697 0.14813488135 -0.00063018667225 -0.019249170406 0.14488843555 0.071393040507 -0.03808666557 0.16228622288 
0.024957835356 -0.014865199528 0.32798165702 -0.0084189287058 0.0010341771118 0.32578907448 0.045168500426 -0.072286845625 0.2269758829 
0.061976935843 -0.054967735812 0.23725886256 0.041855849719 -0.052676774397 0.26723040984 0.018081735395 -0.045746464185 0.27509190229 
-0.019124808324 -0.025557310972 0.27243822039 -0.02929481463 -0.038867334566 0.28774117342 0.023725323862 -0.057499105996 0.22616424898 
0.0090667390115 -0.062057661969 0.22974201045 0.017623150658 -0.047863721561 0.2358806607 0.0073028423009 -0.050967341309 0.21324486527 
0.0095384102955 -0.044417916376 0.25089688454 -0.012363784183 -0.059552041575 0.25938932677 -0.011412372314 -0.078865653417 0.19640540838 
0.0050305732642 -0.0475076427 0.1863006225 0.01122300037 -0.045439102328 0.1682792381 0.037295039121 -0.049927327565 0.22237755567 
0.024527294492 -0.052619955691 0.25163377097 -0.02973573216 -0.042032020828 0.14768361334 0.015756163027 -0.012291573438 0.14107878577 
0.054490402319 -0.022761702109 0.15122079472 0.03340754721 -0.068053120399 0.2206683855 0.037292637341 -0.017845746049 0.11967257959 
0.045503165381 -0.013651815802 0.11216404857 0.034752426717 -0.037819306242 0.33235099205 0.0073710517376 -0.00086320305589 0.3671214723 
0.10047499944 -0.10330546779 0.26710178764 0.067720071005 -0.067874664564 0.27023755217 0.040025247355 -0.033775211374 0.29459247723 
0.016770416434 -0.014676145457 0.38828337024 0.0089931223461 -0.032672337891 0.32539390214 0.0053870308189 -0.057173605157 0.35528377122 
-0.0077710578492 -0.084613512796 0.35031773468 0.028569007687 -0.092110061608 0.23611016382 0.054573705187 -0.12003142865 0.23160441849 
0.011486286497 -0.069174979555 0.29845356773 0.066335294676 -0.10295024936 0.29598777807 0.0064037804559 -0.055639995224 0.28908873444 
-0.0071239995713 -0.080880952735 0.18132034684 0.01398043547 -0.051243220298 0.11555305562 0.036996367447 -0.053809874862 0.15225391255 
0.063311403599 -0.13977335692 0.12010067926 0.07566715892 -0.14103294041 0.30633122604 0.028998909929 -0.081933963743 0.2236979131 
0.037874722341 -0.059545367835 0.14518887729 0.036989828758 0.012909682446 0.068081675356 0.063084943302 -0.043580515979 0.10996363203 
0.043759928803 -0.067641132302 0.14706156395 0.075104901296 -0.11465474996 0.10438970423 0.047344244172 -0.065911112413 0.098331112718 
0.072726004848 -0.044745775365 0.16404581918 
f 3 70 double
-0.0030219132384 0.00071252208051 -0.013360254035 0.00057368011976 6.1302149525e-05 -0.0097559680703 0.0010315133739 -0.0014764111653 -0.013474113542 
0.0023762245322 -0.0012090313169 -0.011013116855 0.0010677965928 -0.00013344738695 -0.0098004712002 -0.0015062514972 -0.00067613879533 -0.011825871465 
-0.0041641953027 0.0025137407727 -0.012226218008 -0.00064363453404 -0.0010041655634 -0.010656056631 0 0 -0.0098744152677 
0.02032093933 -0.00099653345923 -0.029893922795 0 0 -0.0098744152677 0 0 -0.0098744152677 
-0.0020353921554 0.0031459415956 -0.0093024857615 0.0063474963299 -0.0020261841811 -0.01632801089 0 0 -0.0098744152677 
-0.0028366037359 0.00034670826835 -0.0077840753142 1.9429815605e-05 -0.00024782728215 -0.010112189196 -0.00019991148956 0.00041150754079 -0.0096919498645 
-0.0071318467913 -0.0028926823493 -0.01070154749 -0.0073916936596 -0.0056753662024 -0.022685893914 -3.234732206e-05 1.3108344314e-05 -0.0098643523635 
-7.3534528543e-05 -0.00038579630145 -0.0094795907777 9.5919215947e-05 7.7968593335e-05 -0.009843442739 -0.0020519093891 0.00062873662153 -0.0086245735149 
-0.00052303199519 0.0023117155388 -0.0060981951671 0.0031590683176 -0.0097756944858 -0.0069572456038 -0.00014560151241 0.00079724430799 -0.010429305878 
-9.8990357079e-05 -1.2762937398e-05 -0.0097922783554 -0.00068029074905 0.00052027094506 -0.0095737931875 -0.00054937016073 -0.00019130001449 -0.010539138617 
-0.0041920750056 -0.0027304820454 -0.013941968035 0.0024083007881 0.0047688206078 -0.011059538035 6.3074667946e-05 0.00012719296251 -0.0091775908628 
-0.0010385014131 -0.00021989018179 -0.010550382705 -0.0012901562862 0.0062027826453 -0.012616915425 -0.0021006501449 0.00095375721954 -0.0089224682872 
-0.0035305889427 0.0044129206348 -0.0083742948925 -0.033732016114 0.012061933553 0.063804444199 0.0020199241103 -0.0023689688639 -0.0096904861475 
0.0015167803274 -0.0049246696693 -0.014440282556 0.0025209792175 0.0039421270592 -0.011559102725 0.0010160736628 -0.0022497814216 -0.012134333613 
0 0 -0.0098744152677 0 0 -0.0098744152677 0 0 -0.0098744152677 
-0.014944739042 0.012819672401 -0.0086901145364 0 0 -0.0098744152677 0.00091812763924 0.0015085217118 -0.0083062808613 
-0.0056742682165 0.0048110972885 -0.0076084345706 0 0 -0.0098744152677 0.0048359248542 0.032556473734 0.0081159618312 
0 0 -0.0098744152677 0 0 -0.0098744152677 -0.0029550183601 0.0042972964854 -0.0028768498687 
0 0 -0.0098744152677 0 0 -0.0098744152677 0.0067978302569 6.4892745838e-05 -0.0075854143431 
0 0 -0.0098744152677 0 0 -0.0098744152677 0 0 -0.0098744152677 
0 0 -0.0098744152677 -0.0043281669796 0.0014136173451 -0.0047169720801 -0.002669124698 -0.0037212362014 -0.0089164606886 
0 0 -0.0098744152677 0 0 -0.0098744152677 0.034748863668 0.030985465808 -0.029800589245 
0 0 -0.0098744152677 0 0 -0.0098744152677 0 0 -0.0098744152677 
-0.00017764955313 3.3633321438e-05 -0.0093877621805 
radius 1 70 double
0.003 0.003 0.003 0.003 0.003 0.003 0.003 0.003 0.003 
0.003 0.003 0.003 0.003 0.003 0.003 0.003 0.003 0.003 
0.003 0.003 0.003 0.003 0.003 0.003 0.003 0.003 0.003 
0.003 0.003 0.003 0.003 0.003 0.003 0.003 0.003 0.003 
0.003 0.003 0.003 0.003 0.003 0.003 0.003 0.003 0.003 
0.003 0.003 0.003 0.003 0.003 0.003 0.003 0.003 0.003 
0.003 0.003 0.003 0.003 0.003 0.003 0.003 0.003 0.003 
0.003 0.003 0.003 0.003 0.003 0.003 0.003 
omega 3 70 double
1.9453385302 -6.6903587604 3.0317984455 0.60309711058 1.5687497961 5.5771916634 -1.2063541516 -1.2475201663 1.552922837 
-1.8885906476 -0.49646160483 -3.552464864 -5.1042765365 0.64608541185 3.2852375197 -1.4723913582 -1.3745101327 1.2460731254 
-2.1382371978 -1.2607291883 2.4960190581 -1.6995692045 -0.38199025643 -1.9846738875 1.135442885 3.910513208 2.2592440991 
-0.96542615293 8.0103238206 5.356730624 0.31510705679 0.04968386648 2.4192450237 -0.63223144667 2.1862125853 0.078506514069 
0.69845963412 3.5898795185 -3.9442467163 0.52876979184 -3.3285574406 -3.752467237 -6.3297855802 5.1184327069 6.2021602228 
-8.790341357 -0.63296086919 1.8475235462 -3.1853549141 -2.4276161721 1.26908876 -5.4537866941 -4.4650399895 -2.8035183798 
-6.7676273965 -4.3568258411 -0.013338014883 -1.590847124 -1.8317871821 2.1498416241 -1.0083621422 -3.2724976702 3.2632794874 
0.29285540753 -1.1192673705 3.3147043073 -3.9357106164 -0.66797675703 3.6427603765 -3.6913411727 0.92124286681 0.10290811126 
-5.0313538132 -0.080158810729 -4.6353546776 -4.6929309684 1.3092124128 -1.5338321752 -1.581819858 1.6828863977 4.7469085875 
0.60049102169 3.6032413303 -0.087186298426 2.2226490391 -2.1083115063 0.054936429444 -2.9691118496 -0.86127831736 0.39116539877 
-2.8924139111 -1.7090911214 2.4355135709 1.7158803186 1.116475504 -1.9218320131 0.39349113127 -1.0633493348 4.2317332088 
-2.9813326818 -3.1503501808 0.3812619307 -8.111769467 -3.2295623401 4.830100726 -7.2671230313 -3.5284953274 -3.5904441999 
-1.0006771072 -1.1208702558 -0.63537401799 -5.2575031744 -1.8668776202 0.42022260963 5.7963274452 4.1430827058 6.7586946737 
5.5638837858 -2.6463117573 5.4158769226 -0.27589074087 -0.096999438512 -4.8350816618 -1.7889025513 7.951570488 -0.55489529929 
-0.041063751901 1.5111954026 -3.2833245169 -0.20592352102 2.063556026 -0.72347555475 2.2267467045 -0.25119903828 -2.4055135974 
2.6506277223 15.727560776 1.8936444862 -37.839426273 29.133514761 -0.22630688724 -10.412096365 -0.94060790425 1.7223055855 
-17.830989222 1.7258317574 -3.5494567291 -14.060866236 -6.8496163295 -5.3369067308 1.1636760784 -1.3701553952 -4.9871921735 
16.345708652 -2.4090791404 -3.3352905246 -9.0061115309 6.1184848303 5.8813216486 16.458344157 15.926540909 10.037928962 
-1.4842366765 7.5359901249 2.3221250615 13.794669706 9.4480823515 11.378044824 0.72536985381 4.2355254306 -1.9124319418 
-5.4448101707 -1.1294422471 11.553246296 -0.23323523517 -8.1150127916 -1.5777014611 31.885059296 37.644349745 12.903234827 
8.997923349 2.669218808 -23.795588221 10.85312307 27.472940727 0.95456866552 -3.9066822399 4.98109681 -0.032726920844 
-0.081074157363 -3.5472201626 -2.9503216867 -1.4774555966 2.1017040076 -6.8444945672 -0.048741022322 1.8939323175 0.89100710676 
1.862686739 0.88311099764 -12.962310085 5.6435453836 2.8978758562 -0.66102236567 16.22936939 8.5669837555 -8.1648277916 
-6.7421471892 -11.875379076 0.16518299538 
