# vtk DataFile Version 4.2
Generated by LIGGGHTS
ASCII
DATASET POLYDATA
POINTS 70 float
0.0114581 -0.0368894 0.00699838 -0.0237986 -0.0238458 0.00699828 -0.00516478 -0.0202765 0.00953845 
0.0278628 -0.0211398 0.0135785 0.0230261 -0.0153722 0.00699752 -0.0253441 -0.00911908 0.0113724 
-0.0187622 -0.00161635 0.0107676 -0.00540934 -0.00082461 0.0069993 0.0045111 -0.00742059 0.00934088 
0.0159819 -0.000463851 0.0109253 0.0119743 0.00781084 0.0069976 0.0247776 0.00517861 0.00975104 
-0.0327818 0.0126216 0.00699878 -0.0248283 0.0178785 0.0100133 -0.000589488 0.0181855 0.0102347 
0.00562292 0.011265 0.0139045 -0.0125072 0.0218876 0.00749382 0.00288389 0.0293428 0.00699795 
0.0229398 0.0220761 0.0070533 -0.000836414 -0.0222524 0.0217332 0.0205449 -0.00875754 0.0144138 
-0.00820969 0.00387825 0.0164056 -0.0114136 0.0133337 0.0169576 0.0101142 0.0160929 0.0215669 
0.0225476 0.010684 0.0232497 0.0057422 0.0299437 0.0204631 -0.0141535 -0.0327213 0.0297117 
-0.000932094 -0.0397253 0.0283781 -0.00426073 -0.0305304 0.0304676 -0.0203286 -0.0203268 0.0274441 
-0.00721645 -0.018164 0.0282577 0.00504079 -0.0176016 0.0283518 0.019833 -0.0173874 0.0279802 
0.0294059 -0.0112395 0.0311967 -0.00674141 -0.00769605 0.0261014 0.0291985 -0.00143261 0.0292522 
-0.0127277 0.00477301 0.0347275 -0.00474817 0.00179301 0.0286245 0.0109787 0.0038892 0.0330456 
-0.012138 0.0145033 0.032501 0.0040476 0.0289293 0.0322747 0.0115002 0.0244725 0.0273158 
0.0295522 0.021592 0.0316808 0.00282281 -0.0325029 0.0374722 -0.0125618 -0.0252659 0.0410811 
0.0107596 -0.0251496 0.041906 -0.0216844 -0.0136966 0.0449292 0.00295226 -0.0199709 0.0378388 
0.0380504 -0.0114132 0.036744 -0.0161152 -0.00371844 0.0393055 -0.000240087 -0.00253142 0.0366106 
0.0163072 -0.000789572 0.0443757 0.0206867 -0.00931641 0.0414084 -0.0315248 0.00143338 0.0398353 
-0.0193531 0.0218709 0.0395089 -0.006833 0.0267618 0.0404402 0.0116872 0.0258019 0.0379173 
-0.0090512 -0.0234547 0.0502674 0.020305 -0.0299045 0.0510236 -0.0336379 -0.0136575 0.0531292 
0.0289081 -0.0133596 0.0475458 -0.0282449 -0.001882 0.0510298 -0.00557575 -0.00708143 0.0460092 
-0.0208779 0.00686567 0.0466713 -0.0126155 0.00283972 0.0506102 -0.0020702 0.00309101 0.0460998 
0.00615957 0.000137386 0.051779 0.0273787 0.00968743 0.0508261 -0.00966207 0.0205185 0.0524101 
4.5663e-05 0.0204071 0.0471149 
VERTICES 70 140
1 0 
1 1 
1 2 
1 3 
1 4 
1 5 
1 6 
1 7 
1 8 
1 9 
1 10 
1 11 
1 12 
1 13 
1 14 
1 15 
1 16 
1 17 
1 18 
1 19 
1 20 
1 21 
1 22 
1 23 
1 24 
1 25 
1 26 
1 27 
1 28 
1 29 
1 30 
1 31 
1 32 
1 33 
1 34 
1 35 
1 36 
1 37 
1 38 
1 39 
1 40 
1 41 
1 42 
1 43 
1 44 
1 45 
1 46 
1 47 
1 48 
1 49 
1 50 
1 51 
1 52 
1 53 
1 54 
1 55 
1 56 
1 57 
1 58 
1 59 
1 60 
1 61 
1 62 
1 63 
1 64 
1 65 
1 66 
1 67 
1 68 
1 69 

POINT_DATA 70
FIELD FieldData 7
id 1 70 int
44 732 1464 837 912 1986 1606 936 895 
1371 663 720 467 208 1438 1782 385 1157 
595 2267 398 2166 1751 2117 2149 1929 2782 
2509 2454 2873 2996 2710 2790 3102 2640 2566 
3057 2252 3510 3206 3209 3228 3475 3932 4179 
4006 4181 3841 3364 4052 3265 4362 4280 3857 
3770 3909 3724 5377 4989 4708 4482 5353 5397 
4796 5509 5103 5420 5050 5402 4610 
type 1 70 int
2 2 2 2 2 2 2 2 2 
2 2 2 2 2 2 2 2 2 
2 2 2 2 2 2 2 2 2 
2 2 2 2 2 2 2 2 2 
2 2 2 2 2 2 2 2 2 
2 2 2 2 2 2 2 2 2 
2 2 2 2 2 2 2 2 2 
2 2 2 2 2 2 2 
i 3 70 int
0 0 0 0 0 0 0 0 0 
0 0 0 0 0 0 0 0 0 
0 0 0 0 0 0 0 0 0 
0 0 0 0 0 0 0 0 0 
0 0 0 0 0 0 0 0 0 
0 0 0 0 0 0 0 0 0 
0 0 0 0 0 0 0 0 0 
0 0 0 0 0 0 0 0 0 
0 0 0 0 0 0 0 0 0 
0 0 0 0 0 0 0 0 0 
0 0 0 0 0 0 0 0 0 
0 0 0 0 0 0 0 0 0 
0 0 0 0 0 0 0 0 0 
0 0 0 0 0 0 0 0 0 
0 0 0 0 0 0 0 0 0 
0 0 0 0 0 0 0 0 0 
0 0 0 0 0 0 0 0 0 
0 0 0 0 0 0 0 0 0 
0 0 0 0 0 0 0 0 0 
0 0 0 0 0 0 0 0 0 
0 0 0 0 0 0 0 0 0 
0 0 0 0 0 0 0 0 0 
0 0 0 0 0 0 0 0 0 
0 0 0 
v 3 70 double
-3.553248783e-07 -1.8398161667e-07 2.1701472572e-08 1.3792328931e-07 4.5805451229e-08 -1.9339585868e-08 -2.8577495541e-07 -4.0292095255e-08 7.4256611133e-08 
-3.332114361e-07 -1.9626184643e-07 -7.7121829977e-07 1.7939813866e-07 1.6061324148e-08 1.7226876468e-07 2.0194593446e-08 7.5547495206e-08 2.0965180733e-07 
-7.1767837535e-08 1.5746017242e-07 7.6543575307e-08 -6.7256224753e-08 -1.0237986873e-07 -7.4908713857e-07 -1.3974356144e-07 6.323697257e-07 -2.0496037463e-06 
1.0838726124e-08 -3.4077965596e-07 -2.879343098e-08 -1.3300419273e-07 -3.9923643111e-08 3.7074905417e-08 -2.0360584305e-07 1.9727262521e-07 4.36952436e-08 
-6.7339484268e-07 -7.3775457423e-07 1.4889784345e-06 1.1013250232e-07 -1.0469659145e-06 -7.5638543121e-07 1.338908833e-06 -4.5907418514e-07 2.9491118103e-07 
-1.2594072931e-07 -1.506326546e-07 -2.6660114806e-07 -1.0226532841e-06 6.0760024134e-07 2.5552246793e-06 7.3647618417e-07 1.8505350296e-07 -4.1650935705e-07 
3.792413836e-07 1.0293102479e-07 7.7170266273e-07 -4.1618214858e-09 7.2385313792e-08 1.5536243942e-08 -5.001091513e-07 -2.0291194096e-07 7.5624856146e-07 
2.1671208575e-07 -2.4083396963e-07 -3.1111753091e-07 5.2076046162e-07 -1.2212351382e-07 1.7213949246e-08 -2.0314421352e-07 -2.4938724115e-07 2.7424048287e-07 
-9.7194083437e-08 2.9162955905e-07 -5.9979224851e-08 1.3870192977e-07 -5.8034971236e-08 -1.3347924322e-07 -9.7194144202e-08 -3.6687304735e-08 -1.2829437406e-07 
-2.085829566e-07 2.027351262e-08 -6.7510765237e-08 -7.6947521516e-08 4.8068845156e-08 9.2419337397e-08 1.4162028215e-07 1.4452256978e-07 5.2500586681e-09 
1.1935627086e-07 2.0994379247e-07 -5.9607616129e-08 6.8966972092e-07 4.0051736596e-07 6.2614955518e-07 1.5644282815e-07 4.6079695376e-07 1.2478855346e-07 
-5.3643993912e-08 -1.2369467772e-06 2.5212642723e-07 2.0447327622e-08 1.9637685794e-07 1.2453075986e-07 3.1876720048e-07 -2.5418072858e-07 -1.905764061e-07 
1.2622697459e-07 3.1036188109e-07 -3.1309272852e-08 1.1436635752e-07 7.4863078064e-08 3.5115003205e-07 2.5552111311e-07 -4.6905479831e-08 5.4172948938e-08 
-3.8573644695e-07 8.3279378335e-08 -1.5177643358e-07 2.2899614307e-08 2.1683872284e-07 -4.0954490118e-08 6.7144560855e-07 -4.356161673e-07 2.1221607191e-07 
8.9824701209e-08 -1.3378235291e-07 -3.0202121729e-08 -5.7690502825e-08 1.0297772001e-07 -3.9339224168e-08 2.3929239895e-07 1.8147730859e-07 1.8987289396e-07 
-6.700259747e-08 4.8266404167e-08 1.30768656e-07 6.9270612284e-08 5.592864053e-08 -1.5527472923e-07 1.4494980033e-07 1.0985263902e-08 -2.9362547403e-08 
-3.1415459008e-07 -1.974824266e-07 2.3835212561e-07 8.7190972168e-08 2.2808044374e-07 1.9445009901e-07 1.9317118291e-07 -1.6051638691e-07 5.5930563189e-08 
6.7584923707e-08 -2.4723802742e-08 -1.5191026083e-07 1.6964808158e-08 1.2668721526e-07 2.0467901783e-07 2.5431474572e-07 -6.7354614132e-08 5.0208538267e-08 
1.0743962213e-06 -3.059744178e-07 1.4690968295e-06 -2.9122633587e-07 -9.8289676235e-08 3.4777723192e-07 -1.3092218034e-07 3.7095287907e-08 1.5782933927e-07 
2.9233847979e-08 2.6542607843e-08 1.1797530892e-07 -1.7011813931e-07 1.59871067e-07 1.1167220492e-08 3.4928218222e-07 2.1427452872e-07 6.7626661702e-08 
-7.3211888574e-08 5.4635648199e-08 -1.4548078391e-07 -2.2323795015e-07 -3.8020743533e-08 -1.0997565307e-07 2.0965037343e-07 -2.6340974629e-07 -3.3324056513e-07 
-1.0318557123e-07 1.7039937683e-07 7.5551125535e-08 -2.1108744592e-07 1.5634879845e-07 -2.4201296341e-07 -3.8930276704e-08 -1.2881254699e-07 -1.5497111126e-07 
2.9820556781e-08 3.5103069918e-08 9.8451353446e-08 1.3128642182e-08 -2.0483866975e-07 -1.542404886e-07 -1.6686664443e-07 4.3943340722e-07 -5.7464328143e-07 
-2.9205261623e-07 -1.6660381162e-08 -2.103750958e-07 
f 3 70 double
-6.7048995159e-05 3.7386148447e-05 9.8434836946e-05 0.00026545278042 0.00029688901714 0.0002493294882 8.0764030339e-05 -5.7274074767e-05 -0.00031523485752 
1.550724805e-05 -6.3815256658e-05 0.00034161386454 8.866892329e-05 1.9576752501e-05 0.00010792137127 0.00014721536961 0.00015641800153 -9.1827772653e-05 
-0.00011685770773 6.8127754211e-05 0.00015301669131 8.6102473341e-06 -0.00014654175056 2.2574733743e-05 -0.00011684922236 0.00019155572763 -0.00057016971765 
0.00058375745547 5.4081691315e-06 0.00017668972325 -3.5058055807e-05 0.00031420255385 2.0544077808e-05 0.00026854682071 -0.00046289396843 0.00056256828675 
-5.5989381568e-05 5.9619259123e-05 -6.1209349697e-05 -0.00013548549873 0.00025402630802 -0.0002962428794 -0.00062225589147 0.0003046745763 -3.0133183338e-06 
0.00016599190191 4.9814891157e-05 -0.00016662510868 0.00025028832569 -0.00060217931712 0.00041689233713 0.00061938012645 0.00015406287262 4.8341688412e-05 
-0.00024281176383 -0.00040306151689 -0.00038572504525 -1.2732168223e-05 -0.00013488745001 -0.00012647320943 -0.00027720715088 -0.00059648968744 0.00019143868095 
-3.6109192081e-05 0.00035493895044 -0.00022721084487 0.00034294106356 -0.00044482786448 -0.00021243378878 -0.00024587328394 1.7550346698e-05 -6.0820770197e-05 
-5.7470934313e-05 -0.00021722367542 2.5972134065e-05 -0.00012324526984 -0.00028967011975 8.964835395e-05 -2.1446949575e-07 -0.00015003880781 -1.5325179466e-06 
-3.9236772758e-05 2.0097513103e-05 -0.00010174771812 -6.7700200785e-05 3.0409128847e-05 -7.8978343089e-05 0.00025553824034 -9.1180846789e-05 0.0001431961243 
-0.00010786950432 -8.0247117321e-05 1.5948460351e-06 2.3570478244e-05 9.5280600803e-05 7.4694572726e-05 -0.00023819685076 -7.3893988935e-05 -6.4933577713e-05 
-0.00014660252146 -7.4337897168e-05 -9.4039474713e-05 -4.3202616227e-05 -3.1670832907e-05 4.5398692957e-05 2.1458458629e-05 6.6359490727e-05 -1.4485623105e-05 
-0.0002981467824 -4.9901213009e-05 -1.1310837237e-05 0.00015142602879 0.0002319585342 0.00016544269906 -1.2861756269e-05 -1.3310055056e-05 -9.7126653654e-05 
-3.722508685e-05 -0.00013986103248 2.6456964849e-05 4.4935853263e-05 2.004300882e-05 -1.2870409715e-05 0.00010599782468 9.6200581382e-06 -1.7506663813e-05 
0.00011719762256 5.5213434912e-05 -6.5302164643e-05 8.9411077967e-06 9.4375612778e-06 -3.2188240811e-05 2.5875813415e-05 5.5789594263e-05 1.109187862e-05 
-5.3787400319e-05 6.431611584e-05 -8.601475352e-06 1.6388001917e-05 2.6453683526e-05 -3.2039711069e-05 -1.7441981252e-06 -1.1795627154e-05 2.9490978114e-05 
5.4585697447e-06 -6.3021403722e-05 -6.0295662733e-05 2.2709510447e-05 -0.00011554176704 5.501362896e-05 2.3648431327e-05 9.4613438514e-05 -1.2902147138e-05 
8.8026983361e-06 6.7811893561e-06 -5.7073314918e-06 -7.8605666795e-05 8.1349090342e-05 5.0211185419e-05 1.1660175981e-05 6.5593313617e-05 2.4091330364e-05 
-9.861430579e-06 2.3070664358e-05 0.00013365813884 -0.00015369692456 4.865935064e-05 9.0090703071e-05 -4.0597370739e-05 2.8793423185e-05 -5.1602008056e-05 
3.4012182698e-05 3.2412251821e-06 1.1398179395e-05 -8.2738161184e-06 -2.4902493712e-05 -4.9672666159e-06 -4.64689267e-05 1.8020050828e-06 -5.9585306179e-06 
-7.2369281442e-06 -9.1936298617e-06 7.5266740958e-05 -1.965803243e-05 -4.1293733913e-05 8.7102876785e-06 -9.0659736977e-06 -9.8349208838e-06 -9.4075047856e-05 
-4.4140065815e-05 3.6176430776e-05 2.3640434347e-05 -9.2793046902e-06 1.1147031294e-05 1.4655085688e-05 -3.3085396958e-05 -4.1194349761e-05 5.0502566357e-05 
-4.2383249057e-05 -5.6126499627e-05 -1.4735739968e-05 -6.4540411624e-05 -8.4558236626e-06 -1.8989179242e-05 4.3680396057e-05 -3.1859138949e-05 -6.0909301174e-06 
3.6083450666e-05 -1.9687561058e-05 5.4260700555e-06 
radius 1 70 double
0.005 0.005 0.005 0.005 0.005 0.005 0.005 0.005 0.005 
0.005 0.005 0.005 0.005 0.005 0.005 0.005 0.005 0.005 
0.005 0.005 0.005 0.005 0.005 0.005 0.005 0.005 0.005 
0.005 0.005 0.005 0.005 0.005 0.005 0.005 0.005 0.005 
0.005 0.005 0.005 0.005 0.005 0.005 0.005 0.005 0.005 
0.005 0.005 0.005 0.005 0.005 0.005 0.005 0.005 0.005 
0.005 0.005 0.005 0.005 0.005 0.005 0.005 0.005 0.005 
0.005 0.005 0.005 0.005 0.005 0.005 0.005 
omega 3 70 double
-2.3312041455e-05 4.1934211929e-05 6.7848020045e-05 -5.5709756296e-05 2.0959438996e-05 -4.469693008e-05 6.8999288093e-05 3.4236039232e-05 4.2634627795e-05 
0.00013538456592 -0.00019962004522 0.00026767685964 -5.6537150965e-05 4.2207456307e-05 9.1669658527e-05 -6.4333002448e-06 -4.4764064981e-06 -3.7960638233e-05 
-4.0113288309e-06 1.3096811226e-05 -3.4301430315e-05 2.5210997625e-06 -0.00022872114823 6.9150168251e-05 -0.00019303491311 0.00048825902863 0.00020189873156 
-0.00013665315912 4.3132298909e-05 0.00016091774974 5.8141574503e-06 6.1583899851e-05 -1.2374731607e-05 -0.0001036860786 -0.000158843324 0.00012944149526 
0.00040006452297 -0.0003705720741 -0.00017436921367 0.0004426098265 -0.00046156336313 -0.00020553139894 -9.5270895052e-05 -0.00062328929977 -3.1472273282e-05 
-0.00013381033458 -2.872800688e-06 7.5030919265e-05 -0.00014458111038 0.00099239393729 0.00013332326964 1.9991284516e-05 0.00012752535912 -0.00022722291641 
0.00012417612598 -2.8540829113e-05 0.000249924316 2.2719403788e-05 -6.0682725801e-05 2.8163110994e-05 -0.00013964238159 5.708548255e-05 0.0004240442372 
0.00014505695104 1.4053757805e-05 0.00014282524209 -0.00017293094938 -0.00016283399014 -0.00011097764654 8.5971679768e-07 -2.1239250067e-05 3.4598241849e-05 
1.8725367095e-05 1.6460022247e-05 7.4697158467e-05 -0.00024314945667 -5.9375418964e-05 9.4084882812e-05 3.4558674331e-05 -3.4987828779e-05 4.6786810248e-05 
-2.2960195796e-05 6.1201849721e-05 -7.3434806324e-06 -2.2629241129e-05 -1.4261957406e-06 -4.8188364019e-05 -8.311888815e-06 -2.6749577107e-05 1.8943750006e-05 
-3.7819224172e-06 2.5076778727e-05 -3.4149293031e-05 0.00013297739701 -0.00043775857418 0.00016085392602 2.3725862728e-05 4.8185809582e-05 0.00026727904481 
-0.00047079369192 0.00023372381023 0.00040847358388 4.4085884931e-05 4.4226757404e-06 2.4295110383e-06 -0.00019328978729 -0.00013894815978 3.3654165905e-05 
-0.00013285753838 2.9746771218e-05 4.0423330835e-06 4.4551437999e-05 9.6656740577e-06 -6.9331977876e-05 -1.4617631857e-05 -3.7382819985e-05 2.5266561257e-05 
8.8233406267e-05 -3.9850587273e-05 -6.011809188e-07 2.2976347753e-05 -3.0618833214e-05 1.2077539427e-05 -0.00025696582638 -6.9707113702e-05 7.8770697481e-05 
3.6372099995e-05 -8.3257701758e-07 -2.0994013116e-05 -7.1943246855e-06 -2.1697071507e-05 1.0577598517e-05 2.368668121e-05 -1.26920862e-05 -6.5871473264e-05 
-1.908680074e-05 -5.5680741053e-05 8.7529163636e-05 1.9302366444e-06 2.0731921827e-05 7.58065509e-06 -5.6124701739e-06 -4.0776258073e-05 -6.7719349785e-06 
3.3305472424e-05 -3.0968064038e-05 5.2498446667e-05 1.721161853e-05 -7.4644432355e-05 -2.1632407314e-06 -0.00010619848408 -6.8248461968e-05 -2.3892803832e-05 
3.9670183614e-05 -6.1695737791e-06 2.9391119669e-05 -1.7048961877e-05 -5.2308574977e-05 6.8763565454e-05 -0.00014795551002 1.457178777e-06 9.7652838611e-05 
0.0001147390059 -8.5230654405e-05 -4.5762724597e-05 -3.1631870691e-05 -0.00011890347901 -8.2800110767e-05 1.6590647195e-06 2.7162240381e-05 2.7758656025e-05 
8.9765976241e-06 9.7536727375e-06 -2.6953202749e-05 -7.0988002991e-06 -7.096058499e-06 1.0632097289e-05 4.107813266e-05 -0.00010858172353 0.00017887183728 
2.0242037124e-05 -4.1660733504e-05 -1.3536439853e-05 -4.1118767616e-06 4.2126915456e-05 3.8114402221e-05 -9.8217492883e-05 -8.5282456111e-05 5.5373663974e-05 
-3.4809851189e-05 -1.9429771031e-05 -3.8537124379e-05 4.4099432278e-06 2.1364939807e-05 -2.1889394183e-05 -5.9479989275e-05 2.36914303e-05 -8.8963161813e-06 
-1.7794976813e-05 3.633462359e-05 9.0122627171e-06 8.3973878062e-06 2.409779388e-05 -4.4969350535e-05 -2.4554429652e-05 -0.00018327427665 -0.0001199010883 
-4.5551889597e-05 -2.6017182532e-05 2.5601913559e-05 
