# vtk DataFile Version 4.2
Generated by LIGGGHTS
ASCII
DATASET POLYDATA
POINTS 5997 float
-0.0145218 -0.0165734 0.00263986 -0.0138818 -0.0186415 0.00277953 -0.0122108 -0.0204306 0.000930151 
-0.010381 -0.0182817 0.00305124 -0.00931452 -0.0212878 0.00243445 -0.00474681 -0.0191592 0.00228687 
-0.00118931 -0.017303 0.000543516 -0.00722013 -0.0226685 0.0026856 -0.00733066 -0.018963 0.00251101 
-0.00225156 -0.0228516 0.00309924 -0.00546235 -0.0230905 0.00171594 -0.00157388 -0.0196271 0.00277265 
-0.00374786 -0.020728 0.00363063 0.00161804 -0.0228488 0.00178722 0.00622694 -0.022685 0.00275668 
0.00462968 -0.0191312 0.0035174 0.00484997 -0.0210218 0.00272636 0.0083647 -0.0173282 0.00341389 
0.00229468 -0.0180949 0.0033488 0.00168411 -0.0207686 0.00336633 0.00856309 -0.0223117 0.00309926 
0.0123401 -0.0180197 0.00276368 0.0133569 -0.0198387 0.00365007 0.0163274 -0.0174541 0.0032043 
0.0144951 -0.0165902 0.00351192 0.01057 -0.0211765 0.00353063 -0.0176972 -0.0157273 0.00371974 
-0.0191758 -0.014395 0.00299069 -0.0115028 -0.0150239 0.0030713 -0.012625 -0.0112796 0.00363896 
-0.00878843 -0.0130388 0.00236601 -0.00558992 -0.0158406 0.00287785 -0.00286242 -0.0146694 0.00246924 
-0.0053575 -0.0136947 0.00338305 -0.00207104 -0.00995111 0.00341216 0.00101634 -0.0164277 0.0030794 
0.0035925 -0.0151797 0.00348348 0.00030533 -0.0138981 0.00349726 0.000224961 -0.0110255 0.00368481 
0.00146374 -0.00892331 0.00333834 0.00643326 -0.0112156 0.0036862 0.00393453 -0.0120909 0.00331311 
0.00993754 -0.0142968 0.00294198 0.0165768 -0.0152387 0.00310471 0.0132764 -0.0148125 0.00289804 
0.0126454 -0.0126693 0.00267224 0.0100325 -0.0123375 0.00365403 -0.0238022 -0.00222268 0.00335063 
-0.0125043 -0.0168396 0.00472429 -0.013874 -0.0184454 0.0050593 -0.0161075 -0.0171999 0.00414902 
-0.01167 -0.020326 0.00384404 -0.0131748 -0.0172052 0.0065841 -0.0153459 -0.0183175 0.00666831 
-0.0117375 -0.0188557 0.00598767 -0.0136508 -0.0195241 0.00690615 -0.0103664 -0.0214907 0.005849 
-0.0140839 -0.0172713 0.00839522 -0.0160709 -0.0176865 0.00887579 -0.0124622 -0.0200695 0.00870362 
-0.0107555 -0.0208815 0.00775993 -0.00871294 -0.0199556 0.0081163 -0.00868718 -0.0221996 0.00848467 
-0.0142147 -0.0191288 0.00923085 -0.0128008 -0.0177321 0.0102227 -0.0108789 -0.0179558 0.00945848 
-0.0151895 -0.0184419 0.0112854 -0.0132974 -0.0197376 0.0109448 -0.0114756 -0.0188168 0.0113218 
-0.0114693 -0.0210139 0.0103318 -0.00969939 -0.0178106 0.011286 -0.00923498 -0.0201743 0.0104419 
-0.00962365 -0.0218075 0.0115778 -0.00672007 -0.0203662 0.00386546 -0.00485783 -0.0178916 0.00420707 
-0.000925579 -0.0183457 0.00474614 -0.00492703 -0.0198042 0.00509291 -0.00829466 -0.0221333 0.00495733 
-0.000973786 -0.021392 0.00483997 -0.00482325 -0.0230893 0.00395007 -0.00398993 -0.0169922 0.00597658 
-0.00686772 -0.0208726 0.00598713 -0.00223982 -0.019132 0.00610659 -0.00269653 -0.0236108 0.00530572 
-0.00564382 -0.0227762 0.00609677 -0.00354403 -0.0211298 0.00680085 -0.0046314 -0.0188354 0.00743273 
-0.0018069 -0.0221739 0.00737742 -9.66241e-05 -0.0234206 0.00590499 -0.00532124 -0.0208084 0.00768019 
-0.0021441 -0.0199626 0.00809289 -0.00373248 -0.0234436 0.00721545 -0.00255579 -0.0177302 0.00757121 
-0.00559598 -0.0229273 0.00839513 -0.000589907 -0.0235312 0.0083041 -0.00592701 -0.0173079 0.00919991 
-0.00396377 -0.0191412 0.00940507 -0.00826634 -0.0178895 0.0098048 -0.00493008 -0.0210662 0.00962782 
-0.00184565 -0.0182152 0.00947226 -0.00382853 -0.0171261 0.00968421 -0.00685761 -0.0202197 0.00909637 
-0.00107047 -0.0213561 0.00935816 -0.0032812 -0.0236284 0.00918658 -0.00771419 -0.0215887 0.0107312 
-0.00140223 -0.0239423 0.0103325 -0.00309874 -0.0212654 0.0104224 -0.0016458 -0.0198873 0.0106006 
-0.00592799 -0.0226627 0.0103521 -0.00394987 -0.0232454 0.0111655 -0.00235099 -0.0177479 0.0113523 
-0.00140143 -0.0221088 0.0111794 -0.000348245 -0.0178856 0.0108271 0.00100301 -0.0235661 0.00366813 
0.00777864 -0.0198239 0.00496454 0.00621313 -0.0229384 0.00478765 0.00421439 -0.0235626 0.00483788 
0.00807518 -0.0176093 0.00580999 0.00472011 -0.0210055 0.00509972 0.00558377 -0.0191336 0.00550879 
0.00217083 -0.0234245 0.00554896 0.00556182 -0.0169088 0.00635749 0.00727059 -0.0226139 0.00715665 
0.00643629 -0.020972 0.00623819 0.00429669 -0.0235256 0.00697983 0.00677683 -0.0187327 0.00716728 
0.00583181 -0.017307 0.0084876 0.00721867 -0.0207055 0.0080963 0.00525678 -0.0219055 0.0078573 
0.00194294 -0.0234862 0.0076103 0.00836817 -0.0222703 0.00879931 0.00696687 -0.0188357 0.00918964 
0.00538648 -0.0206222 0.00946657 0.00516028 -0.0184969 0.0102057 0.00437851 -0.0234804 0.0092035 
0.00339532 -0.0217977 0.0101004 0.00811394 -0.0205647 0.0099547 0.00754652 -0.0189466 0.0112967 
0.000741864 -0.0217066 0.0104976 0.00365042 -0.0195866 0.0111541 0.00120392 -0.0235828 0.00948822 
0.00666615 -0.0227169 0.00987983 0.00642808 -0.0209665 0.011261 0.00340912 -0.0174351 0.01095 
0.00318524 -0.0237052 0.0109627 0.000761329 -0.0197508 0.0113981 0.000935563 -0.0233984 0.0115433 
0.00851173 -0.0220542 0.00510159 0.00862382 -0.0176775 0.00817455 0.00953479 -0.0191534 0.00419514 
0.0099641 -0.0168216 0.00452867 0.011535 -0.0194334 0.00448364 0.0122163 -0.0173895 0.00477586 
0.014849 -0.0185926 0.00427565 0.0136883 -0.0195007 0.00591202 0.00881553 -0.019498 0.00729988 
0.00949415 -0.0217771 0.00691534 0.00989536 -0.0168433 0.00669181 0.0109661 -0.0211746 0.00555131 
0.0136286 -0.017401 0.00631044 0.0156894 -0.0180911 0.00625162 0.011317 -0.0185473 0.00636352 
0.0103812 -0.0188626 0.008381 0.0113039 -0.0204791 0.0074014 0.0133859 -0.019513 0.00805299 
0.0152254 -0.0185217 0.00826361 0.0119148 -0.0175641 0.00808549 0.00887455 -0.0220927 0.0111233 
0.00917751 -0.0181673 0.0100998 0.00985583 -0.0208063 0.00893557 0.0139281 -0.0171761 0.00899518 
0.0162737 -0.0173755 0.00955277 0.0142045 -0.019282 0.00990443 0.0111953 -0.0169754 0.00988326 
0.0123844 -0.0204102 0.00970389 0.0113039 -0.0189288 0.010522 0.010777 -0.0212692 0.0106913 
0.0134219 -0.0176489 0.010878 0.0130424 -0.0197808 0.0114983 0.0153622 -0.0180883 0.0114106 
0.0170073 -0.0165109 0.00737733 -0.0174573 -0.0162087 0.0057045 -0.0202971 -0.0125151 0.0038663 
-0.0197708 -0.00865328 0.00393004 -0.0192668 -0.0107962 0.00417307 -0.0212701 -0.0107081 0.00463331 
-0.0221225 -0.00880734 0.00457273 -0.0206195 -0.00897645 0.00595846 -0.0188262 -0.00988707 0.00592394 
-0.0186447 -0.0133224 0.00476603 -0.0186709 -0.0148109 0.00648677 -0.0200263 -0.0128523 0.00625119 
-0.021305 -0.0107769 0.00663262 -0.0224753 -0.00816581 0.00657552 -0.020542 -0.0119579 0.00806699 
-0.0219557 -0.00943596 0.00804954 -0.0180995 -0.0115902 0.00681634 -0.0173234 -0.0116502 0.00434781 
-0.0170452 -0.00857089 0.00611572 -0.0183068 -0.0152924 0.00844618 -0.0195497 -0.0137295 0.00799643 
-0.0195117 -0.00954598 0.00806937 -0.0189872 -0.0112574 0.00912005 -0.0178099 -0.0127759 0.0085215 
-0.0169015 -0.0139155 0.00681117 -0.0168711 -0.00987053 0.00768519 -0.0192467 -0.0142744 0.0100486 
-0.0203893 -0.0123217 0.0100701 -0.0215963 -0.010338 0.0113914 -0.0217653 -0.00856684 0.0102182 
-0.0209726 -0.0104864 0.00945549 -0.0194971 -0.00990282 0.0106794 -0.0187367 -0.0120411 0.0112127 
-0.0179986 -0.00858841 0.0111455 -0.0179534 -0.0095323 0.00935229 -0.0173013 -0.0104646 0.0110025 
-0.0161151 -0.0162127 0.00742254 -0.0154448 -0.0130013 0.00417981 -0.0146795 -0.0102188 0.0043675 
-0.0167534 -0.00948396 0.00424718 -0.0136737 -0.0135722 0.00499522 -0.013206 -0.00853659 0.00470699 
-0.0110347 -0.00899989 0.0045537 -0.00909013 -0.0108692 0.00413959 -0.00890843 -0.00823493 0.00480921 
-0.0164569 -0.0146345 0.00492918 -0.0111391 -0.0125678 0.00476948 -0.0147621 -0.0121185 0.00601345 
-0.0162546 -0.0107414 0.00584037 -0.0124768 -0.01039 0.00559486 -0.0136292 -0.0153571 0.00773027 
-0.0149758 -0.0149362 0.00628797 -0.0141895 -0.00951503 0.00621104 -0.0102214 -0.0109544 0.00638276 
-0.0124661 -0.0139826 0.00685672 -0.016183 -0.0120954 0.00744054 -0.0122212 -0.0118395 0.00712803 
-0.0141039 -0.0124753 0.00787806 -0.00938226 -0.0120736 0.00782706 -0.0112962 -0.0133647 0.00862484 
-0.0146534 -0.0103986 0.00798548 -0.0128888 -0.0112259 0.00894909 -0.0115825 -0.0161456 0.0111432 
-0.00973681 -0.0156882 0.0100338 -0.0118487 -0.0152417 0.00910298 -0.0158604 -0.0093047 0.0093195 
-0.0167103 -0.0112287 0.00917992 -0.0141706 -0.00823579 0.0105363 -0.0106051 -0.010211 0.0114134 
-0.0144888 -0.0106877 0.0100897 -0.0117707 -0.012892 0.0105097 -0.0159737 -0.00866932 0.0113032 
-0.012782 -0.0112059 0.0110181 -0.00958491 -0.0138249 0.0111993 -0.0103364 -0.0112993 0.00971751 
-0.00904793 -0.0136233 0.0092005 -0.00874856 -0.0119915 0.0109853 -0.00481695 -0.0116466 0.0038584 
-0.00661976 -0.00895078 0.00461535 -0.00708691 -0.0118655 0.00408065 -0.00285475 -0.0130578 0.00402821 
-0.00217527 -0.0154909 0.00434265 -0.00290558 -0.00861723 0.00527503 -0.00439208 -0.0151027 0.00444626 
-0.00821781 -0.01176 0.00583954 -0.00811437 -0.00960858 0.00615216 -0.00523808 -0.0101648 0.00551125 
-0.00344619 -0.0113902 0.00565996 -7.04359e-05 -0.00969914 0.00563599 -0.00586914 -0.0128668 0.00580043 
-0.000125534 -0.0139853 0.00545902 -0.00262833 -0.0154131 0.00646555 -0.00255528 -0.013318 0.00617452 
-0.00439348 -0.0139654 0.006669 -0.00662713 -0.0107134 0.00713554 -0.0038939 -0.00954378 0.00702523 
-0.00154216 -0.00951223 0.00784411 -0.000653931 -0.011325 0.00664777 -0.00474682 -0.0114824 0.00747154 
-0.00233773 -0.0113774 0.0077475 -0.00091685 -0.0139431 0.00749537 -0.00451298 -0.0157108 0.00773485 
-0.00233028 -0.0158791 0.00839093 -0.00709356 -0.00933096 0.00857237 -0.00768277 -0.0115446 0.00913302 
-0.00306508 -0.0132602 0.00811437 -0.0006174 -0.0110729 0.00878765 -0.00572244 -0.0133813 0.00841347 
-0.000556332 -0.015929 0.00985018 -0.00753965 -0.0156917 0.0102144 -0.00432539 -0.0141103 0.00989403 
-0.00230077 -0.0143464 0.0097654 -0.00794741 -0.00952506 0.0104216 -0.00710367 -0.0136776 0.00984691 
-0.000897227 -0.0137563 0.0113184 -0.0029887 -0.015808 0.0111253 -0.00646607 -0.0136762 0.0117541 
[...]
POINT_DATA 5997
FIELD FieldData 7
id 1 5997 int
2997 162 1631 2482 2275 23 2741 3668 1221 
4733 302 2928 5263 4934 6022 5615 2528 2703 
5759 3859 2765 3371 570 46 5155 5509 3593 
3621 808 729 1901 5836 37 1305 5790 2845 
479 409 4409 3390 580 1738 1571 179 64 
2595 1528 210 2398 157 4200 176 5706 5506 
4460 5654 4666 5054 5969 5677 4806 5808 4312 
4996 1234 5470 5183 5301 4692 5514 5013 2747 
5777 5427 4916 3292 3465 6009 5953 5038 4673 
812 5621 5788 4855 4522 4706 4721 4350 5497 
4197 5950 4462 3353 4912 4496 5727 5885 4530 
4570 4791 5281 4004 4657 5935 5743 2325 5742 
5107 4748 5089 5274 5041 4333 2072 4346 4140 
3807 5392 5476 4873 2609 2160 4939 2518 2250 
5184 1977 1716 1069 4228 134 5932 5565 3084 
6006 4926 1274 1934 3800 5923 4365 5339 4208 
2956 5450 2987 4094 1239 1555 5998 5618 5143 
1690 4705 5423 4137 3293 3779 5383 3227 5947 
4042 304 1464 3652 2531 4259 3120 5300 3811 
4305 2281 2008 1484 918 2283 837 293 4655 
4840 5844 2824 397 3339 4968 1045 3324 2981 
1129 4199 5561 4596 3770 2529 4825 5697 31 
1217 5841 5986 1586 5444 5630 5609 5959 4965 
6041 5960 4724 5211 5540 5133 4266 5571 4995 
4876 2854 4475 1649 756 764 618 2669 2836 
3476 671 4987 2593 5310 4980 5957 3999 2911 
4201 5520 4809 5933 5507 3472 5451 5316 6066 
4923 5268 5603 4187 5789 5331 6057 5770 4738 
4558 5112 5687 5029 4763 4306 1372 983 3495 
6023 595 4683 3273 706 5304 5705 151 4326 
5111 5595 5683 5879 3637 4665 3697 5255 5956 
5796 2723 4864 4402 2728 5201 3017 5373 5212 
5145 5446 5270 5955 5036 4410 4877 4786 5150 
5899 4543 4445 2103 1100 4321 3498 342 4888 
2770 2442 2243 6055 4549 4917 4514 4387 3596 
5915 3794 5806 3549 5131 2568 1879 4542 4750 
2922 3171 4106 3028 4285 5440 4859 6016 4647 
5433 3992 2917 5997 5674 4638 3995 3987 3267 
1003 3988 773 1241 1729 14 1875 1499 849 
5326 2673 2799 3022 493 2384 5125 3491 425 
1399 2301 1995 5215 973 1338 3699 5551 2278 
733 1554 3207 2874 416 229 2121 2739 1465 
1945 5820 1722 1504 1046 628 3723 2817 2057 
3774 3460 916 3977 230 388 578 160 920 
364 286 48 702 597 1254 1513 1051 61 
154 215 760 657 5809 1639 962 273 3188 
484 625 5006 1754 2772 875 3821 1599 1302 
59 185 1186 1614 11 1810 4480 4351 13 
1968 3217 1972 2444 65 285 332 86 689 
366 72 1856 145 587 676 212 4166 3584 
259 489 1111 2048 4868 2038 2025 2342 2877 
1304 1474 1320 1866 1163 503 649 1008 1449 
419 453 447 2135 614 3570 5120 644 4829 
4348 4717 4237 5068 1136 2652 1150 3381 1064 
518 473 1760 2296 1343 4935 3032 2805 3632 
2234 5799 6027 3758 1284 20 3166 626 1016 
1067 568 369 1840 2558 223 2070 1400 611 
166 1694 2226 1337 761 1913 2946 1172 218 
4905 3400 2242 269 1096 769 718 1021 1670 
243 4320 781 5195 2727 1353 3790 3073 687 
98 226 2408 1262 1019 1698 2716 16 5536 
2049 5734 1007 158 1119 1039 704 452 85 
2552 970 899 641 913 709 186 2633 4211 
546 504 2388 2339 3396 949 69 759 1473 
2193 403 1546 4283 5629 1191 1269 1838 553 
770 3109 3683 5181 4846 4215 2927 2952 4161 
4075 3162 237 2572 1074 789 1318 1930 1339 
3505 519 4527 2629 621 4136 1747 83 1141 
1730 102 2017 1921 624 472 107 1692 1369 
2 1664 1375 1906 3513 5490 749 1110 2062 
1757 675 543 1176 648 1084 103 880 5180 
3275 2420 3546 4129 4466 1891 395 3623 131 
1648 4861 4184 4687 3308 3606 5065 5086 2545 
3160 902 4744 380 3158 2228 1068 252 1195 
379 2684 631 640 2298 2091 1811 2354 565 
1540 100 661 87 109 1755 108 1570 408 
1824 274 1228 1857 181 1073 1001 1733 711 
1094 92 2856 206 905 3402 155 3970 2138 
1695 475 3397 2255 573 1126 228 1630 4450 
3012 278 2637 2297 1165 1767 32 138 1880 
2626 1775 1815 1675 413 1426 344 1205 3352 
347 1526 1013 856 1406 637 1543 550 213 
105 1430 728 818 68 261 988 1121 820 
799 974 690 796 1776 378 480 491 854 
732 439 110 156 91 488 754 1769 577 
443 432 731 71 115 848 995 619 890 
748 442 751 420 56 1070 1226 633 1360 
627 122 298 1002 123 943 1043 904 531 
582 457 171 238 1089 558 791 1059 708 
1402 2464 719 1829 295 137 180 1265 610 
882 844 1263 1595 1066 1299 1159 1314 1106 
784 651 246 878 1389 684 606 414 271 
939 601 505 1190 887 836 1390 1058 497 
2330 1322 270 284 1288 1848 1161 173 433 
219 211 1237 126 392 352 1267 940 1441 
2403 1427 1658 2076 494 189 931 450 1025 
2102 34 142 200 2868 1124 2451 1475 824 
554 318 1493 1197 1808 353 507 1858 1230 
727 2258 464 592 581 2187 804 1483 467 
5 1026 1636 1490 1415 1213 763 1627 966 
2513 1376 1103 21 677 2372 58 456 599 
991 3548 2005 3037 1765 2762 334 2208 1544 
944 29 1676 2998 1933 778 1582 3512 3219 
994 1505 1425 326 564 184 2343 3151 2016 
1077 301 1419 1398 2720 2263 168 234 1104 
2037 1768 2039 2127 2648 1668 1227 3444 2756 
3572 1576 2274 427 2567 1899 1529 3540 1669 
2907 5735 511 1703 1308 2100 530 1220 2116 
2764 713 825 2249 3741 2613 3322 3823 2583 
2113 2501 2732 4065 1062 363 1492 2293 1772 
833 1881 124 316 2069 2440 817 1481 1610 
1545 972 1229 3494 1527 2823 1604 2143 1088 
1629 4519 1152 1624 2171 2645 1607 2924 2753 
283 2084 2474 2498 351 3569 1761 2399 2869 
3348 2592 1079 1973 1928 4396 3932 444 3266 
1717 2806 3394 1979 3958 4817 4263 445 469 
712 2401 4521 4084 2681 1282 743 144 741 
2780 1958 2114 390 734 2173 428 1182 779 
1 1842 870 1900 1589 1781 4229 3009 348 
1035 2550 1932 1559 695 1042 94 2313 1332 
150 3960 3277 1365 3478 579 1080 169 788 
393 1666 1275 1907 4022 355 1443 1331 128 
2701 2839 2539 2065 354 367 1248 57 1041 
2133 961 359 361 1222 281 132 766 227 
113 666 3989 1680 2692 76 2713 254 328 
371 1432 978 1523 771 277 1603 1200 1167 
3610 205 950 798 2130 268 1028 343 1367 
38 35 325 391 249 73 681 1020 1132 
1350 309 2169 2221 399 1642 161 2803 1386 
315 1735 1333 402 1410 292 3906 800 4557 
2244 4433 4225 2564 175 3985 1565 3124 3103 
47 5550 730 2508 55 1107 2050 3140 2452 
646 813 5278 2776 1947 3762 4256 5282 3312 
4234 4958 5393 534 1912 4062 2683 5481 4381 
3746 4816 481 857 4731 3559 4202 989 333 
4406 4909 1105 3711 2811 1606 3195 3350 3313 
1173 1751 2350 5642 4490 4835 2319 2422 79 
3184 3583 5729 4572 5140 3452 4053 2224 3909 
4223 3662 5193 3340 5091 2879 4354 4667 2964 
5719 5921 1746 2327 4883 4262 4327 5702 841 
3384 509 2605 3433 4582 3785 1108 4495 4272 
2941 4090 3153 3496 2943 5564 4860 4096 5810 
2229 4505 5765 5254 4382 4880 5200 5589 1296 
4870 2979 5861 4679 4966 4472 3895 5566 3994 
4246 5655 3407 1997 6011 5320 1833 5753 4484 
3260 1279 5082 2503 985 4559 5042 275 1944 
517 5174 4632 1991 3963 787 4671 5357 458 
5884 2537 5350 3193 220 28 3215 2912 536 
4162 2809 146 3648 2631 3990 1330 5659 3172 
4357 3406 2812 1368 4369 3776 3388 4329 3043 
5309 5974 2265 2735 3585 4249 2777 3795 1264 
2036 5353 5176 4971 1744 1562 3901 471 7 
4795 4646 4372 1889 6017 3479 74 4565 4015 
2198 502 5410 1812 5941 3913 4392 4280 2705 
4248 4703 2269 4086 2689 4890 236 5478 5919 
3907 4537 3784 3069 1904 33 2597 832 683 
1098 1444 2849 4551 3163 2883 747 2390 2071 
1072 4858 2646 5202 4191 1640 2154 2600 382 
2950 2838 159 2280 946 1459 4449 1027 2122 
3946 2578 4713 5750 3018 5275 5917 4919 4158 
5813 4567 4107 4141 5422 4590 54 5992 4585 
5623 3177 4422 2852 485 3865 4207 4343 3620 
4355 3575 5574 5707 5083 2540 5913 5920 3245 
1592 4518 4964 2322 4315 3253 5662 3236 4850 
5103 3984 3301 4535 4624 4979 5588 1160 1855 
4206 5678 487 5673 5872 4775 979 3181 4028 
1600 4749 3713 4815 5747 2810 5825 3858 4525 
1374 1645 5949 4773 5828 477 4532 5416 4643 
4605 5862 4347 3066 4478 5056 1890 4591 5115 
5849 2585 3477 4294 888 1417 3924 3102 5667 
5390 1533 465 2241 1485 5508 1878 4148 2260 
5803 24 2391 1311 5139 1515 5590 4771 1355 
2881 5573 2757 5711 3306 4932 3748 5671 2030 
5794 3837 483 5421 5359 5538 4383 5413 5510 
5204 1081 5761 6064 3680 3576 1125 814 1886 
4580 3344 1549 4011 4830 5321 5908 5644 3254 
5403 5019 4253 5679 3185 5611 4626 4426 4642 
3993 5297 5232 4759 4949 5366 2166 3105 3142 
5001 4195 4236 2393 4087 5190 5894 5017 6039 
6052 3926 3783 4913 3921 5334 5817 5330 5744 
2272 5531 1519 6010 5484 5132 3655 5234 5172 
3237 3618 5314 5101 4443 5329 4128 4227 5898 
1917 4008 3882 5179 3530 5361 4153 1060 5732 
4139 4367 4282 3898 3649 5832 3650 3754 4220 
4132 3735 5037 5676 5487 3944 5147 4747 4954 
2056 4847 533 5658 4869 5197 2326 5591 4170 
3892 5521 5175 3454 3964 1859 5448 1710 654 
5280 4098 4487 3856 1708 2796 5962 5715 5726 
2831 3953 3370 4628 1593 4452 4848 1981 3201 
3729 1148 2412 925 1232 680 1138 1728 858 
1290 3646 5203 1865 346 2099 294 5645 5153 
1381 1602 1257 4284 3651 5559 80 2108 3304 
4233 1236 129 6029 5592 2414 2520 5157 4621 
5156 5189 5694 4760 5824 5608 5262 5333 5680 
5277 6046 6053 5914 4290 4940 5437 6060 4722 
5627 5099 5848 5628 5365 5122 4602 5553 3630 
5348 5486 5178 4999 5412 5843 6036 3240 4054 
3285 4699 5474 5887 5391 5985 6065 4235 4675 
5685 3566 4956 5758 5428 4241 4593 5892 5657 
3877 4506 5877 5258 5858 2218 5968 4455 4649 
4802 4688 4000 2993 4145 3991 4838 5891 4600 
5166 5199 4401 5569 2800 5882 4797 5130 5593 
4078 6038 5530 5198 5756 5698 6031 5149 5411 
5563 5384 5025 6054 5993 1823 4754 5518 4752 
5010 5324 4541 4710 4812 5218 5822 5044 4778 
4111 4899 5524 4319 4243 4435 5114 5995 4947 
499 4441 4163 5306 5881 5710 5585 5137 2878 
1171 6008 5675 5883 2276 4407 5780 642 5648 
3243 1705 3673 3515 1951 2601 3588 5152 4335 
4614 5248 4003 5473 1903 5903 4380 3682 6062 
1996 5784 5020 3927 775 6040 5167 4604 4260 
2323 5544 4384 5626 5542 5299 3122 1037 2371 
4798 3743 2045 4168 4743 2797 2379 5637 2386 
3183 5379 3690 2118 4342 1438 6028 1178 3822 
5795 4672 4118 5754 930 1987 1327 2096 5397 
2078 10 1643 1758 45 12 4461 3302 1818 
3246 5797 1659 1884 496 975 338 4 3659 
3272 1699 545 1285 703 1552 720 602 1346 
693 667 1291 862 1297 454 1286 1233 1151 
2289 1048 609 967 5370 884 4112 1501 4907 
5224 917 2424 2740 5146 1215 5420 1307 3544 
5447 2458 4631 4610 463 2074 1114 2409 1404 
2453 3930 5768 1787 5015 3274 2376 5074 4944 
5238 4745 5781 2109 4378 5135 4431 5818 2271 
2423 2364 2417 2290 3029 1383 1411 1482 2374 
3945 863 4793 5223 5206 5582 5893 4286 1714 
1378 5989 5605 2410 3712 4598 2264 3002 2366 
50 5113 4799 5965 3937 2331 802 1525 5596 
5100 5749 5182 2708 279 3 2833 2560 3202 
4693 5505 4510 5541 5347 5106 5116 5778 2203 
2655 3200 2337 2134 1207 2416 5023 5607 2040 
5002 1655 5860 4976 5701 5963 4398 4698 3553 
2495 2115 3777 3232 5874 2664 4219 3917 5340 
3019 5647 2058 4836 1633 2253 3189 117 3732 
2385 5643 5261 5475 2954 4702 4143 5382 5954 
5442 1401 4952 2902 3317 4252 3851 1158 4578 
3052 4886 4772 4017 2923 3279 2853 4660 4292 
5516 5354 2976 3074 1783 312 5454 1468 1189 
1942 3229 1567 195 1520 3603 4456 3827 4513 
4258 2892 1453 5539 3577 5117 3501 2369 2925 
5512 4691 2191 1315 5377 4777 650 5814 5964 
3828 4500 790 4719 4150 1090 2300 3467 5751 
1938 3720 4986 2815 3065 5097 5401 2660 3862 
3127 1902 5045 3817 3038 2456 18 3331 1218 
1509 251 2748 1893 247 340 2457 528 1294 
1742 636 1777 3164 2499 1347 2429 2001 529 
752 4563 1723 3749 2521 2657 1209 1183 981 
1146 910 3525 2200 1594 1535 2344 482 3436 
1661 1720 1598 4969 2861 296 4885 1391 1581 
2145 2439 2532 2535 1193 77 647 62 224 
172 541 214 668 586 861 383 437 794 
783 540 723 235 362 999 1071 737 1223 
455 2612 714 17 692 1506 1584 881 1843 
964 1429 1017 816 1572 1351 193 305 957 
908 1550 549 1015 30 679 67 757 208 
1319 851 1521 232 368 147 894 935 310 
1049 866 1177 588 241 963 2073 971 2541 
3225 1511 15 2792 2067 830 2471 2470 22 
1249 2320 506 1424 566 2338 1564 140 2239 
2212 3565 1010 672 2561 544 912 36 877 
2842 1329 183 1283 959 2240 2581 258 623 
2463 1276 1956 3001 922 1885 2906 4230 40 
2916 2576 889 1983 1421 2454 1199 461 686 
1379 1250 3148 2697 1253 1786 424 669 2192 
819 2098 879 951 3119 659 3078 2846 805 
97 860 1637 643 426 3462 1168 823 2794 
4617 2201 4190 1440 1672 801 537 3694 4361 
3391 1032 921 244 694 2625 699 1619 2804 
1300 2112 1646 2341 1801 3728 777 1969 2658 
3014 2711 1766 2687 2904 3518 852 2650 5005 
4540 1187 656 2299 864 2085 1145 2043 807 
955 2053 552 2360 253 1807 3294 1651 478 
4273 3624 3238 3082 2965 3629 3633 4097 2774 
3159 4896 3058 1036 2696 2957 2014 2670 2287 
4577 3300 947 4310 4531 1370 3554 4756 3284 
2617 1817 3268 2596 3724 1214 3049 1476 1876 
3734 1920 3466 1130 742 1510 3118 2602 3427 
2433 3194 4553 4298 3497 3634 3903 3360 2307 
1792 2222 3287 2915 513 2534 2986 2158 4785 
3239 1488 3672 3367 2880 4108 2608 4623 716 
3831 2930 3986 299 4172 2968 1990 5868 3857 
960 2527 2254 3329 2830 2962 4583 4468 1472 
4063 2129 2206 3521 3086 3537 2665 3224 2875 
4332 3398 2808 2967 2661 2329 322 4176 3136 
1127 1663 2775 3771 4255 63 508 2317 1006 
1047 2051 2724 926 2958 1143 1678 1225 1652 
1936 2162 2736 2594 2555 4955 396 2332 2890 
1491 1295 313 1451 25 4068 2983 2828 111 
265 202 501 745 5896 3178 1939 1849 1325 
255 1887 2083 5168 3081 3594 2019 2139 598 
199 998 526 373 630 1587 662 1065 320 
96 660 907 291 2659 1278 152 1834 1198 
1662 1033 1137 1321 93 898 969 539 89 
466 239 3358 423 622 112 846 1578 3527 
276 8 1204 2167 1153 4336 810 740 976 
1579 377 1820 3374 1359 2288 525 262 593 
885 372 793 2031 1435 1272 620 4119 3510 
2738 1641 4753 3316 4970 845 1626 2059 3289 
3693 4581 2425 5847 5014 4370 4533 4024 4181 
3552 3440 1993 3531 2929 5911 4146 2009 3759 
2438 3489 3539 2647 2054 2695 197 3670 4959 
4654 3657 394 2147 2101 1709 2247 4411 2821 
3781 4473 6059 4009 3483 3896 4476 3111 5207 
4925 5165 5161 5901 4307 3380 4030 2970 4104 
2316 3522 4173 2549 2901 4204 4589 3996 510 
5243 4764 4147 1623 4497 4120 2795 1986 2435 
4908 2630 4524 2624 5700 2884 5000 4482 2676 
4548 3190 4796 3416 4309 5840 3004 5483 4037 
3681 3883 4900 2940 5319 2990 4575 5556 1882 
2951 3854 3967 5286 5801 3910 5922 5977 4188 
2974 2891 4055 3323 5242 5060 3363 4704 1892 
5952 3757 5491 3886 4368 5929 5090 2671 3891 
3764 4716 5307 2086 4099 3520 4597 5829 3311 
3844 722 5121 2760 4416 2945 5731 2431 2377 
3639 605 4341 2462 3170 1931 532 4232 3470 
2380 2035 1345 1385 3739 3617 653 4125 4070 
2179 3506 4930 272 5233 4023 3900 4512 4437 
5160 1251 1012 5690 2093 1184 2381 4430 2896 
5063 3661 4700 4819 5409 5982 4653 3791 2267 
5717 4124 4021 2649 2235 5288 3819 5291 2870 
3421 3695 3595 418 4882 1697 4792 3083 3226 
1785 5718 4762 4454 4300 4768 2068 1759 2538 
4866 4734 2733 5522 1804 5599 1397 5752 4069 
5728 1342 1076 3251 3441 3980 840 3590 634 
1946 5386 256 4664 4458 5876 5739 5482 5823 
4534 3413 4746 4451 5772 3355 5346 3068 5098 
2373 3940 2437 1349 3346 1568 3165 855 4100 
3674 4685 5546 5568 2486 3876 3349 5443 2517 
3326 3952 3113 5318 3428 4067 4878 4474 2472 
3499 5549 4887 3310 3849 5973 2314 2548 2061 
2396 607 3447 5460 4182 2015 3686 5875 120 
2746 5975 5666 811 5867 3722 5323 5055 53 
4942 2834 2639 4945 2621 4508 5523 3684 4943 
5399 3738 3208 3619 3107 3235 2004 5352 3879 
5088 4264 4517 5461 6051 4933 4629 5692 1371 
1799 5575 5970 2616 4821 5614 5709 3887 3405 
1616 5987 5265 5634 903 4612 3653 5342 311 
3248 3875 1467 4340 4470 5355 3116 5222 4413 
5580 2640 5994 4516 6068 5196 3863 5162 2860 
1696 1396 1736 4269 1949 4295 1420 4032 5816 
5369 1312 6021 4603 4988 4049 5555 5008 2611 
2749 1392 2047 4528 2055 1789 1144 3425 2955 
5951 762 2516 5312 1052 4051 932 1590 3730 
571 1530 2110 4994 3701 1749 4352 5266 1495 
1287 2097 1957 5782 1734 3868 2909 5375 4114 
5488 2090 5059 4214 5032 6005 2714 5712 3211 
4962 4941 5567 5371 2233 5105 5453 2556 2991 
4358 5668 4040 5360 3981 3772 5691 5785 1238 
5807 3464 4412 2996 5864 2674 4843 3612 3182 
3948 4915 4047 4709 4975 3359 5004 5445 4898 
5838 3392 3938 2700 4221 3832 4712 165 5395 
958 5164 5177 5186 5500 2259 4244 3434 3642 
5889 1470 3715 5850 3663 3647 6049 5586 2142 
2822 5273 114 4972 4155 2638 4503 4007 6001 
5578 2920 429 4056 5449 5109 4663 2194 5740 
3580 1395 2032 3011 1935 717 2367 2783 5123 
2140 1788 4224 5972 674 4477 5906 4403 3825 
4424 4906 5075 5094 4652 3885 5485 5419 5269 
5926 3780 3915 4618 3191 2788 4982 5241 5283 
4823 2406 3475 4953 4634 3667 6070 4328 5939 
5067 3356 4498 5907 5991 3507 5910 4385 4287 
5459 4142 4059 3812 3137 4050 4831 5625 4853 
4865 1082 5558 2910 3468 5034 4765 3115 4175 
3671 4892 4983 5245 3848 5909 5431 5689 3914 
5826 3969 3357 4277 3044 2973 5786 5026 4893 
1450 4681 5287 5863 2003 4554 5733 3978 6012 
4364 1984 3046 5142 6000 3810 5031 5244 5185 
3050 4914 5827 3337 4134 3703 5650 3442 5598 
5093 3382 267 5934 5501 5385 3161 5996 3314 
3983 3950 4997 3372 4425 2807 4012 5322 5225 
3860 4157 5308 5579 4783 5252 3902 1524 1508 
1863 4684 5240 4144 5940 349 5617 5805 2006 
1805 4377 4818 2077 5811 1732 492 2413 1814 
4636 1112 4568 2745 104 130 1897 2355 222 
4297 4729 2225 4073 1031 6061 435 3925 776 
663 404 70 584 896 1489 136 691 1539 
1782 2672 673 1771 923 446 1115 639 201 
1292 3023 612 1244 527 2195 1091 615 410 
1806 1149 765 2663 4526 5632 4784 3625 5376 
4025 5857 1261 1502 3789 5228 4393 4984 5755 
3327 4127 3708 3214 2124 4875 4789 4389 4650 
2190 3852 3221 3664 5641 4824 5235 3455 1580 
3401 3756 2751 5372 4218 3524 2641 5927 3486 
5279 1500 3725 3412 4770 4711 4429 163 1354 
1532 3168 4788 3053 6032 4071 2717 5619 1745 
5688 5533 4400 2847 3591 5374 2480 1534 3614 
5043 4076 4545 2515 4481 5725 2899 1681 2569 
2159 4595 4046 5943 3843 4185 4504 4152 5888 
5714 4457 4019 1635 4895 3077 1784 2095 3368 
5327 3138 1454 4356 4179 4967 5079 5774 2566 
5221 4238 3750 1748 2832 4375 4165 4465 3212 
6024 2816 5493 3763 5543 5528 2914 1224 4254 
5231 6030 5699 5073 5479 4550 3330 5104 3839 
5237 4973 2477 1965 5069 5205 5613 4561 3079 
4720 3545 3315 3573 4267 3332 1309 548 1994 
5404 3918 5766 3955 3504 2937 4822 3143 3726 
3599 3481 3133 3141 5597 5513 4701 4325 2710 
5009 3872 4337 99 2971 4928 4151 1408 9 
2855 1053 2149 785 583 3912 4270 847 1955 
4801 2980 4539 2292 1235 1078 2176 2865 1978 
4911 2667 1463 4686 5890 3786 1478 585 133 
2022 5011 1344 4714 4639 3853 2651 1982 2505 
470 1605 207 782 2318 290 1289 148 95 
495 1486 101 1202 1004 557 1724 1113 953 
1394 436 1169 750 1054 240 1770 287 685 
1382 744 1095 1563 576 867 370 263 1131 
384 127 329 1116 952 2273 984 774 705 
1731 567 412 314 738 655 260 827 1352 
1830 51 909 1120 1673 440 1310 1711 2598 
797 2304 174 2707 3556 2533 375 1268 1101 
1175 635 2432 81 560 1691 980 2183 3341 
2446 2007 4446 2230 1412 407 2530 3234 2023 
516 2213 2378 462 2507 2151 2944 1538 1718 
2285 2028 2421 3192 118 2450 3059 936 2761 
2400 2155 1753 3075 1998 3100 1919 2000 698 
2018 3514 1122 2785 1954 3071 2389 1030 2893 
2778 356 3873 3523 2483 3297 327 4026 4805 
3376 3564 1326 3067 1952 1457 1301 3457 4448 
2312 1836 3007 2478 2184 1653 2837 2829 1797 
2088 5260 3389 2752 1819 2261 350 2490 3502 
4599 1092 3908 3838 3262 2303 3581 3403 3643 
3808 941 3830 5057 3431 2196 2926 3369 715 
4089 66 3571 2465 3449 4317 3196 3338 3740 
5681 3802 3270 2793 4414 3013 3415 1702 4189 
3008 3131 1057 3934 3841 3679 3916 1763 4656 
2942 3493 4820 2256 3645 2691 1210 5477 2718 
5236 5746 2750 2919 2755 4436 3432 2759 1418 
2767 4459 1231 2185 3582 4904 3419 5620 3997 
4245 5046 203 3628 3928 3051 3492 4314 3450 
2211 3644 5730 341 3420 3890 986 2798 1086 
2693 2544 2080 753 822 2046 498 2485 1850 
248 2511 603 3471 1336 448 613 2238 2107 
658 2136 3611 2153 701 1433 4391 4787 3114 
2434 2628 141 4217 4110 3209 2931 1093 1340 
2978 2580 3149 3104 4080 617 892 1888 1613 
2473 2165 2164 2340 1583 965 2791 3290 4399 
2075 121 3897 3005 2982 1883 1364 178 945 
843 257 1256 1667 900 1203 735 2825 1174 
3386 1845 1752 755 3607 815 242 52 874 
400 357 608 2348 297 389 1569 2818 422 
300 604 75 474 1273 116 1133 1895 1185 
231 139 1813 1700 928 3558 2353 1240 4308 
1281 3283 3333 2266 2365 4001 3609 4641 2826 
2827 4103 4231 2202 1566 3526 2913 891 182 
2905 2524 2063 3560 1679 1316 2698 3601 3490 
3000 4313 4644 3752 3271 1541 4464 2081 2427 
2562 4198 3592 5402 3788 4159 3962 4552 1192 
3280 2504 2052 2447 4167 2305 1298 3463 1713 
2141 3787 3842 4180 4363 282 2309 3775 1194 
1622 3261 3446 3656 4726 3145 49 2125 1512 
3941 149 2087 3555 3040 2766 1847 5343 2742 
3320 5430 2205 5576 3125 2802 4060 5526 4002 