# vtk DataFile Version 4.2
Generated by LIGGGHTS
ASCII
DATASET POLYDATA
POINTS 3 float
-0.0223643 0.00529154 0.0313636 0.0203741 0.00149529 0.0374887 -0.0231761 0.000331228 0.0628505 

VERTICES 3 6
1 0 
1 1 
1 2 

POINT_DATA 3
FIELD FieldData 7
id 1 3 int
4217 5653 4280 
type 1 3 int
1 1 1 
i 3 3 int
0 0 0 0 0 0 0 0 0 

v 3 3 double
-3.5238912198e-12 -1.0672348788e-12 0.19744387627 0.17510971894 -0.94732662063 -0.026928200495 1.0085281172e-12 2.0402424792e-13 -0.59459197496 

f 3 3 double
4.3343106881e-13 6.4687810664e-11 -0.00082184063818 0 0 -0.00082184063818 1.1041834114e-11 6.0254023992e-12 -0.00082184063818 

radius 1 3 double
0.002 0.002 0.002 
omega 3 3 double
-3.1973294493e-13 -1.5031286186e-12 -8012.9223228 -0.22292748249 0.023196115654 1.8898772874e-10 -2.4685384334e-13 6.1584882925e-13 81.516128422 

