# vtk DataFile Version 4.2
Generated by LIGGGHTS
ASCII
DATASET POLYDATA
POINTS 5997 float
-0.00969183 -0.0196608 0.00599954 -0.010859 -0.0213163 0.00599777 -0.0157256 -0.0177561 0.00600302 
-0.01322 -0.0177836 0.00599941 -0.0114487 -0.0187109 0.00602009 -0.0129309 -0.0200526 0.00600303 
-0.0115608 -0.0166915 0.00625813 -0.0171453 -0.0165878 0.00683866 -0.00980194 -0.0176195 0.00658362 
-0.0144674 -0.0190128 0.00696306 -0.00122342 -0.0221958 0.00600123 -0.00731014 -0.0227623 0.00601533 
-0.00138539 -0.0199488 0.00599814 -0.00333473 -0.0216991 0.00599804 -0.00485179 -0.0232945 0.00600065 
-0.00575257 -0.0215081 0.00599888 -0.00882359 -0.0214619 0.00600367 -0.00814106 -0.0196226 0.00726104 
-0.00785569 -0.0180926 0.005997 -0.00659683 -0.0196961 0.00599516 -0.00339954 -0.0192408 0.0059933 
-0.00112814 -0.017968 0.0059974 -0.00280254 -0.0236301 0.00600709 -0.00273337 -0.0167796 0.00599837 
-8.75996e-05 -0.0238878 0.00599759 0.00401503 -0.0235167 0.00603212 0.00439689 -0.0184208 0.00599677 
0.00201707 -0.0237645 0.00600116 0.00684268 -0.0182472 0.0060008 0.00701381 -0.0225353 0.00600112 
0.000646696 -0.0200125 0.0060008 0.00504836 -0.0217234 0.00599803 0.00574898 -0.019829 0.00656771 
0.00759567 -0.0206449 0.00649433 0.000848331 -0.0220889 0.0061748 0.00254102 -0.0192886 0.00601377 
0.00900771 -0.0192606 0.00599965 0.00290741 -0.0218447 0.0059997 0.000290855 -0.016812 0.00679406 
0.0040799 -0.0164184 0.00600588 0.00898563 -0.0222247 0.00599568 0.0159857 -0.0178274 0.00600098 
0.01061 -0.0210136 0.00600992 0.0124431 -0.0174184 0.00601378 0.00931743 -0.0172845 0.00600114 
0.0109406 -0.0187258 0.00607691 0.0124794 -0.0200695 0.00601103 0.0143039 -0.0192094 0.00599536 
0.0108548 -0.0165418 0.00704067 0.0142685 -0.0172127 0.00681707 -0.0225231 -0.00821422 0.00599672 
-0.0182341 -0.0150734 0.00601289 -0.0177193 -0.0130838 0.00599951 -0.0196491 -0.0136044 0.00601548 
-0.0173761 -0.0111142 0.00599991 -0.0191173 -0.00999542 0.00599953 -0.0217052 -0.0101932 0.00644922 
-0.0205671 -0.00861244 0.00599832 -0.0187582 -0.00816093 0.0067103 -0.0206565 -0.0118766 0.00618677 
-0.0170934 -0.00914693 0.00621117 -0.0140728 -0.0159755 0.00599453 -0.0113763 -0.0131223 0.00600013 
-0.0160067 -0.0151792 0.00599775 -0.0104528 -0.0150444 0.00601196 -0.00921581 -0.0101894 0.00599627 
-0.0111851 -0.0105187 0.00599611 -0.00951027 -0.0122913 0.00600673 -0.0124427 -0.0148165 0.00607869 
-0.015827 -0.0124285 0.00600115 -0.0134297 -0.012552 0.00599534 -0.0154694 -0.0102896 0.00599755 
-0.0129568 -0.00960323 0.0059958 -0.0146094 -0.00848671 0.00602504 -0.0110278 -0.00850649 0.00599928 
-0.0146819 -0.0138986 0.00676844 -0.0139376 -0.0109594 0.00708802 -0.0065533 -0.0130258 0.00599711 
-0.0083903 -0.0161404 0.00599927 -0.00413393 -0.0129144 0.00599628 -0.0055739 -0.0112122 0.00599711 
-0.000888278 -0.0132437 0.00600437 -0.00866057 -0.0141477 0.00600224 -0.00461003 -0.0148525 0.00599995 
-0.00259022 -0.0142849 0.00599512 -0.00756426 -0.0113069 0.0060635 -0.00277984 -0.0113282 0.0060049 
-0.00287605 -0.0093321 0.00599662 -0.0066668 -0.00939348 0.00600003 -0.00675142 -0.0150066 0.0061779 
-0.00110164 -0.0156176 0.00600256 -0.00479097 -0.00951773 0.00669986 0.00194055 -0.0160246 0.00599579 
0.00199349 -0.0131773 0.00600093 0.00398511 -0.0116611 0.00599556 0.00386952 -0.0139641 0.00602333 
0.000417328 -0.011594 0.00600228 0.00321771 -0.00981714 0.00599693 0.00595556 -0.0119658 0.00599204 
0.00715681 -0.00976202 0.00600139 0.000543184 -0.0145657 0.00645745 0.00530839 -0.00869016 0.00599538 
0.00791592 -0.011615 0.00616162 0.00557331 -0.0103424 0.00707656 0.0069233 -0.0080104 0.00695508 
0.0144005 -0.015364 0.00604479 0.0140669 -0.0106546 0.00601273 0.0121459 -0.0154334 0.00599622 
0.0144735 -0.0133452 0.00599764 0.0118553 -0.0134567 0.00599811 0.0102687 -0.0147447 0.00599698 
0.00948057 -0.0128584 0.00599918 0.0110788 -0.0116357 0.00634355 0.00952291 -0.0104242 0.00601928 
0.0115305 -0.00972188 0.00600162 0.00886593 -0.00852534 0.00601676 0.0156697 -0.00938163 0.00602232 
0.0159363 -0.0113583 0.00599711 0.0175239 -0.0138045 0.00600237 0.0180652 -0.0118861 0.00599791 
0.0200615 -0.0119989 0.00599891 0.0214982 -0.0106106 0.00599969 0.0175878 -0.00994135 0.00601053 
0.0222519 -0.00876092 0.00599822 0.0203426 -0.00818914 0.00599676 0.0172413 -0.00771442 0.00604333 
0.01946 -0.0138406 0.00649603 0.0195834 -0.0100397 0.00600714 -0.0200043 -0.00669241 0.00600184 
-0.0202433 -0.003168 0.00599994 -0.0180224 -0.00644794 0.00599884 -0.018951 -0.0046851 0.0060143 
-0.0232257 -0.00545319 0.00599833 -0.0222087 -0.00281773 0.00599766 -0.0187191 -0.00157028 0.00599999 
-0.0206865 -0.00122285 0.00599818 -0.0218034 -0.00656098 0.00685792 -0.0175284 -0.00328301 0.00599851 
-0.021513 -0.00460135 0.00657109 -0.0238554 -0.00168964 0.00605569 -0.0178648 0.000328365 0.00600009 
-0.0224433 -0.000276536 0.00602522 -0.0207431 0.000636783 0.00672122 -0.0167366 -0.0013207 0.00599829 
-0.0128148 -0.00761009 0.00600795 -0.0162461 -0.00734994 0.00599808 -0.0113062 -0.00306394 0.00599835 
-0.0150566 -0.00240027 0.00599676 -0.0146597 -0.00043821 0.0060017 -0.0126716 -0.004525 0.006001 
-0.0143924 -0.00636987 0.00600403 -0.0102677 -0.0047695 0.00600735 -0.0165978 -0.00504964 0.00611295 
-0.0146919 -0.00436811 0.00602644 -0.013173 -0.00267563 0.00659974 -0.00889989 -0.00314862 0.00601374 
-0.0101577 -0.00142698 0.00599764 -0.0126581 -0.000486975 0.00599893 -0.0114846 -0.00623962 0.00659544 
-0.00548291 -0.00777898 0.0060003 -0.00372543 -0.00787101 0.00706122 -0.00331785 -0.00623296 0.00599866 
-0.00327797 -0.00423854 0.00609119 -0.00156953 -0.00526647 0.00599693 -0.00649333 -0.00605227 0.00600098 
-0.001516 -0.00327313 0.00599842 -0.00474941 -0.00274861 0.00599961 -0.00691977 -0.00388033 0.00599993 
-0.00178221 -0.00129555 0.00600247 -0.00374088 -0.000907417 0.005997 -0.00821175 -0.000972108 0.00599885 
-0.00624538 -0.00142089 0.00599927 -0.00516979 -0.00466565 0.00657465 -0.00833875 -0.00528351 0.00599643 
-0.00304522 -0.00248082 0.00700764 -1.56868e-06 -0.000393741 0.00599772 0.00556005 -0.00671105 0.00601089 
0.00601168 -0.00467429 0.00599417 0.00638313 -0.000950248 0.00599957 0.00170724 -0.00147572 0.00599753 
0.00274424 -0.00576126 0.0059956 0.00807476 -0.00668826 0.00599883 0.00800827 -0.00463081 0.00603056 
0.00381451 -0.00199108 0.00599869 0.00372227 -0.00749308 0.00615855 0.000820445 -0.00474823 0.00599912 
0.00561899 -0.00275726 0.00638412 0.00228089 -0.00338676 0.00610864 0.00758275 -0.00267767 0.00602215 
0.00282824 0.000105599 0.00648517 0.00476315 0.000222336 0.00599591 0.00410169 -0.00418394 0.00631406 
5.39405e-05 -0.00230391 0.00676748 0.00841298 -0.000860921 0.00599958 0.0144061 -0.00783812 0.00599723 
0.0123145 -0.0078876 0.00599793 0.013696 -0.00394959 0.00599734 0.0095987 -0.00289427 0.00599805 
0.015611 -0.0033776 0.00599596 0.0122742 -0.00189079 0.00599669 0.0142703 -0.00189561 0.0060214 
0.0104095 -0.000940185 0.00599926 0.0100654 -0.00684723 0.00599598 0.00999362 -0.0048534 0.00599816 
0.0143303 -0.0058432 0.00599661 0.0116571 -0.00377507 0.00622593 0.0162964 -0.00593305 0.00634814 
0.0162458 -0.00160373 0.00665891 0.0130278 -4.20849e-05 0.00601361 0.0149243 -0.000112347 0.00663377 
0.0121494 -0.00577965 0.00600776 0.0222583 -0.00676183 0.00599849 0.021894 -0.00207785 0.00599562 
0.0193561 -0.00645279 0.00599592 0.0182726 -0.00477756 0.00600044 0.0208824 -0.00508071 0.00599855 
0.0236496 -0.00329743 0.0060125 0.0176185 -0.00289156 0.0059963 0.0199125 -0.00312715 0.00602694 
0.0238338 -0.00130465 0.00600103 0.0233333 -0.00519322 0.00661228 0.0180569 -0.000943218 0.00600101 
0.0201702 -0.00106407 0.00600578 0.0220741 -8.85425e-05 0.00599855 0.0219929 -0.00377444 0.00703782 
-0.0238547 0.00113462 0.00599922 -0.0192371 0.00450657 0.00602407 -0.0215653 0.00592327 0.00601781 
-0.0224618 0.00789423 0.00599926 -0.0185031 0.00811541 0.00599855 -0.0220394 0.00197586 0.00600029 
-0.0197847 0.00243029 0.00615354 -0.0216001 0.00392542 0.00599903 -0.0176809 0.00235222 0.00600285 
-0.0175115 0.0062992 0.00603772 -0.0237475 0.00308151 0.00643133 -0.0233284 0.00498654 0.00599878 
-0.0196488 0.00648061 0.00599961 -0.0205308 0.00846133 0.00599804 -0.0165088 0.00802633 0.00599872 
-0.0159947 0.00105258 0.00600016 -0.0108071 0.000461076 0.00599869 -0.00897371 0.000685791 0.00688844 
-0.0137389 0.0013437 0.00602235 -0.0123868 0.00814096 0.00599871 -0.0145861 0.00856254 0.00599866 
-0.00993059 0.00225482 0.00599857 -0.00932101 0.00425645 0.00602202 -0.0119299 0.00498724 0.00599729 
-0.014813 0.005069 0.00600675 -0.0164948 0.00396996 0.00599931 -0.0100155 0.00620896 0.00600278 
-0.0119415 0.00225953 0.00600234 -0.0150684 0.00271485 0.00661927 -0.0134075 0.00364048 0.00600108 
-0.0109216 0.00362604 0.00705549 -0.0133313 0.00639406 0.0062314 -0.015058 0.00694724 0.00707169 
-0.00897729 0.00744155 0.00720581 -0.00718997 0.000744476 0.00599837 -0.00521932 0.000433003 0.00599951 
-0.0022938 0.000633025 0.00599927 -0.0010826 0.00717607 0.00599754 -0.0077674 0.00848664 0.00600699 
-0.00274862 0.00826889 0.00599959 -0.00601566 0.00232544 0.00635605 -0.00796153 0.00258615 0.00599763 
-0.00403363 0.0020387 0.00599875 -0.00132118 0.00237622 0.00599996 -0.00285803 0.00365131 0.00599894 
-0.00483141 0.00391629 0.00613162 -0.0068297 0.0042313 0.00599832 -0.00395834 0.00570768 0.00599928 
-0.000188428 0.00402046 0.00599736 -0.00462204 0.00758844 0.00599718 -0.00172447 0.00528895 0.0061035 
-0.00791709 0.0062095 0.00604648 -0.00593077 0.00601489 0.00599886 0.000343255 0.00633105 0.00710556 
0.00567817 0.00199876 0.00601381 0.00184286 0.00313614 0.00599763 0.00719009 0.0033051 0.00599548 
0.00104792 0.00130482 0.00599899 0.00534599 0.00426553 0.00599514 0.00148805 0.00510001 0.00602679 
0.00784777 0.00586566 0.00600064 0.00420177 0.00624058 0.00599957 0.00232129 0.00691143 0.00600966 
0.00674554 0.00764465 0.00599762 0.00373584 0.0024763 0.00600064 0.00744608 0.000888152 0.00599944 
0.00336441 0.00443401 0.00616585 0.00356167 0.0084717 0.00599581 0.000701062 0.00807509 0.00602545 
[...]
POINT_DATA 5997
FIELD FieldData 7
id 1 5997 int
265 2414 145 2597 1757 4634 684 1522 5792 
4932 599 3787 883 5540 2883 1904 2524 2359 
3641 1687 1841 5327 5710 677 1682 5018 1347 
310 1451 2300 4547 3319 4428 4712 5583 1246 
5456 3602 1563 5029 2351 3437 53 366 4873 
1163 4516 5729 4704 3285 464 4909 4058 2364 
4113 5685 808 1241 4851 5716 884 4046 520 
3531 2329 3644 1480 1060 4756 2115 3032 1810 
213 2805 2477 2090 5630 1054 5677 5089 3217 
1265 3183 456 2966 3533 4748 40 2561 3461 
5132 2643 5219 182 3880 1394 2830 6056 4241 
3970 4305 11 1170 1119 1722 5226 3070 2158 
3092 1597 4934 1058 3161 3142 4949 3130 984 
479 601 699 1444 4759 5384 1749 198 3051 
922 4722 5781 4763 1384 2689 1307 1686 5893 
4984 3455 701 637 2728 4003 5206 5348 4579 
3790 940 2543 3427 3211 80 1110 3221 4193 
1494 4393 258 430 4168 4765 3357 1669 3501 
972 2421 1532 4496 5087 4987 690 4314 5632 
2059 2044 2178 584 2434 4346 5444 381 5650 
1676 5187 3814 5574 349 1680 2323 5691 732 
1107 2017 3642 1008 5688 2917 4295 1926 1853 
2142 4286 2981 5788 3555 1498 4702 864 1136 
1202 2259 1041 4369 3937 5147 3181 1244 767 
5326 1438 8 1489 4175 3231 2573 3280 2120 
1376 5526 452 3373 5971 2226 4846 5292 708 
5323 1021 4247 4942 5570 3966 4799 3103 4718 
705 5809 2029 3397 1389 5468 5088 1461 2587 
473 1078 853 970 3405 5934 2177 4284 5280 
3693 531 5466 4569 2529 1429 6023 2572 5245 
1632 1552 5602 1709 1748 2827 2949 2691 4234 
1559 3806 3785 3685 5557 897 4387 4165 1959 
4405 482 3055 3496 2166 3567 4591 4230 5699 
4025 1708 2322 3713 3519 5082 1878 1369 5273 
3625 316 2215 5649 3477 4226 4263 2137 629 
2308 2411 1075 2012 4775 4828 602 122 4915 
2205 1193 446 750 2861 1226 2511 1149 6050 
307 1161 849 1866 2148 2107 334 3575 4700 
2395 5489 328 1972 194 5308 4159 1293 5606 
5607 1281 3795 2131 435 371 5017 755 3389 
2110 2452 5054 2054 2847 3956 4692 688 319 
2968 4666 229 4042 2536 6003 379 1979 2704 
1767 4209 1152 2460 4564 3022 323 747 2068 
4847 150 2104 4222 3753 1428 140 4534 1042 
2858 4005 5007 1412 4663 3878 3042 1211 2051 
5805 1574 386 779 4105 1028 1352 5869 3097 
635 2280 4427 2939 579 161 4972 3549 2007 
3362 4176 908 4654 1370 2472 3274 4743 907 
4011 4527 4653 1898 5189 1759 1483 3203 308 
347 1887 1088 3382 3872 351 1182 2390 5813 
5654 359 4430 4673 4454 5285 5941 5680 1104 
445 2865 90 407 5803 4860 5366 2809 76 
1410 4359 2655 3941 937 313 5333 189 2570 
4936 245 4937 5372 2088 3728 798 4784 207 
1945 3194 2581 6041 4912 2378 5166 4274 506 
3708 5808 4831 2985 4726 346 5163 3574 168 
5905 2371 2676 2189 1358 3059 4452 4526 5644 
1864 3012 5190 3226 4652 5898 4466 1765 3869 
1172 489 2545 1272 1799 1497 3363 290 395 
5135 4429 1879 5426 3821 5430 77 758 2394 
518 4782 1327 1802 4962 1699 5976 4779 6061 
136 920 4642 6025 4683 2153 5131 3177 2072 
4621 4773 3199 866 1712 2497 1001 3412 1596 
490 4801 4154 527 273 2748 3925 3710 4036 
4221 626 3724 4822 1165 3722 5104 5100 4817 
692 3160 3712 2963 2890 1760 1691 432 2680 
4698 2996 4020 3604 2967 1644 3306 819 6014 
64 2591 2457 1756 5508 5265 4643 578 5287 
4419 48 4969 5401 5529 5123 2825 5383 2924 
5469 3832 5681 2562 961 669 151 5855 2468 
2116 4709 1764 5521 5246 614 2978 713 2557 
3346 105 2112 2569 2030 2006 1470 5149 5451 
3259 5238 2311 5395 291 5236 1016 4377 3570 
3665 2173 4946 3651 425 4806 5923 4786 5930 
5067 2344 5766 2846 2876 784 58 3234 5180 
1206 3895 4395 477 3214 805 1064 2914 751 
5022 1052 5692 3116 4030 4106 38 5044 5663 
3754 1723 4929 3398 3673 1826 5009 6031 2658 
5038 3759 2788 4409 4802 5340 3511 1888 825 
5225 5712 4313 4208 5313 5286 4990 2081 2527 
3882 5247 769 107 2743 3297 2923 2661 630 
4152 5153 3526 822 582 3436 512 246 5077 
976 4563 274 5593 4426 2810 5162 4163 5345 
3202 2836 3298 2417 1968 4747 4665 2927 1566 
5601 5148 5097 5683 3603 3148 2067 4650 1146 
5652 3360 1783 2804 6037 3723 2451 4407 3537 
2035 4470 2338 5138 4115 3521 4889 295 3692 
416 5701 3846 1284 5911 576 895 3120 1234 
73 1918 2909 3369 541 2703 3964 2617 1318 
5011 5261 3955 4013 1317 1609 5338 5945 3624 
3572 3992 5564 683 4071 5646 3854 139 431 
3714 4588 3007 2683 1828 3143 6028 3219 2635 
236 5213 2159 2184 1615 3025 3155 707 5548 
5059 565 1861 2133 4836 2252 4026 2075 5980 
3367 1326 1174 775 1070 879 3154 306 5595 
1530 663 5597 645 617 474 3115 1950 1462 
957 1176 3125 4573 3520 6047 5494 5697 5400 
3168 5155 244 3718 5186 4362 2718 6032 3735 
116 1733 4174 1071 2641 3021 1312 4896 5555 
5259 1849 5021 3504 1930 2664 759 3133 3720 
4231 5605 739 4254 1303 843 5164 693 4480 
2601 2652 1984 5619 3582 2618 5786 5482 3773 
220 5789 2795 56 1706 2092 1138 5836 2243 
1150 1213 3046 3709 6017 5072 985 1766 2399 
4515 3844 5724 2744 5120 1678 5106 3960 4002 
4716 1404 4017 2355 2412 5552 4553 5239 2566 
3660 4086 5341 2285 4050 129 938 841 835 
5616 5075 1237 4684 1109 37 1022 4660 4738 
4795 5019 593 357 3608 988 2297 1210 2145 
2495 3553 149 4167 652 5157 5857 2480 5447 
5073 4348 5271 3391 2212 5689 1840 2659 1586 
3630 4215 639 2350 1179 1835 1201 2821 5989 
2516 2099 5927 3677 4001 1672 3279 2319 5818 
3139 2346 13 2114 4061 2794 5912 4894 142 
101 3179 4895 1651 1114 383 2193 1901 1817 
5784 5228 5778 4814 2729 2975 2037 5536 2374 
2898 1536 3805 4493 746 3293 1118 3077 3927 
2770 5850 3108 5317 1256 1112 3991 3986 3980 
1827 1805 4293 3733 604 5143 3232 3283 2959 
2230 2253 4945 4079 5556 5094 4707 1648 5774 
891 1732 4200 4414 3109 3240 1996 424 959 
469 3287 287 5518 5179 2171 4575 4917 1613 
4970 3457 5668 5440 4714 3863 2415 1282 757 
700 4462 5621 2425 4757 5337 740 3792 2599 
2509 1824 535 3614 3353 3967 3468 5961 3807 
2002 2188 5178 4224 488 5375 3169 113 1684 
4717 2767 5620 3939 6019 243 1668 5091 2644 
574 3100 5703 3536 3702 1319 148 5458 4391 
1981 1692 1449 106 944 223 1224 2149 5958 
4605 5330 4776 2579 5738 5464 726 4581 279 
5242 1729 5863 3931 1257 3235 3569 2325 5140 
5591 5175 3323 1771 1703 555 4891 14 1500 
2349 1661 5527 4767 1862 4130 5779 5431 1340 
731 4794 3600 1973 5256 1247 680 4693 3930 
5513 3241 3443 5505 586 5725 1458 322 2894 
4059 1772 1770 5846 1949 3328 2449 580 4921 
2690 2551 872 2043 2609 538 2518 4101 1816 
5283 2784 2124 5511 4705 3149 3486 902 1971 
625 3664 4164 1675 4311 3669 4783 1546 162 
5334 4084 4063 2198 1594 1399 5925 4278 2757 
550 4256 2225 5676 2260 2651 4225 2768 1834 
1704 1220 1417 1506 1275 1056 4947 5295 1229 
1843 2663 5871 4201 816 5356 1731 2627 1775 
507 1653 1433 155 2746 3738 3014 4143 1654 
3894 1123 3265 791 4232 1322 1091 3263 6009 
3018 4114 377 863 3060 3065 953 3529 2199 
2980 4090 1382 3750 5045 4351 3255 4491 5569 
5866 1131 2266 5990 3294 5785 4951 1746 1043 
2590 4903 250 5704 4618 4816 4815 1139 5702 
5772 5604 5559 1302 2542 1969 1400 3010 5215 
2513 4292 1183 2157 2246 1230 384 5982 1020 
3420 5929 2248 3327 5948 5535 4102 4529 2476 
3356 2843 132 3131 1359 911 3544 4483 1533 
3935 4117 4142 4349 2026 4964 118 4661 3040 
203 262 5252 5633 61 5002 2126 5507 537 
4512 5217 4900 4468 1398 3684 4484 1188 4624 
4379 2286 1696 1781 2402 1298 4562 1582 4271 
1872 2900 201 2499 1409 660 4999 3446 3545 
5053 5278 4317 39 2634 1778 804 2994 5453 
1650 1823 3381 16 969 1050 402 2321 3326 
3320 4925 3111 1411 3829 636 5193 3325 325 
3990 2808 2496 4119 752 1142 1034 5461 834 
1288 2334 3933 423 2892 3266 3063 1538 3922 
516 2533 4180 2863 2916 548 813 809 4172 
1786 4479 4583 1175 2314 4303 2141 1848 4594 
3932 5207 1422 946 1427 4571 595 3372 2061 
2365 3114 558 2606 2191 3506 4631 2168 4160 
3207 1381 2970 704 5030 4078 5406 2430 3943 
4413 3675 3560 1140 1178 5613 792 127 4826 
3033 1442 2950 3771 2069 3416 2907 3165 2122 
4197 3820 5000 2102 5847 4019 1658 5987 1983 
2216 5042 4139 761 2176 234 5433 2822 4411 
3706 1097 2027 3592 807 2550 1338 3762 3944 
993 2485 1611 1023 6034 5291 2236 4614 5503 
3716 2483 4041 2764 179 965 5336 2185 2335 
2194 5837 3400 5742 691 4492 4357 5111 1238 
968 787 4095 2435 3392 2957 1788 5986 5237 
374 3132 1232 5156 5315 621 4153 3645 4914 
4943 2619 3307 4023 3223 5398 5944 1564 3302 
562 3690 3968 3289 104 4839 1545 3393 4960 
4922 2428 1294 5381 2908 5900 4904 4531 1084 
3719 1248 360 6052 2928 5672 4681 4081 3648 
3441 3430 436 4849 1882 5610 5769 5767 3024 
1936 5062 1039 5071 810 2640 2505 2700 5339 
1375 1203 818 981 5651 889 3336 1758 543 
4331 2956 2372 3786 190 3658 1915 5815 776 
470 4560 712 631 1777 5938 1577 2009 123 
5204 4436 1537 1024 3666 2789 4691 3309 1147 
2747 4098 2162 2063 5405 1664 1235 108 1539 
4559 2056 3472 741 3377 2816 1860 434 1439 
1416 1524 1492 4953 4843 1029 2032 5151 5849 
4954 575 628 4511 3144 3126 1360 3514 3938 
4878 3113 748 2773 1132 3490 5040 4410 4104 
1825 3663 1541 74 1362 1037 2219 5996 1371 
1426 3094 293 2484 1957 3620 4609 1189 606 
3439 1496 5448 5443 267 2998 2856 971 2240 
2464 2025 1268 2897 1 2180 966 3607 3679 
3087 4973 2776 1549 848 3093 646 5806 3606 
4788 1791 3962 1812 4499 5973 55 4403 4018 
1365 3896 3106 29 1208 4280 5922 1157 2904 
4257 3089 2038 5027 1795 3344 3587 5718 4309 
3406 1995 333 3452 5775 4546 2221 4141 4077 
587 5122 1946 6043 1893 4169 5249 5550 4464 
2066 1051 1662 3784 5626 1988 5796 2492 1348 
1622 4604 2368 3343 3401 4592 1395 5726 5736 
3258 4680 3583 3513 4412 3056 5192 2125 5565 
5473 4870 4620 1011 4184 5051 2621 3447 2152 
5733 2220 1025 2244 210 4112 4907 5234 4824 
3322 4590 1595 4555 408 5390 5753 356 100 
5897 41 5109 4022 546 491 3815 3023 1769 
5063 1610 225 4065 4939 5177 4771 4528 5113 
1768 1673 211 5351 3434 5497 607 827 5459 
3438 3049 2209 277 1561 1173 671 4708 4994 
3422 1567 3797 4632 119 5910 3508 5662 5408 
5750 2459 85 5416 2183 744 5171 222 5545 
4768 2588 4638 2844 1485 3209 2356 4585 2888 
5385 284 3610 2479 2101 460 1900 4269 1321 
2947 962 341 278 1889 22 2999 3745 2382 
3897 3186 3163 783 3210 3791 978 3339 4736 
1184 4121 563 4746 4734 1047 3988 6040 196 
2984 3347 5947 1012 4051 1640 4489 4323 4052 
4785 1432 5478 3121 4971 1194 771 870 3334 
552 5690 1003 1336 4807 4416 495 5580 1932 
156 2055 420 382 2615 2686 5737 766 4204 
304 768 3599 5221 5791 4191 999 1385 2781 
3639 5510 3276 772 1963 1903 4122 5125 577 
3834 4450 5250 1701 4537 4882 502 4580 2277 
2488 1985 905 760 5622 1035 1886 361 3907 
2983 2538 4038 3156 483 764 5517 1490 2724 
1838 2486 3674 4646 711 4319 2633 3819 2849 
5382 5086 5752 3090 3802 666 5642 5673 1185 
2812 3653 4656 5581 2431 1313 2004 4233 5835 
1159 4223 934 3091 4733 3559 364 3150 2807 
4173 3383 4183 5810 348 2973 523 865 4435 
3473 1111 1379 1192 4742 5386 5210 3705 2370 
3005 3198 2229 2337 3772 4993 3668 5402 2945 
3043 3324 180 2097 4259 2667 4431 5558 1739 
1869 4636 3484 1276 4199 2127 3760 1055 5573 
1753 3313 5665 5154 1061 3175 1806 1443 5112 
4378 43 451 5876 590 802 254 4762 3605 
2832 2986 597 5538 5988 2531 3421 5421 3361 
4032 5525 2278 5715 2528 1923 2713 2298 2878 
314 551 5472 6022 1543 4519 697 6007 4336 
342 4864 3008 5276 1209 1914 5188 1128 1897 
806 3485 903 832 1645 4015 5682 2119 2144 
1287 4437 3494 2373 181 4796 888 2146 1431 
5202 2453 130 3478 3497 4330 1755 1789 321 
2799 1880 1245 3704 78 2695 2841 5531 1710 
5544 6066 2906 4125 4649 4132 2058 2672 1479 
5542 5666 4641 3993 1859 1456 1634 2868 252 
2100 2195 5270 448 3467 3489 4772 1931 2473 
5170 5078 2031 3492 227 2022 4706 3749 3910 
4088 715 2826 5304 4995 3627 1784 2521 1839 
3839 1289 862 2895 5267 1007 1631 5419 3151 
1129 1437 2167 1309 2151 3764 2264 6 3901 
952 6044 3425 1894 2925 1689 2353 5541 2000 
857 2093 4218 1032 4062 447 1842 2080 3104 
2463 585 4613 4857 4364 4037 4441 167 2256 
5096 5816 1780 1585 1516 892 412 2258 1598 
2501 5425 363 2705 3039 983 5741 283 2251 
2647 93 3871 2737 324 1471 3371 6002 241 
3916 1339 3019 661 4396 6062 1144 232 3736 
275 5331 3127 1195 5645 1575 5777 5492 368 
5631 3481 5743 3086 2442 1602 5214 3141 6036 
3136 4961 4835 5041 2567 2896 5995 1940 1000 
4156 1656 2887 2341 2118 88 2717 3078 4198 
1635 1015 2976 2558 996 5412 694 2206 3643 
3591 5195 5446 5611 900 5232 5960 5181 5600 
5198 3247 3902 2419 5532 1383 1356 632 4045 
638 4342 5664 2653 3239 4830 3300 1085 4469 
1346 3110 1928 97 3538 4055 5289 3317 3568 
898 513 3686 5892 2033 5297 4289 2778 4335 
2089 2211 4179 5826 1065 5084 1625 3547 478 
5306 4447 725 282 5970 2515 1349 69 1822 
913 5039 1578 2578 1787 2642 1239 376 5307 
2345 1343 1367 6070 1255 413 2202 3052 230 
5516 829 4016 467 1619 3530 5235 3678 4910 
4606 4279 185 3002 3798 3809 1633 5802 1641 
3474 1143 847 3225 2261 2954 1694 3579 159 
4674 3242 111 1401 753 3562 1717 2842 4190 
2478 788 4890 2787 3407 3162 2320 427 375 
5936 3037 1681 3424 2360 4504 2470 1531 1553 
5587 3818 3523 5749 5656 5373 3192 2670 4834 
4150 875 6015 3766 3601 3638 2952 4584 166 
4576 1168 3164 1171 2592 5759 605 2042 4091 
2675 3180 5895 1854 1821 3949 3729 3158 4408 
2750 170 5309 4432 216 2490 5647 9 4151 
2823 1909 3368 3348 271 2500 2864 3578 3335 
2623 1831 653 5627 662 4255 4854 2389 1330 
1454 3546 261 3999 2723 2620 2047 4490 2625 
3119 193 594 1364 165 2465 1221 205 1197 
2247 1844 3013 1386 2354 6021 503 4205 2586 
51 5049 3540 4820 588 2506 1947 2154 4157 
75 1074 28 2674 4366 3889 437 1299 508 
1372 4968 4876 6024 1576 3370 4502 3080 4290 
915 2519 4587 5393 3647 1253 1026 2547 419 
5848 5321 3632 458 5603 2833 894 4306 1059 
5365 3200 4509 1240 686 4375 3874 5435 1655 
1096 3551 4235 5924 3011 4916 1478 4329 5150 
4473 5127 4097 3886 5201 4600 5596 4952 2754 
1646 2014 1361 2708 3694 3057 2427 4840 4010 
3586 3770 2393 5263 5211 5770 1960 4612 3780 
941 1509 5608 5047 1730 1455 3661 4899 4008 
1154 3721 2650 4724 667 5023 5566 3502 5943 
2045 789 5909 288 4859 1279 2835 1476 3697 
5474 3073 5906 2727 1077 1557 5844 4769 429 
3796 2666 4577 5629 3958 3067 801 242 2203 
738 212 3083 2576 1702 675 749 4983 4805 
4906 3823 2309 3159 4617 2714 497 4974 4273 
1260 3064 2231 4841 3615 2933 3628 4582 1368 
5698 5765 2790 1278 2837 4007 1473 1508 3462 
5296 3741 5675 4640 3396 4655 5655 4253 3672 
2943 5748 47 4386 992 656 305 5374 5955 
2493 517 4760 1814 3071 4568 5658 4361 45 
1164 5130 1419 5069 4823 2972 5981 2487 5891 
5935 2755 3598 1430 3041 560 5262 2877 948 
3611 2758 300 1857 18 2882 500 1628 1191 
5954 2287 5537 2062 4356 5877 1846 2003 3354 
3779 2756 4340 3444 1215 5290 1421 3972 642 
2064 5124 3270 1105 5036 2084 4853 618 68 
4494 3524 3408 249 5169 6067 4219 5090 3585 
4678 3435 3961 3852 4237 6012 5854 5824 5659 
3460 4308 4881 600 3893 2179 1236 790 3577 
1962 4542 2385 5984 5609 1187 1511 4185 5811 
30 1373 3701 530 5081 3249 1254 4675 2815 
918 3038 5551 1657 4703 2433 861 1744 1593 
1408 2549 3488 529 5706 4902 3068 417 1405 
778 1005 134 5342 217 6029 3777 1251 945 
4383 450 4957 63 4603 4203 4249 5142 4610 
5957 4040 471 2593 1169 5048 5974 1715 2774 
754 259 5394 504 5277 3171 5834 4628 4804 
4608 4701 5182 3479 2281 4589 2874 5251 4852 
405 5592 1724 4380 1397 5851 5441 1540 956 
3746 2439 5500 5248 3191 2379 1249 917 4404 
5700 3887 5216 2885 2294 3566 3751 2899 858 
5740 5136 3185 3571 3539 509 455 2603 2745 
958 1484 3423 5423 4819 3554 742 4749 4892 
1328 3464 2327 2233 5061 1242 4616 4299 2848 
2632 4950 4871 1667 1917 2687 2482 3512 4288 
6046 3411 5696 5068 3858 1148 5800 4682 372 
5614 4548 5878 3030 5949 1569 1659 955 1425 
5299 745 4162 4135 4766 1754 2903 4074 4339 
3188 3978 2462 191 3228 5780 2333 2571 4842 
2915 3827 3850 5825 2422 2050 2232 1450 5046 
2098 5754 2024 5391 126 4291 4488 5873 3534 
2312 171 94 899 5462 4196 4275 1851 414 
4082 5760 2629 4623 1568 5389 4645 2491 2965 
12 735 3879 4798 3727 1952 3951 2684 5674 
1306 5457 2624 4998 5890 5227 5940 5939 3318 
1865 5347 2255 3174 1649 388 4304 1334 3799 
4695 1207 561 3253 3321 91 4850 3841 4982 
4497 4244 4296 2564 592 1153 2678 1413 1286 
1448 5258 2752 5638 6058 3388 4194 1030 4134 
3995 1743 5010 3246 5274 2086 2636 4110 3594 
5031 3635 2782 4926 2377 1486 3851 2722 743 
6013 1345 4238 10 2958 3581 1819 1214 2274 
4220 823 5865 1558 5093 409 54 785 610 
120 997 5979 2806 177 3698 4898 877 2192 
480 5367 4129 5070 2079 5967 5244 5092 1079 
5915 3292 4250 4057 3688 3776 3244 1076 1855 
2279 1177 494 1277 2555 2404 268 4741 3084 
4880 2886 4188 2871 2228 5184 3875 5102 4248 
786 3482 3996 2701 5498 1895 5994 238 4073 
96 4530 5076 95 5369 821 2682 3781 3390 
5158 3934 2475 1467 231 1095 627 728 3699 
1939 3989 2292 2283 1113 5598 2362 3414 4787 
83 2602 2739 6008 3379 1167 723 3308 400 
1583 1435 5028 4443 1219 2020 2269 3924 4265 
2117 2375 1785 1258 796 128 4068 1513 3900 
2838 6069 1515 5362 2418 525 3261 309 2245 
1459 2563 2614 3788 4552 3636 2284 1469 1642 
5951 4202 4996 540 3197 3954 2443 183 3541 
3303 1333 4549 5515 1436 6018 3224 3730 5795 
3428 619 221 3491 3774 763 5841 2396 5414 
3920 4100 1305 2076 887 4385 836 5972 5874 
5839 676 493 2504 3778 4069 2207 583 4676 
5880 990 3945 2715 124 4927 5719 2537 4694 
2048 2935 5913 1977 112 4206 4350 4944 3101 
4147 2990 5103 3122 3946 4166 3662 878 1745 
532 3301 4503 428 380 2444 3166 2540 2921 
3167 5969 6033 1374 6049 4520 2296 1393 1475 
2267 1948 4729 4268 5917 800 4049 4398 1970 
1899 4424 2673 5670 5460 4685 260 4434 5396 
2036 4800 2780 272 2015 5801 1875 1986 4355 
137 702 2052 5926 2734 5026 1094 2271 3095 
4626 5952 4009 2458 3429 1639 4810 2605 2811 
2160 1562 5576 3616 2018 1803 5707 4439 4521 
4171 4181 3552 930 4144 2510 5230 192 2611 
1474 5919 1501 3001 4808 4737 620 2461 1528 
5107 152 60 393 2783 2190 3842 343 3140 
1591 153 4637 5411 5524 4354 87 3314 4965 
5314 3493 5761 2712 4629 3811 3915 5346 3656 
890 3881 1014 3282 3277 5471 1804 3124 5013 
266 4875 1938 4827 4136 1719 5827 2466 1406 
2919 1637 3290 2631 463 1584 4399 3182 2008 
1736 1581 3853 4021 5903 1700 4070 2721 2440 
3248 1283 3345 3752 1587 4838 4245 4874 5025 
1856 5584 1218 4751 557 5590 1481 2860 5744 
2749 3979 3355 214 4460 3737 373 1590 1910 
4449 5599 4415 298 4753 980 92 1605 3654 
2065 1554 608 1935 3252 4124 2987 5335 3977 
4240 4955 17 1526 3985 1388 2779 4338 5783 
1713 2969 3403 4137 837 2343 3020 4601 3503 
5820 175 5625 876 2873 1160 3864 4668 4186 
1555 459 3509 4524 1829 5108 3707 4266 1324 
3942 4352 5160 678 5628 1222 4525 2517 3153 
4535 3112 514 3017 4267 554 3275 1089 2936 
882 2775 4474 2707 4272 2083 3742 730 5721 
2407 5083 3748 1006 2765 3195 2140 5376 2982 
1445 1487 3589 4812 3088 1620 2170 4251 1933 
679 2616 2424 5732 1300 3597 4651 3082 1090 
466 1570 5667 3105 2824 1548 5728 2438 5983 
4858 2741 4533 1227 6060 854 1735 1517 5751 
5756 2730 3216 4888 5708 5353 1809 1311 4908 
1199 5427 5862 5056 4532 5641 5429 5931 3035 
2905 2432 2367 3808 2494 869 640 3237 1355 
6068 616 4541 46 2288 4551 4607 2391 2630 
4669 3876 4893 1527 1991 4959 5118 1606 2318 
1072 4975 3399 3413 2828 5832 110 4938 633 
916 2049 5240 995 3245 4148 4421 932 1740 
5717 3337 1693 5233 4047 2150 2273 1504 1503 
5823 3584 4080 4818 5231 3800 1630 1013 6001 
4302 2725 5012 2242 4670 709 2295 3376 2401 
5481 3825 2307 3789 2829 365 2797 2912 1453 
803 2147 1956 718 4598 369 3137 4862 991 
2446 3134 1493 3448 3522 5819 218 729 86 
698 3917 3973 1652 1271 5585 3848 403 1721 
927 4697 2879 318 1556 544 4371 410 4211 
2731 4054 5145 1440 202 4315 2340 2671 4498 
2217 131 1100 3888 1402 5571 824 3238 5594 
6042 3284 487 3048 4093 682 186 1921 3312 
4887 3744 1551 5720 4811 5512 1250 762 4064 
5678 3201 4833 3330 1073 2129 5884 4781 4138 
2467 5491 524 2387 299 4347 5476 1233 737 
2489 2164 3220 896 226 5058 1130 4039 1953 
2911 2358 5350 931 5798 1920 4376 3333 5829 
5475 3315 1998 1571 534 4214 2270 2851 4886 
1705 609 4442 2204 5316 2937 1638 1274 2070 
4928 4997 5914 3908 845 5319 2798 885 317 
1261 722 1997 2772 23 505 1009 1252 501 
3940 1514 910 5586 2554 49 1465 1387 3044 
20 3286 5079 545 1636 710 5364 1295 2156 
4686 1048 4844 1314 2040 5582 4868 3518 1773 
1714 1378 643 5133 3911 5015 320 2406 3873 
860 5843 4924 312 6010 2201 499 947 2991 
1353 4647 5437 5324 6011 4739 5152 5312 3816 
31 4465 6016 4657 1616 3471 3358 354 114 
3402 850 936 1337 5016 4540 511 418 2792 
2742 3883 5705 4940 5727 1259 4260 3507 3556 