# vtk DataFile Version 4.2
Generated by LIGGGHTS
ASCII
DATASET POLYDATA
POINTS 3 float
-0.0223643 0.00529154 0.0396244 -0.00945902 -0.0188287 0.0539094 -0.0231761 0.000331228 0.151434 

VERTICES 3 6
1 0 
1 1 
1 2 

POINT_DATA 3
FIELD FieldData 7
id 1 3 int
4217 5653 4280 
type 1 3 int
1 1 1 
i 3 3 int
0 0 0 0 0 0 0 0 0 

v 3 3 double
2.9570045356e-13 -4.097169412e-14 -0.5295499108 1.2875350232 0.081513904952 0.66097616942 -1.2337886959e-12 4.4794331378e-13 -0.30578026284 

f 3 3 double
2.1529444894e-11 2.7512214729e-11 -0.00082184065123 0 0 -0.00082184063818 2.2509993869e-11 3.4106051316e-13 -0.00082184063818 

radius 1 3 double
0.002 0.002 0.002 
omega 3 3 double
-2.1510279293e-12 -9.0934890127e-13 -8317.9186127 0.2002052575 -1.3663533404 0.00010548625873 3.7000082151e-319 -1.7262653666e-319 113.84590446 

