# vtk DataFile Version 4.2
Generated by LIGGGHTS
ASCII
DATASET POLYDATA
POINTS 6000 float
-0.0166394 -0.0417862 0.00399909 -0.0128522 -0.0430706 0.0039993 -0.0101069 -0.0401622 0.00399988 
-0.00148745 -0.0408449 0.00399991 -0.00897027 -0.044033 0.00399974 -0.00434924 -0.0439743 0.00399911 
-0.00611284 -0.0403724 0.00399945 0.000849681 -0.0449841 0.00399963 0.00645197 -0.0407535 0.00399859 
0.00249568 -0.0413392 0.00399848 0.00530268 -0.0446828 0.00399973 0.00917545 -0.0436826 0.00399977 
0.0173012 -0.0415543 0.00399916 0.0134303 -0.0429068 0.00399991 -0.030105 -0.0309219 0.00399944 
-0.0235883 -0.0326211 0.00399883 -0.0273907 -0.0338598 0.00399869 -0.0251541 -0.0372971 0.00399991 
-0.0217361 -0.0393836 0.0039991 -0.0207973 -0.0354852 0.00399991 -0.0127887 -0.037195 0.00399961 
-0.0182239 -0.0323748 0.00399892 -0.0176159 -0.0379084 0.00399926 -0.0143953 -0.0335323 0.00399967 
-0.0123306 -0.0301059 0.00399985 -0.0104184 -0.0339736 0.00399991 -0.0073393 -0.0365656 0.0039986 
-0.00136984 -0.0338648 0.00399913 -0.00340907 -0.037305 0.00399949 -0.00835628 -0.0305469 0.00399848 
-0.00529932 -0.0331253 0.00399896 -0.000105224 -0.0300709 0.00399965 0.00262828 -0.0338359 0.00399903 
0.00652408 -0.0329348 0.00399903 0.00507878 -0.0369973 0.00399988 0.0010875 -0.0375446 0.00399991 
0.0149873 -0.0316432 0.00399857 0.0110997 -0.0305749 0.00399991 0.0189766 -0.0319219 0.0040005 
0.0176702 -0.0357021 0.00399943 0.0210311 -0.0397671 0.00399939 0.0244739 -0.0377322 0.00399954 
0.027739 -0.0354228 0.00399905 0.0217118 -0.03484 0.00399932 0.0249769 -0.0325307 0.00399951 
0.030326 -0.0323721 0.00399986 -0.0326891 -0.0249268 0.00399927 -0.0378918 -0.0227179 0.00399976 
-0.0338653 -0.029528 0.00399991 -0.0363961 -0.0264274 0.00399991 -0.0298367 -0.021966 0.00399883 
-0.0292747 -0.0270092 0.00399912 -0.0262927 -0.0296746 0.00399991 -0.021042 -0.0295374 0.00399963 
-0.0118632 -0.0217039 0.00399886 -0.0161585 -0.0289504 0.00399859 -0.0176285 -0.0252313 0.00399933 
-0.0158846 -0.0214063 0.00399991 -0.0136301 -0.0252914 0.00400123 -0.0099615 -0.026884 0.00399945 
-0.00819449 -0.0232966 0.00399926 -0.00117436 -0.0220298 0.00399944 -0.000689515 -0.026114 0.00399909 
-0.00433845 -0.0244758 0.00399949 -0.00459439 -0.0291883 0.00399979 0.00565508 -0.0212405 0.00399898 
0.00305819 -0.0276246 0.0039996 0.0024768 -0.023668 0.0039993 0.0065628 -0.0251348 0.00399881 
0.00973763 -0.0225676 0.00399848 0.0103619 -0.0266442 0.00399911 0.019036 -0.0267227 0.00399895 
0.0137082 -0.0201431 0.00399912 0.0172016 -0.0229915 0.00399986 0.0151455 -0.0276476 0.00400009 
0.0259822 -0.0286605 0.00399903 0.0270876 -0.0248181 0.00399896 0.0250415 -0.0213679 0.00399944 
0.0220448 -0.0293574 0.00399906 0.021105 -0.0220759 0.00399964 0.0231498 -0.0255135 0.0039995 
0.0299573 -0.028231 0.003999 0.0335557 -0.0299743 0.00399966 0.0303033 -0.0224427 0.00400169 
0.0358379 -0.020964 0.0039992 0.0376573 -0.0245253 0.00399956 0.0328797 -0.0255011 0.00399917 
0.0398367 -0.0209344 0.00399991 -0.0404777 -0.0196665 0.00399875 -0.0437504 -0.0105015 0.00399955 
-0.0420395 -0.0159852 0.00399873 -0.0402293 -0.0123972 0.00399893 -0.0354844 -0.0195237 0.00399994 
-0.032557 -0.0118008 0.0039993 -0.0342056 -0.0154443 0.00399965 -0.0380703 -0.0164726 0.00399957 
-0.0300097 -0.0148846 0.00399838 -0.0364779 -0.0110111 0.00400767 -0.0225451 -0.0118947 0.00399882 
-0.0269095 -0.0180234 0.00399954 -0.0229345 -0.01758 0.00400004 -0.0258351 -0.0141704 0.00399992 
-0.0261599 -0.0101837 0.00400769 -0.019329 -0.0193708 0.0039992 -0.0128925 -0.0116245 0.00399938 
-0.0157044 -0.014469 0.00399994 -0.0196018 -0.0153685 0.00399942 -0.0133538 -0.0179925 0.00399933 
-0.0185715 -0.0114399 0.00399922 -0.0106687 -0.014949 0.00399985 -0.00528329 -0.011942 0.00399948 
-0.00151881 -0.018045 0.00399803 -0.000781082 -0.0141149 0.00399907 -0.0053455 -0.0159998 0.00399985 
-0.00915978 -0.0187568 0.00399753 -0.00903628 -0.0105479 0.00399991 0.00182687 -0.0110645 0.00399991 
0.00977327 -0.0185695 0.00399956 0.00701743 -0.0111823 0.00399818 0.00599599 -0.0172558 0.00399956 
0.00237519 -0.0189531 0.00400317 0.0122373 -0.0122665 0.00399879 0.0129987 -0.0162054 0.00399938 
0.0183523 -0.0111103 0.00399975 0.0174864 -0.0186922 0.00399933 0.0167294 -0.0147652 0.00400096 
0.0289535 -0.0175903 0.00399991 0.0288117 -0.0127942 0.00399991 0.0375007 -0.0173265 0.00399969 
0.0327101 -0.0114458 0.00399956 0.0323195 -0.0154251 0.00399839 0.0397732 -0.0136101 0.00399917 
0.0415003 -0.0172975 0.00399824 0.043463 -0.0117078 0.00399965 -0.0410509 -0.00446146 0.00399941 
-0.0444958 -0.00657236 0.0039996 -0.0449206 -0.00259542 0.00399946 -0.0415001 -0.000485215 0.00399913 
-0.039941 -0.00834312 0.00399991 -0.0371353 -0.00527855 0.00399849 -0.0375747 -0.00130428 0.00399883 
-0.0338334 -0.00801078 0.00399935 -0.0308887 -0.00492175 0.00399837 -0.0335883 -0.00172548 0.00399991 
-0.0221406 -0.00791617 0.00399919 -0.0296384 -0.00103752 0.00399971 -0.0226506 -0.000422145 0.00399989 
-0.0268378 -0.00624193 0.00399982 -0.0200768 -0.00348403 0.00399991 -0.0299125 -0.00880039 0.0039999 
-0.0158796 -0.00846366 0.0039992 -0.0119464 -0.00773864 0.00399978 -0.0109553 -0.00386411 0.00399965 
-0.0173244 -0.000581586 0.00399768 -0.0161961 -0.00447153 0.00399991 -0.00425122 -0.00776029 0.00399833 
-0.00809522 -0.00665998 0.00399826 -1.2083e-05 -0.00735323 0.00399947 0.00819435 -0.00175929 0.00399987 
0.0043505 -0.00290291 0.00399863 0.00037873 -0.00337264 0.00399959 0.00879537 -0.00596565 0.00399984 
0.0161458 -0.00144681 0.00399831 0.0123669 -0.00275484 0.00399903 0.0164409 -0.0054353 0.00399991 
0.0120645 -0.00827047 0.00399989 0.019909 -0.00742678 0.00399941 0.0238137 -0.006563 0.00400062 
0.0276142 -0.0053189 0.00399903 0.0261277 -0.00160697 0.00399809 0.0205077 -0.00337667 0.00399991 
0.0261027 -0.00984383 0.00399991 0.0299046 -0.00859651 0.00399989 0.0366767 -0.00994428 0.00400571 
0.037477 -0.0060245 0.00399942 0.0336846 -0.00729078 0.00399818 0.0390493 -0.00177551 0.00399849 
0.0351511 -0.00266773 0.00399959 0.0313204 -0.00381637 0.00399991 0.041353 -0.0050445 0.00399931 
0.0405536 -0.0089634 0.00399945 0.0443468 -0.00769618 0.00399967 0.0449524 -0.000500425 0.00399922 
-0.0427143 0.0048577 0.00399953 -0.0409936 0.00846729 0.00399876 -0.0449481 0.00154106 0.00399912 
-0.0370308 0.00793839 0.00399933 -0.0392657 0.00283153 0.00399912 -0.0309551 0.00273924 0.00399979 
-0.0340424 0.00528204 0.00399932 -0.0263724 0.00145025 0.00399916 -0.0273458 0.00939179 0.00399871 
-0.022979 0.0035672 0.00399938 -0.0234345 0.00856151 0.00399857 -0.0265089 0.00544726 0.00399923 
-0.0200831 0.00638082 0.00400963 -0.0163817 0.00789368 0.00399884 -0.0128344 0.00604677 0.00399961 
-0.0155173 0.00308063 0.00399957 -0.0116095 0.00985387 0.00399991 -0.0114696 0.00105952 0.00399991 
-0.00131627 0.00399489 0.00399827 -0.00502879 0.00548834 0.00399957 -0.00883993 0.00677316 0.00399991 
0.000969025 0.000713857 0.00399807 0.00925386 0.0020978 0.00399972 0.00302297 0.00880447 0.00399906 
0.00495377 0.00104976 0.00399843 0.00590468 0.00603042 0.00399984 0.0182899 0.00747672 0.00399905 
0.0195597 0.000635815 0.0040013 0.0164283 0.0031244 0.00399983 0.0286986 0.00596626 0.00399938 
0.0234863 0.00139625 0.00399963 0.0274077 0.00218156 0.003999 0.0208648 0.00441639 0.00399843 
0.0261276 0.00907162 0.00399991 0.0222162 0.0082376 0.00399976 0.0300738 0.00972111 0.00399948 
0.0321343 0.000119662 0.00399927 0.037447 0.00188859 0.00399963 0.0338886 0.00371383 0.0040005 
0.0373736 0.00662226 0.00399907 0.0335209 0.00769574 0.00399856 0.0414264 0.00143976 0.00399991 
0.0448551 0.00349748 0.00399864 0.0412308 0.00543419 0.00399981 0.0403606 0.00933768 0.00399922 
0.0441769 0.00813944 0.00399989 -0.0406081 0.0193302 0.0039992 -0.0434286 0.0116396 0.0039994 
-0.0422707 0.0154679 0.0039997 -0.0390938 0.0119865 0.00399904 -0.0326596 0.0189451 0.00399974 
-0.0366148 0.019537 0.00399913 -0.0382827 0.0159024 0.00399991 -0.0288905 0.017606 0.00399927 
-0.0216026 0.0163237 0.00399943 -0.022816 0.0125127 0.00399954 -0.026258 0.0145948 0.00399937 
-0.018978 0.0193413 0.00399886 -0.0176588 0.015566 0.00399875 -0.0126476 0.0147954 0.00399869 
-0.0151967 0.0117136 0.00399982 -0.0191472 0.0107869 0.00399991 -0.00892567 0.0128189 0.00399957 
-0.00919341 0.016809 0.00399812 -0.0046806 0.0105634 0.0039995 -0.0013932 0.0150587 0.0039995 
-0.00675447 0.0199764 0.00399816 -0.000130995 0.0112642 0.00399977 0.0022362 0.0167369 0.0039985 
0.00613125 0.0158368 0.00399889 0.00550427 0.0197872 0.0039995 0.00722983 0.0119921 0.00399971 
0.0182752 0.0178167 0.00399945 0.0196599 0.011314 0.00399975 0.0156137 0.014831 0.00399987 
0.0133723 0.0192225 0.00399917 0.0116762 0.0141286 0.00399957 0.0240274 0.0125722 0.00399905 
0.0285675 0.0192522 0.00399887 0.0279887 0.0131322 0.0040012 0.0217725 0.0158757 0.00399888 
0.0257323 0.0164325 0.00399871 0.0308359 0.0159594 0.00399851 0.0348504 0.0160376 0.00399918 
0.0329107 0.0125403 0.00399927 0.0386672 0.0137754 0.00399966 0.0325538 0.0195715 0.00400023 
0.0363669 0.0105046 0.00399991 0.0420875 0.0158468 0.00399966 0.043361 0.0120552 0.0039999 
0.0404849 0.019511 0.00399935 -0.036392 0.0264782 0.00399855 -0.0344809 0.0229189 0.00399941 
-0.0384877 0.0230714 0.00399929 -0.0304531 0.0222987 0.00399991 -0.0266867 0.0209426 0.0040006 
-0.028677 0.0259448 0.00399873 -0.0249343 0.0245368 0.00399931 -0.0281718 0.0299111 0.00399955 
-0.0212545 0.0261008 0.00399911 -0.02441 0.028556 0.00399972 -0.0226673 0.0210044 0.00399991 
-0.0184034 0.0232985 0.00399826 -0.0191216 0.0294825 0.00399914 -0.0123496 0.02795 0.00399951 
-0.0162077 0.0267165 0.00399991 -0.00282185 0.0266157 0.00399919 -0.00278791 0.0204691 0.00399709 
-0.00858234 0.0265117 0.00399951 0.00588594 0.0237765 0.00399869 0.00940405 0.0216006 0.00399991 
0.00160698 0.020686 0.0040034 0.00862453 0.0266914 0.00399895 0.0175766 0.0253756 0.00399855 
0.0166716 0.0214804 0.00399886 0.0168884 0.0293152 0.00399906 0.0137505 0.0242117 0.00400122 
0.0127286 0.0282181 0.0039985 0.0278408 0.0260301 0.00399854 0.0206442 0.0279406 0.00399899 
[...]
POINT_DATA 6000
FIELD FieldData 7
id 1 6000 int
1202 680 434 336 27 566 161 333 209 
862 1365 41 246 1008 38 115 57 450 
135 476 40 254 544 33 414 1 501 
674 601 8 667 918 515 1640 1443 328 
776 858 758 198 211 123 518 114 66 
1168 512 796 803 550 1171 243 349 365 
485 360 301 77 833 271 390 1694 42 
374 818 263 646 2226 338 441 396 461 
1105 423 1042 310 809 322 1100 1481 608 
1067 286 931 691 86 445 117 914 1166 
183 223 874 766 97 755 126 562 1713 
55 487 884 673 424 113 1580 816 84 
756 210 749 517 937 1635 910 978 1125 
1295 178 630 145 276 291 1652 844 170 
819 669 527 563 543 554 523 142 212 
439 853 418 703 11 1510 294 443 600 
702 118 72 1107 771 344 1623 419 1302 
447 244 206 971 773 881 731 594 996 
1277 1935 555 1822 300 633 78 273 1576 
247 763 377 712 421 355 189 1323 1083 
48 805 154 383 255 879 134 125 775 
380 704 1110 615 339 372 194 828 1346 
885 190 949 1313 898 612 504 287 369 
416 453 790 238 188 353 734 934 1027 
397 1423 98 1142 1021 147 128 751 564 
730 1056 991 337 1136 88 105 1262 946 
1196 295 239 411 5 1765 361 308 281 
1237 1269 280 535 508 386 1020 175 39 
64 479 278 213 403 298 745 671 73 
375 974 165 638 560 329 130 79 225 
108 765 320 1040 817 1072 1446 847 1053 
966 51 155 91 1349 926 811 851 321 
954 582 388 736 394 220 221 2027 827 
62 315 955 58 553 676 283 191 1089 
235 35 569 227 626 2 686 510 316 
468 104 798 599 259 16 556 1024 1339 
13 621 451 1394 331 820 290 642 299 
957 216 36 15 409 272 395 591 640 
352 406 786 748 1025 169 251 204 552 
530 268 181 143 701 289 532 407 19 
1164 318 477 1270 1028 228 684 489 1055 
596 1412 102 250 1328 697 1677 402 969 
158 252 777 744 162 1490 780 1324 622 
1092 404 408 528 203 1036 131 163 201 
1208 119 124 242 274 531 9 500 1044 
924 1162 53 767 625 1736 144 400 514 
219 1257 961 536 1459 647 938 1995 1745 
330 602 856 285 589 7 1119 474 1023 
1604 2322 913 1300 307 2000 2289 1253 1689 
200 1176 1217 1276 65 866 106 430 26 
852 2041 859 1471 1632 952 452 230 876 
877 706 1899 1717 317 469 968 943 516 
54 872 267 1592 565 392 584 69 112 
1876 449 772 340 1181 1240 413 49 787 
92 454 1353 417 367 505 511 506 18 
215 282 378 120 653 292 1392 941 1319 
1525 1113 1311 348 1463 520 463 1180 1259 
482 293 138 420 1342 1531 888 1458 1583 
724 185 1026 1133 1213 2075 2091 1254 1850 
2665 1915 1812 1726 2276 257 1644 1051 1895 
609 637 598 1175 1417 1836 1159 1321 1448 
2198 1674 1968 63 1288 1603 83 1081 149 
1460 496 992 248 256 350 429 1174 2006 
1690 1892 1192 464 614 311 652 590 498 
641 1478 1750 305 785 29 1263 1428 643 
788 231 270 483 314 509 1477 855 987 
690 1123 613 750 25 802 1449 440 551 
525 1326 1013 1382 835 1033 623 1325 12 
797 1593 1534 502 821 1090 153 345 1218 
1411 2227 492 94 249 795 841 1809 1578 
68 1357 1043 1337 202 1930 346 1155 493 
1206 2150 668 1430 1078 2067 1686 2278 579 
722 586 1846 371 1251 747 964 807 391 
1191 882 1590 1444 1886 707 901 658 2312 
2439 1984 1841 2300 473 661 1305 635 122 
10 1148 2042 1501 2032 1520 1274 1862 1602 
960 2036 587 1732 1387 700 933 900 1182 
1144 74 808 875 1575 825 393 1095 679 
1223 1077 240 1010 1849 1945 962 471 1839 
792 442 1132 1032 610 557 1009 1124 399 
593 1233 1212 214 1232 1843 1503 2230 1017 
136 735 522 1334 224 650 1071 1214 222 
655 741 629 558 20 1379 1286 1666 351 
1741 1560 2145 179 379 836 100 1331 813 
491 1867 1203 2012 279 262 1015 546 1407 
1153 1299 1539 1058 495 296 1450 1383 1755 
727 2125 2238 1697 806 233 1508 1284 1790 
1216 2044 199 1556 927 575 942 935 427 
967 1679 1348 1140 1882 728 2128 896 1114 
605 1395 494 1591 719 205 1161 1338 739 
150 1054 1281 902 1231 779 754 384 266 
1341 431 376 172 718 1359 241 890 861 
1529 1250 1131 891 347 1747 619 533 740 
1096 1045 1707 139 919 265 1019 1122 1355 
1426 341 921 1197 693 197 488 867 1101 
1296 1363 288 1599 1416 1280 24 182 2311 
2901 174 1568 711 1491 1367 342 1767 1743 
906 2324 1579 869 1963 1926 953 951 682 
1759 160 1715 456 1524 2637 1720 1756 237 
592 193 903 459 2562 526 1555 1641 2290 
915 426 1962 410 1391 2232 993 845 1829 
2060 1282 2112 116 1183 1106 597 570 814 
332 370 804 1310 297 611 887 537 159 
1314 236 31 685 458 137 75 549 50 
561 944 171 1959 1014 604 1434 574 1617 
306 1372 1554 923 789 1084 1761 1345 1884 
1151 1596 313 101 499 839 1814 1517 2153 
76 801 1285 1080 354 794 983 857 1535 
1312 1564 2152 547 1541 2165 23 1891 2253 
2135 2527 2564 631 1819 2307 1480 823 2021 
791 1466 1979 1505 1249 1041 277 326 28 
846 812 1442 1205 1823 2405 753 1527 1432 
980 834 1035 1307 258 87 1130 187 1088 
1622 1537 2223 1261 1267 940 1150 81 1115 
784 356 480 192 1189 1082 186 1752 1672 
1306 432 810 448 539 34 80 127 85 
956 460 850 327 484 71 151 545 639 
14 762 688 1097 1431 657 1566 656 2045 
1975 659 1018 1260 894 880 737 607 1571 
275 1983 1006 2176 1655 1607 1022 89 1238 
904 886 60 603 1516 988 1046 1242 1485 
1404 180 746 757 2401 2462 743 1309 1252 
1533 229 627 1898 519 253 815 1646 2151 
1455 1291 1320 917 334 1290 1031 6 541 
1149 1831 1532 17 389 2406 1050 1581 911 
312 768 721 363 478 708 1402 366 1940 
415 571 965 717 226 405 3 576 799 
1368 634 976 979 916 774 999 82 620 
716 998 21 61 103 681 559 843 129 
1821 742 2052 1565 1215 1730 698 111 497 
985 1004 1220 715 152 146 357 470 660 
93 624 1227 1378 1370 1066 928 705 793 
1506 1086 1209 781 1029 1248 176 1931 1429 
1163 217 425 70 729 1706 632 725 1659 
1401 1648 319 1890 269 436 177 1610 542 
373 1117 446 261 1085 1487 30 709 581 
521 636 972 433 1108 1207 848 324 644 
95 486 645 648 769 157 628 507 1000 
45 438 529 428 260 184 234 140 132 
1134 1301 1193 1439 304 444 96 196 343 
207 264 56 133 899 164 166 141 422 
666 538 1068 1613 1228 568 121 683 462 
173 195 929 466 1156 1467 1624 1684 1754 
2475 1698 323 864 2456 2652 37 1230 1588 
109 1663 2225 3167 2428 2194 1960 2336 1492 
678 1225 1708 1740 2020 2218 2064 455 1330 
1824 2022 457 1504 1678 1210 1074 22 1976 
1502 2010 1691 977 1567 1098 713 1064 1222 
548 675 2299 699 1987 2050 1437 1830 1468 
3072 905 2004 1701 1128 43 1333 1685 1549 
1758 1456 2233 1889 1037 2187 2358 2677 1188 
2676 3652 1170 2743 2510 1680 218 2172 2121 
2661 2622 1221 1714 3246 1844 2572 2216 1688 
1671 1518 1692 1495 909 2114 1184 2254 1801 
1241 1789 2248 2102 2812 3100 2751 2138 2795 
1152 1408 1070 1934 567 1647 1194 689 1753 
1386 1120 1842 3070 1787 1908 1628 1991 1488 
2362 1597 90 302 99 800 842 245 168 
2342 1961 1955 2583 2473 995 1723 2265 1059 
1997 1598 1924 1185 1557 1172 1389 1562 1828 
824 1950 2687 3292 2203 1860 2283 1650 1476 
692 534 1226 1980 1855 1190 1589 831 687 
2345 1235 2852 760 2354 3180 2975 665 1318 
997 2023 1278 2880 2653 2611 2539 3019 2639 
3351 2181 3307 2926 2282 3697 2364 1791 1584 
1966 2587 1545 2482 1749 2672 2180 1561 2856 
3894 2965 1639 2413 2430 1543 2108 1377 1483 
2626 2154 1347 1808 1788 3539 2591 1888 1903 
3094 2389 2448 2127 2072 1178 2744 382 401 
1649 3047 2759 1667 3090 1662 364 947 2502 
1878 1936 1271 47 664 907 1918 1805 2347 
2427 1699 2160 2377 2310 2296 2028 617 1551 
1204 1243 1264 939 1605 2014 2445 1654 1169 
1369 726 1799 1795 2120 1964 870 1211 107 
580 465 1229 1658 2031 2607 1634 1005 868 
832 1620 710 578 854 1594 2100 2231 2116 
1834 1585 2788 1104 2019 1317 764 2039 1696 
3225 2085 3063 2990 2709 1275 2508 52 2098 
67 2799 2371 2523 2250 1420 1186 1538 1897 
1065 1343 2844 2170 2800 2496 3068 3215 2269 
2376 1776 1234 2958 3299 3632 2598 2494 2421 
2242 2977 2919 1994 2352 2956 3060 2971 2895 
1638 2246 1851 3138 3282 2533 2155 2885 2029 
1413 2934 1245 2049 1881 2295 2472 2069 2552 
2779 2381 2576 2220 2731 2195 2375 2529 1784 
1360 1970 1687 1601 970 863 2730 2366 2746 
2700 2839 1141 2756 920 2335 1358 1586 2247 
865 714 1087 2327 1289 2119 2630 2171 2259 
2541 1126 1629 2481 1445 2701 1091 883 1977 
1611 1361 1484 46 1848 2221 2164 1513 2333 
2718 1815 1030 1676 1820 1486 1796 368 1405 
986 1775 1497 783 1452 1472 1079 2340 1608 
1329 1643 110 1419 2612 2030 1327 585 889 
2215 1356 1553 2557 1683 1265 2771 1894 2474 
860 1118 2137 2504 1847 2192 2174 2861 1948 
2350 2264 3257 2186 1780 1951 2733 1733 2272 
3026 2355 2924 2419 2724 1199 1779 2816 1770 
1440 1470 2189 2939 2292 2286 2765 2920 2466 
2512 3284 2778 2520 2051 2168 2369 2228 1737 
2577 1923 1807 2420 1938 2517 1631 2199 1905 
2468 3302 2978 1626 2083 2089 1792 1735 2015 
2016 2079 2742 2538 2794 3141 3267 1612 2688 
1515 2076 2942 2449 1939 1418 1093 2314 2185 
1247 2129 1813 838 2725 695 2436 2111 1845 
2245 2398 2080 2542 1493 2297 1047 1060 770 
1049 2435 2783 2603 2827 1076 2836 2749 1293 
2720 892 1999 1949 1376 2386 1256 1258 2395 
723 2240 2463 2686 1711 1447 1574 1381 2896 
540 2146 1507 1272 1403 1668 1914 2638 1818 
1661 1461 1546 616 1268 1135 1433 1385 1874 
2302 1774 1921 654 922 1109 1904 1002 2217 
2183 1618 1771 932 1725 335 1636 2013 2370 
2359 2133 1933 2556 2095 2219 1806 3320 1865 
1988 2363 2845 2224 1656 1870 1981 1660 1920 
1536 2451 1396 1783 2367 2394 2325 1877 1669 
2399 2403 2943 3469 1785 1224 1825 572 2432 
2796 2437 2425 2418 2330 893 2315 2986 1003 
1364 2855 2860 2809 2656 3003 2158 1833 3189 
2559 2618 1397 2104 662 696 1154 1681 2110 
2239 2071 3182 2124 3067 2673 2651 1928 1916 
2074 2658 694 435 2147 2275 738 1547 1514 
1664 2714 1063 2514 1350 1985 2476 148 2043 
503 309 2357 2235 1978 1469 2464 3153 2910 
2887 2582 1600 1778 2563 1146 1958 2692 1279 
1911 1137 1558 1421 362 984 2301 1651 2262 
2070 2159 1292 2543 1619 2944 1200 1548 1856 
2304 1236 1425 358 1927 1139 1414 2142 2007 
1398 1952 1187 1255 1768 1858 1900 1913 1409 
1388 1773 232 1496 577 1073 513 1057 1722 
1012 1875 2495 1127 2762 412 1906 2182 1179 
1595 588 1973 1294 1038 1810 1111 2136 1739 
2212 2787 437 3266 2348 1804 3091 2081 1451 
2143 1473 3066 2537 2625 1075 1972 1435 2715 
1734 2605 1932 3397 2453 2346 1362 3054 2234 
2773 1521 2298 1627 2277 2284 2761 1406 2548 
3129 2750 1519 2337 2754 2188 1864 1912 2595 
2038 3411 2054 2804 1160 2488 1007 1138 2663 
2118 3290 3321 3476 2099 1854 2178 2826 1609 
1670 2200 1244 1922 1563 1062 2190 1943 2411 
2829 1832 2914 2211 1479 1441 2532 1523 1352 
1744 1657 840 1145 1769 2001 1436 1653 990 
1910 2416 1693 490 1811 1112 524 1384 2309 
1863 2140 2291 2774 649 1016 1011 982 1158 
878 1893 1340 1474 2328 1716 1883 2675 908 
1794 1297 2134 2025 2065 1116 2056 1704 1147 
1772 2586 1637 672 2003 1885 1410 1953 2205 
2426 2441 1989 2813 303 387 573 475 1947 
1499 2097 2667 1880 2490 2197 2161 2792 2293 
1354 3053 2305 2635 2077 2400 2148 2610 2781 
1838 2260 2770 2334 2271 2156 2082 1719 2193 
2580 2690 2202 2471 2634 1969 1173 2438 1937 
3008 2549 2092 2204 2544 2109 1569 1308 950 
2317 1625 1143 1121 606 1315 2898 2210 2249 
2633 1957 2831 761 3277 1129 1542 325 1380 
897 1422 2113 1512 2361 1526 2478 1415 1682 
2107 3010 2697 930 1710 1570 1798 2094 2497 
1303 59 1177 975 822 481 1273 1777 1766 
1946 1872 2646 1724 1572 1826 2175 2379 1982 
2258 2139 2261 1198 1859 1219 1695 849 1475 
1762 2923 1633 2130 2115 2747 1700 1907 1559 
2717 1665 1165 1879 1266 1344 1498 873 472 
1552 1630 1615 2588 871 2410 2055 2184 2285 
618 2373 1721 1673 2024 945 1852 1871 1239 
1457 1034 1703 1039 1742 1614 3120 1901 2737 
2621 1322 2458 759 2009 1902 1287 1873 2524 
2339 1528 830 1800 1201 284 1840 1868 583 
1335 1316 359 733 1069 1793 2764 1540 1786 
1246 3561 2061 1802 1336 1956 1925 1103 829 
1944 1373 1587 925 752 1738 1400 677 1048 
1992 3145 1757 1728 1332 3439 1351 1195 1298 
1971 651 1748 2707 670 2806 973 1482 156 
1494 1052 167 1462 1001 1393 2047 2132 2810 
1489 1550 1453 1577 2037 948 2412 4 1167 
994 1366 2600 1967 2059 2479 2090 1390 1424 
989 3172 2662 2721 2308 3581 3319 4035 3454 
2905 3346 3429 3686 3498 2973 3216 2423 2918 
2628 2123 3126 3647 4617 2214 3084 4162 4242 
2937 2590 2602 2518 3233 4076 2535 2685 2251 
2949 1705 3270 2073 1803 1094 981 1861 2163 
2446 3232 2321 3624 2144 1642 3204 2641 2997 
1702 3597 3952 3797 2854 2344 3905 1645 3363 
3573 3018 3593 2654 3245 2313 3357 3958 3336 
4231 3148 2213 3373 2689 2387 2892 3736 2708 
2480 3354 2096 2681 3492 2066 3075 3858 2131 
1896 3362 2849 2063 2645 2018 3247 2385 3286 
3682 3211 2440 2561 2723 3213 3105 2378 2869 
2568 2668 2457 2546 1996 1746 2719 2534 2863 
2825 2048 4055 3001 3621 3218 2545 1781 2316 
2414 963 2716 2979 2883 2999 3251 2461 2769 
3013 3339 3041 3813 3166 2929 2862 3723 2823 
2660 826 782 3700 2046 2615 2617 2947 2636 
2666 2738 3388 3950 2789 3801 2998 3565 3779 
3824 3825 3636 3427 3648 3073 3586 3859 4189 
3343 3667 2815 4825 3795 2822 2907 3459 3892 
3394 2126 4317 4261 2842 3121 3746 3239 2002 
3395 2519 1917 2878 3446 4198 4058 3375 4003 
3611 3417 2306 3160 3673 2655 2609 2699 2766 
3525 2921 2881 3804 2948 2585 3020 1866 3794 
3951 2848 3457 1993 2088 2698 3967 2241 3484 
3422 2390 2832 3356 2105 3387 3974 3348 2868 
2122 3432 1763 959 2991 2402 1827 1954 2268 
3623 3639 2886 3080 1399 3082 1974 4019 3927 
2814 2732 2606 1283 2392 2755 3640 2087 3425 
3015 2011 3323 3274 2647 3022 2257 2208 3125 
2483 2817 3802 2837 3763 3124 2526 3514 2893 
3783 2739 2840 1102 3671 2994 2034 3707 2157 
3383 2179 2897 3844 3515 3322 3335 3195 4054 
4127 2902 2679 2874 3227 4187 3441 3178 4061 
4094 3699 3899 2876 3875 3258 3115 3664 3705 
3543 3631 3337 3588 2819 2960 2599 2879 3717 
3826 4484 3122 3911 3199 4038 3249 4083 3000 
3602 2384 2408 2374 3083 1712 3229 3017 3708 
4241 3924 4899 2551 3198 3838 2485 3161 3908 
3243 3503 4932 3617 2005 2674 3304 2558 1304 
2469 3312 3175 3382 2555 4000 3447 3164 2244 
3039 2450 2900 2531 3684 3392 3156 2279 1727 
2820 3372 2209 2838 2969 2141 3061 3829 3272 
3749 3308 2511 1797 2404 2909 2835 1764 3506 
3169 2908 2753 2906 2173 3462 3633 3603 2513 
2696 2780 3712 3403 3341 778 2888 3494 3538 
3095 3706 2287 3419 2711 3208 4380 3688 4479 
3368 3318 3370 2604 2740 2933 2455 3773 3009 
3638 3702 3921 3605 3898 4336 3297 3300 2499 
4215 2807 4315 3483 2274 3366 3758 2866 2434 
3043 2380 2196 2950 3574 3522 3147 1731 3713 
3832 3059 2460 3666 4402 2841 3190 2980 4254 
3527 2684 4238 2890 2503 2959 3347 3133 3442 
3524 2808 3185 3440 3024 4163 4401 3177 3733 
2500 3098 2169 2757 3855 3416 2729 3086 3248 
2484 2255 3028 2351 3004 3381 3436 2058 4191 
3260 3288 2670 2319 2784 3601 4062 3367 2987 
2805 3202 1616 3485 3293 3900 2417 2470 2649 
2078 3391 3032 2767 3162 2682 3540 3268 2033 
2521 2925 2712 3721 3333 3350 2507 3052 3413 
2858 3217 3379 3453 3445 3694 3158 2952 3192 
2341 3499 2899 2281 2565 2422 3271 2992 3087 
3464 2008 2397 3592 2266 4128 3137 1061 2459 
2331 2365 3146 3280 3406 2323 3369 2722 2864 
2859 3389 4206 3940 3545 3396 2726 3556 3734 
4087 2579 3155 3154 3025 4201 4079 2963 2467 
2657 3065 2465 4134 2569 3714 3505 3981 3327 
4130 3762 1909 3130 2871 2447 1099 1869 2728 
3547 3486 4190 3811 2560 3106 2353 4363 3989 
1500 1530 2486 3466 2229 2797 3295 2936 3176 
3023 3088 3696 3596 2444 3472 3163 2695 1941 
3278 2360 2349 2851 3171 2201 2671 2101 4456 
2745 2536 2846 2206 3151 2433 2777 1509 2786 
2894 2702 2620 2550 3572 2616 3006 2798 2957 
2270 1374 2875 3470 3563 3554 3037 3078 1853 
2263 1729 3234 3049 2970 2870 3687 3861 2498 
3055 2811 2736 3144 2493 2443 2601 2741 2735 
3495 2222 3046 3201 2650 3027 3658 4008 3728 
2928 3200 3338 3107 2693 2642 3099 2593 3614 
3856 3843 3214 3854 3860 2356 3643 4342 3334 
3093 2882 2477 3135 2643 2243 4090 3567 3615 
3737 3690 3587 3787 3590 3576 4120 3231 3937 
2631 2554 3071 2802 2382 2772 3599 2853 2834 
3250 3238 3188 3833 2704 3634 2865 2659 2280 
2917 3428 2489 3036 2320 3941 2570 2953 2191 
3665 3328 2581 3895 2911 3890 3256 3939 3244 
2506 2571 2763 3109 3679 3569 3273 2703 2068 
2821 2501 2982 3430 4142 2332 3324 3173 1998 
2768 1573 2664 3463 2368 3140 2035 2974 2935 
2669 3777 958 2833 3194 2694 3553 3448 2927 
3450 3150 3230 2706 2705 2932 3112 3508 2040 
2683 2057 1835 2627 2597 3034 2922 3722 2995 
3310 3955 3891 3097 3591 3085 3196 2828 2396 
2452 2608 3058 3358 3193 3456 2867 3512 2930 
3651 3035 3703 2884 3669 1621 2084 3827 32 
3835 3048 2903 2644 2680 3205 3012 3412 3780 
3842 4007 3170 3050 2303 3944 3393 3526 2962 
1427 1965 2961 3451 3330 3029 3298 2424 2236 
4248 3985 4081 3979 3031 4139 2983 3455 2574 
3808 2391 3575 4513 3785 2791 3223 2294 2442 
3520 3275 3558 3822 3261 3653 4060 2752 4009 
3683 3772 3516 3501 1817 3864 1857 3174 3159 
2940 1375 2288 2338 2648 3045 4425 2678 2904 
2522 3584 2713 1544 4024 3774 2329 3306 381 
2785 2393 2103 2407 2632 2830 1709 2614 3127 
3301 2913 3698 3818 3011 1990 2857 2623 2967 
2964 2578 3281 3079 2734 3360 3930 2985 2383 
2972 3803 2487 3219 2824 3489 3969 3871 1582 
3221 2505 3620 1522 1837 3287 3187 2026 3096 
2941 2567 3761 3237 2516 4403 4264 3925 2177 
3594 2954 3390 3212 3252 1942 2326 2589 2624 
3487 2431 3311 4346 4856 4131 2691 3929 3458 
3480 3042 3434 2429 2053 2540 2847 2492 2207 
2318 3285 3111 2409 3460 3897 3183 3845 3371 
3235 2594 2106 2372 2629 3725 2017 1919 1675 
2553 1511 3452 2592 3405 3830 3276 1454 2748 
2945 3806 1816 3179 2343 3752 3564 3263 3544 
3316 2584 3568 2989 2528 1465 3296 1887 3315 
3668 2273 2525 3663 3782 1760 4207 3582 2167 
3181 2843 2237 2916 3741 3355 2388 2062 1718 
2093 2256 2415 3956 3732 4552 4294 4630 4586 
3953 3152 4284 4900 4283 4001 2793 4791 3254 
3529 4343 4203 4316 4417 5203 4951 3534 4925 
4583 3433 3926 3880 4836 4064 3491 4350 3882 
3626 5219 4847 3812 4486 3852 3788 4217 3555 
4209 3893 3849 4581 3641 4591 3269 4327 2984 
4548 4072 3781 3716 4656 2530 4585 3560 4811 
3853 4435 4170 4597 4301 3595 3923 4517 3988 
4328 4427 4657 3259 4752 3513 4096 3996 4339 
4267 4500 4785 3740 4820 4290 3478 3768 3659 
3380 4364 3878 4225 4997 4436 3535 3660 4834 
4823 4838 5375 4320 4835 4235 3578 4329 3689 
4262 5308 4845 4021 4322 4434 3650 5034 4071 
3815 3136 3143 3645 4504 4065 3874 4044 5221 
4334 4523 5246 4119 3424 5723 5411 4366 4701 
4310 4252 3760 4450 4433 4309 4490 3873 3816 
4664 4140 4136 4557 5387 4696 3934 3661 3791 
3149 2946 3837 3114 3828 3005 3504 3738 4154 
3831 4017 4026 3571 3197 3410 4731 3977 4360 
4129 3753 3992 4762 4371 3474 4239 4568 4340 
3461 2758 4468 4767 3959 3532 5442 4749 3517 
4453 4398 4891 4296 3943 4093 3865 4269 3352 
4195 4966 4615 3946 4240 3550 4632 4192 3051 
4792 3711 4854 5336 4512 5382 5736 3915 2818 
4383 5108 5114 4167 3542 4505 3863 3769 4357 
4014 3821 4082 4687 5132 3730 5793 5296 3123 
4464 4332 4590 2850 4367 3103 4102 4184 3957 
4305 4205 4890 4945 4031 4624 5142 3139 2889 
4157 3398 3033 4111 4681 2596 2573 3528 3767 
3607 4763 3030 3548 3627 3876 2515 3386 3910 
3493 3076 4963 3739 2968 4419 3021 3677 4288 
3846 3580 4066 4258 3104 4647 4529 5070 3662 
3902 4124 5106 3960 3207 4418 4228 4306 3407 
3834 4005 4411 4559 4679 4263 4180 4530 5090 
4801 3317 3329 4318 4200 4063 4109 5346 4426 
3991 4470 5468 4394 4369 5330 5340 5141 4022 
3349 3400 3836 4034 4532 4771 4491 4788 4041 
5073 4246 5404 3676 5776 5120 3916 4376 3964 
4909 4121 5007 5154 4341 5215 4876 5406 5156 
4711 5305 2760 4818 3984 4354 4879 3289 3961 
3872 4088 4144 4985 4384 3726 4970 3947 4704 
4885 4703 3468 4073 4103 4236 4429 4651 3757 
3444 4717 3928 4396 3870 4126 4958 4690 3731 
3101 4911 3431 4321 3975 3128 3377 3685 4153 
4611 3002 4506 3906 3210 2491 3942 4183 4173 
2976 4150 3421 4069 3165 4097 4397 3481 4227 
4166 4353 4494 3756 4107 3402 3313 3656 4619 
3264 4689 4747 3954 3990 4042 3007 4797 4338 
4612 4571 4177 4860 4421 4049 5000 4300 3467 
4412 4230 4277 4522 3904 5553 3820 4808 4175 
4605 4649 3240 3077 5068 4027 4748 4409 4122 
4091 4840 4536 4973 5561 5280 3751 5281 4774 
3325 3680 4085 3993 4673 4736 4386 5176 3117 
4789 4463 5498 4502 4646 3056 4387 4653 5095 
5193 4819 5089 4983 3279 4650 4948 5674 3509 
4839 3465 4413 4045 4070 4077 5063 3982 4092 
4665 4454 5393 4508 4355 4769 4503 5347 3184 
3817 4815 4218 4016 3519 3224 3790 5181 4511 
5354 4850 4867 4448 4148 4462 4271 4165 3255 
3800 3473 4572 3765 3376 4293 4452 3344 4753 
4199 3635 3044 2727 2938 3775 3727 3374 3262 
4125 4002 4772 4249 3426 4089 3038 3606 3948 
4299 3616 4243 3949 4391 3672 3995 3945 3913 