# vtk DataFile Version 4.2
Generated by LIGGGHTS
ASCII
DATASET POLYDATA
POINTS 5997 float
-0.0158032 -0.0179876 0.0126507 -0.00891922 -0.0217327 0.0118665 -0.010717 -0.0214016 0.0126853 
-0.0093714 -0.0191367 0.0125338 -0.0108779 -0.01782 0.0126723 -0.0134231 -0.0173603 0.0125221 
-0.00718669 -0.0227703 0.0113302 -0.00137196 -0.0239321 0.0111426 -0.00759535 -0.0201866 0.0121533 
-0.0017273 -0.0216507 0.0118823 -0.00195512 -0.0181456 0.0118376 -0.00388501 -0.0216454 0.0121512 
-0.00530851 -0.0232884 0.0121425 -0.00607281 -0.0188426 0.0118828 -0.0039356 -0.0186838 0.0119695 
-0.00335523 -0.0235376 0.011769 -0.00793285 -0.0175795 0.0118218 -0.00591579 -0.0213263 0.01244 
0.000434712 -0.0221938 0.0122953 0.000360268 -0.0201794 0.0124537 0.00620168 -0.0211359 0.0124024 
0.00162987 -0.0238018 0.012311 0.00583001 -0.0231241 0.0126241 0.00542983 -0.0190545 0.0125821 
0.00814714 -0.0206136 0.0126454 0.00328717 -0.0180278 0.0124965 0.00781681 -0.0186454 0.0124744 
0.00111458 -0.0167535 0.0122465 0.00918854 -0.017419 0.011595 0.0162878 -0.0174944 0.011185 
0.0147542 -0.0187982 0.011453 0.0133068 -0.0199158 0.0124453 0.00974961 -0.0218281 0.0125328 
0.011494 -0.0208364 0.0123411 0.0111806 -0.0181656 0.0126062 -0.0184936 -0.0150035 0.0115617 
-0.0171835 -0.0165226 0.012253 -0.0175614 -0.0131414 0.0120266 -0.0207106 -0.0118196 0.0121768 
-0.018725 -0.0115148 0.0121303 -0.0195192 -0.0135171 0.0125492 -0.0217 -0.0101057 0.0117997 
-0.0181284 -0.00961185 0.0119232 -0.0200382 -0.00898879 0.0121427 -0.0163961 -0.0147527 0.0117491 
-0.0158288 -0.0121512 0.0122008 -0.0150596 -0.0161901 0.0121424 -0.0112 -0.0158926 0.0121932 
-0.0132383 -0.0153193 0.0123543 -0.011411 -0.0121233 0.0119985 -0.0098465 -0.0134589 0.0121789 
-0.00921593 -0.0154735 0.0121685 -0.0120848 -0.0102041 0.0121323 -0.0155689 -0.010153 0.0119882 
-0.0147138 -0.0138314 0.0124732 -0.011715 -0.0139916 0.0126571 -0.00857235 -0.00908677 0.0120571 
-0.0138153 -0.00918342 0.0122175 -0.0106205 -0.00879445 0.012074 -0.00131288 -0.00937336 0.0114499 
-0.00333098 -0.008743 0.0116014 -0.00816115 -0.0123598 0.0120527 -0.00744281 -0.0142392 0.0122235 
-0.00467316 -0.0106671 0.0122955 -0.00657543 -0.0091445 0.0117842 -0.00663101 -0.0110926 0.0123038 
-0.00266681 -0.0104674 0.0125515 -0.00580789 -0.0129767 0.0125627 -0.00271295 -0.0160779 0.0123688 
-0.00667193 -0.0160609 0.01257 0.00812729 -0.0157128 0.0116105 0.00283949 -0.015736 0.0124022 
0.00585869 -0.0153716 0.0118238 0.00796937 -0.0119587 0.0119482 0.00765352 -0.00987905 0.0121302 
0.00752344 -0.0139008 0.0123609 0.00206054 -0.0108273 0.0126097 0.00372211 -0.0139095 0.0126048 
0.005968 -0.0111248 0.01248 0.00384986 -0.0119073 0.0124465 0.00557401 -0.0131431 0.0124212 
0.00051057 -0.00952951 0.0124412 0.00241566 -0.00872829 0.0124981 0.0163364 -0.0104549 0.0114544 
0.0129454 -0.00881818 0.0115896 0.0161353 -0.0124118 0.011916 0.0146829 -0.0137879 0.0118313 
0.0126454 -0.0163258 0.0118298 0.0143774 -0.0109578 0.0120219 0.0154711 -0.0156344 0.0117349 
0.00949267 -0.0142632 0.0124813 0.0106749 -0.0160186 0.0121976 0.0122341 -0.0140906 0.0120895 
0.0149255 -0.00903411 0.0118065 0.00908824 -0.00846824 0.0119963 0.01811 -0.012723 0.0116904 
0.017627 -0.0161379 0.0118697 0.0189161 -0.0146078 0.012203 0.0194502 -0.0112254 0.0125079 
0.0201037 -0.0129903 0.0118286 0.0182167 -0.00980103 0.0118265 0.016911 -0.0142566 0.0121582 
0.0200594 -0.00930586 0.0124767 0.0220504 -0.00930167 0.0121511 -0.0228921 -0.00634068 0.0113189 
-0.0214318 -0.00502529 0.0117027 -0.0180546 -0.00761989 0.0115083 -0.0198212 -0.00371932 0.0115714 
-0.020012 -0.000486187 0.0116677 -0.0207797 -0.00712397 0.0117716 -0.019191 -0.00591379 0.01187 
-0.022454 -0.00825309 0.0117679 -0.0234339 -0.0040814 0.0117096 -0.0166454 -0.00300924 0.0119842 
-0.0217233 -0.00294743 0.0118093 -0.0182879 -0.00180847 0.0117748 -0.0237863 -0.00206393 0.0118298 
-0.0173746 -0.00490472 0.0121034 -0.0219862 -0.000806834 0.0119314 -0.0151585 -0.00774342 0.0116912 
-0.0131809 -0.00733871 0.0117585 -0.0147041 -0.00386982 0.0121462 -0.0112648 -0.00669917 0.0120239 
-0.00903924 -0.00381108 0.0121173 -0.0129065 -0.00286696 0.0121478 -0.00960268 -0.00189594 0.0119848 
-0.0146342 -0.00185475 0.0118462 -0.0110503 -0.00369457 0.0122467 -0.0093823 -0.00726085 0.0124453 
-0.0144414 -0.00589706 0.0123628 -0.0125903 -0.00512876 0.0123399 -0.0164436 -0.000965234 0.0118791 
-0.012873 -0.000598481 0.0121987 -0.00854261 -0.000168098 0.0117636 -0.00390173 -0.00330775 0.0116302 
-0.00290026 -0.0015292 0.0117334 -0.00821453 -0.00563972 0.012261 -0.00765773 -0.00231389 0.0117766 
-0.00459223 -0.00722376 0.0120939 -0.00432981 -0.00522979 0.0120498 -0.00225354 -0.00702028 0.0120707 
-0.0062177 -0.005957 0.0121029 -0.00234923 -0.00495096 0.0120395 -0.00016279 -0.00770289 0.0119541 
-0.00486023 -0.00160366 0.0121521 -0.00740228 -0.00751076 0.0126393 -0.00655693 -0.00396953 0.0121147 
-0.000580162 -0.00581638 0.0126057 -0.00658534 -0.000571455 0.0118832 0.00789119 -0.00581046 0.0126163 
0.00198759 -0.00479839 0.0122747 0.00562335 -0.0027183 0.012155 0.00764077 -0.00291507 0.0120833 
0.00631167 -0.000834229 0.0121687 0.00633132 -0.00455999 0.0124916 0.00163383 -0.00687 0.0124629 
0.000915233 -0.0031099 0.0121199 0.00432304 -0.00433502 0.0124946 0.00727624 -0.00773121 0.0125805 
0.00400385 -0.00151888 0.0125393 0.00200427 -0.00141898 0.0124002 0.000352537 -0.000406428 0.0118854 
0.00972259 -0.00659251 0.0124303 0.0113507 -0.00773041 0.0121147 0.0131433 -0.00684151 0.012258 
0.012132 -0.00399619 0.0123694 0.00987914 -0.00410672 0.0126897 0.015258 -0.00712922 0.0125042 
0.0109663 -0.00236767 0.0124552 0.0140504 -0.00333209 0.0125038 0.0162325 -0.00524386 0.0124894 
0.00910377 -0.00160296 0.012577 0.0129852 -0.00159508 0.0124722 0.0164534 -0.000740693 0.011785 
0.0145436 -0.000322354 0.0122346 0.0112987 -0.000388192 0.0123173 0.0175322 -0.00651915 0.011613 
0.0219104 -0.00166963 0.0115607 0.0227014 -0.00740295 0.01213 0.0192562 -0.00756544 0.0119064 
0.0232118 -0.00545608 0.0120821 0.0168155 -0.00837236 0.0120094 0.0197667 -0.003712 0.0117233 
0.0211964 -0.00605652 0.0120302 0.0191845 -0.00559317 0.0122555 0.0171082 -0.00259265 0.0122057 
0.0236352 -0.00357442 0.0126738 0.0216125 -0.00337056 0.0125758 0.0201406 -0.00195066 0.0126403 
0.0238481 -0.00164479 0.0121904 0.0184547 -0.000847053 0.0120719 -0.0232819 0.00430079 0.010821 
-0.0238192 -8.62133e-06 0.0116372 -0.0190289 0.00196333 0.0114086 -0.018794 0.00404779 0.0114336 
-0.0229847 0.00619795 0.011528 -0.0208441 0.00662984 0.0116347 -0.0173208 0.00549721 0.0120568 
-0.0180769 0.000139101 0.0124044 -0.0220326 0.00125793 0.0118723 -0.0215832 0.00368963 0.0119221 
-0.017078 0.00355441 0.0125387 -0.018453 0.00739383 0.0120263 -0.0122723 0.00494996 0.0114801 
-0.00892687 0.00580114 0.0115819 -0.0107472 0.00671763 0.0115058 -0.0161957 0.00173411 0.0119345 
-0.0115343 0.00200985 0.011792 -0.0135289 0.00187895 0.0122496 -0.00951936 0.0017844 0.0119434 
-0.0142491 0.00414788 0.012114 -0.00952741 0.00381011 0.0118075 -0.0147444 0.00615524 0.0120106 
-0.010928 0.000103579 0.0122398 -0.0147859 0.00014658 0.0123507 -0.0126255 0.00711157 0.0121034 
-0.0157858 0.00787327 0.0116699 -0.00923713 0.00791685 0.0120809 -0.00215976 0.00603742 0.0117598 
-0.000575649 0.00729916 0.0116671 -0.00528269 0.00753953 0.0115194 -0.00383194 0.00238075 0.011674 
-0.00744288 0.00716352 0.0114192 -0.0075931 0.00316375 0.0119217 -0.00117028 0.000896968 0.0117561 
-0.000309759 0.00529716 0.0119734 -0.00318545 0.000456892 0.0117879 -0.00646888 0.00145839 0.0117928 
-0.00314507 0.00427733 0.0118143 -0.00173551 0.00281919 0.0118559 -0.00546888 0.00354838 0.0121069 
-0.00675198 0.00515431 0.0120022 -0.00460349 0.00570461 0.0119672 -0.00499828 0.000411314 0.0126569 
-0.00355992 0.00732429 0.0125673 0.00327561 0.00611708 0.0116716 0.00737899 0.00596327 0.0114794 
0.000215628 0.00339146 0.0125294 0.00405169 0.00424882 0.0118478 0.00608989 0.00446486 0.0120066 
0.00822453 0.00216117 0.0120399 0.00526748 0.00628067 0.0117992 0.00100947 0.00155077 0.0124113 
0.00466749 0.000296627 0.012017 0.00202194 0.00452599 0.0119451 0.00807475 0.00416367 0.0120791 
0.00804524 0.000153814 0.0124049 0.00266523 0.000451649 0.012151 0.00642054 0.00129986 0.0121216 
0.00473474 0.00238366 0.0122972 0.00274641 0.00268499 0.0123015 0.00133421 0.00660969 0.0118194 
0.00419105 0.00797349 0.0120115 0.00639591 0.00793786 0.0118182 0.00848221 0.00784025 0.0116884 
0.0163289 0.00793707 0.0114476 0.0128964 0.000822994 0.0122877 0.00997303 0.00355198 0.0117977 
0.0114459 0.00223632 0.0122414 0.0162505 0.00507857 0.0118663 0.0159405 0.00307 0.0117016 
0.00937298 0.00603303 0.0117346 0.0149066 0.00658512 0.011903 0.0142891 0.00226611 0.0126358 
0.0125953 0.00389025 0.0121886 0.0110998 0.00521273 0.0123699 0.00985372 0.000989916 0.0121873 
0.014534 0.00424915 0.0125329 0.0165774 0.0012401 0.0122189 0.0130988 0.00603452 0.0125627 
0.0106958 0.00791278 0.0121373 0.0126748 0.00804115 0.0124902 0.0229003 0.00203816 0.0112324 
0.0236162 0.00398192 0.0109064 0.0188843 0.00117228 0.01129 0.0208726 0.00186545 0.0112539 
0.0196374 0.00423067 0.0113954 0.0179335 0.00292208 0.0114964 0.0211558 0.00589859 0.0113113 
0.023158 0.00596086 0.0109925 0.0216542 0.00388515 0.0114747 0.0238205 0.000292354 0.0115837 
0.0202508 0.00769852 0.0115583 0.0222662 0.00764402 0.0116254 0.0177218 0.00649768 0.0117531 
0.0203887 -2.29354e-05 0.0118584 0.0180299 0.00455989 0.0126767 0.019601 0.00260753 0.0126153 
0.0195009 0.00592933 0.0124851 -0.0208747 0.0109761 0.0104041 -0.0192941 0.0129624 0.0112937 
-0.0222173 0.00875077 0.0116046 -0.017442 0.0117626 0.0114363 -0.0182269 0.0146921 0.0109934 
-0.0174407 0.00930262 0.0114614 -0.0173041 0.0164952 0.0114029 -0.0202532 0.0086868 0.0119848 
-0.0192979 0.0105591 0.0121571 -0.0214494 0.0103741 0.0125015 -0.0167762 0.0136637 0.0121074 
-0.0106726 0.0117754 0.0105116 -0.00974251 0.00998249 0.0113706 -0.0130663 0.0107732 0.0113567 
-0.0152649 0.0117563 0.0108885 -0.013593 0.00880124 0.0113972 -0.0147402 0.0139558 0.011349 
[...]
POINT_DATA 5997
FIELD FieldData 7
id 1 5997 int
5068 5870 828 2627 1653 3411 3554 5348 1646 
4114 1913 1731 345 863 3571 2121 5215 1775 
3965 4143 4090 2745 377 4819 56 3065 5252 
3131 127 5449 1502 1758 1008 1836 3416 3539 
1183 183 1885 5224 5866 5785 953 3010 5292 
3060 5343 2663 3294 1131 372 4247 1969 3751 
2157 2541 4292 3529 2266 3420 262 455 5526 
1043 3423 3631 4275 742 2885 5559 3132 4349 
3325 4380 3055 5979 4529 2729 1381 3320 104 
2499 2572 5409 122 889 2532 1397 1801 2205 
3309 3443 2789 1524 627 2290 2838 5006 1577 
4818 4874 3699 1127 975 3464 6009 4618 1230 
2746 6039 507 5704 3746 1400 3018 4816 4749 
2590 4815 4951 956 4299 5878 1433 452 5949 
5702 1461 4999 3263 250 1505 4661 5695 2496 
5453 118 970 2248 3014 1142 2903 1632 1429 
3544 4127 3327 2529 4964 926 3381 5156 5699 
4153 1373 1650 3685 2970 1177 4025 5030 1823 
3645 1147 1939 2283 629 3262 750 794 1002 
691 4691 2814 1435 3658 3264 470 3781 3336 
3928 685 1219 2324 3075 446 1539 846 1218 
1113 1193 1371 4520 3954 1139 3439 1362 4288 
3738 4390 5523 5871 5971 5323 2024 4483 3887 
853 1328 5217 5088 27 2246 3684 4942 5468 
4517 1569 809 4165 1034 4484 5873 3405 704 
3496 6023 1533 2168 3806 5602 4479 2430 5461 
2691 4591 787 3785 5082 1878 1238 3713 4078 
4914 2322 1545 3625 5742 5315 3519 316 5557 
968 3753 3477 4559 5938 5111 4843 6008 4098 
1369 1375 2602 3666 621 4828 1519 2020 1664 
4775 486 1075 2009 3426 1235 5158 2032 1203 
1196 1579 3414 108 4954 5339 1830 2662 3782 
4523 3144 3303 421 2443 2284 2511 1541 5570 
1436 3373 2199 3966 3030 5535 2484 1409 1366 
4562 5723 1298 2900 4271 1872 4434 5243 2177 
1582 3956 4102 5466 5207 2998 384 2286 1748 
3962 2827 1696 969 2968 1140 897 190 3820 
4387 2888 2913 3042 1626 5381 807 2619 4222 
2536 1428 4023 5849 1335 1258 3654 415 2615 
2816 2375 1537 4265 4105 4560 3377 3619 1515 
2614 231 4436 1860 3543 818 5204 712 741 
3924 1352 4616 2396 1132 5934 3541 2219 4871 
4104 1608 1426 3514 3040 3567 4117 3089 1642 
5040 5809 1825 2180 3087 1293 307 382 2686 
2452 5007 435 2858 4534 5869 1321 3745 768 
2587 5944 3276 5900 3878 2280 1028 5221 2012 
4787 635 2939 1883 631 2488 2147 687 5520 
5700 5990 1320 5424 3449 1270 2695 2234 5730 
1267 4328 5014 174 453 3352 6057 1652 5644 
4652 630 1760 189 997 825 4444 1742 396 
3527 3110 1172 3728 88 1262 1859 4404 4498 
2769 2926 315 4351 1021 1843 5959 1289 1667 
3255 4892 1148 4840 6046 5136 3629 4491 2669 
5657 2427 977 5762 2482 5864 2379 3050 4647 
4813 718 4833 475 4667 343 2672 499 4682 
960 2306 5264 3925 798 1627 21 547 5032 
1322 1223 3187 4976 2545 2307 1845 5569 269 
1272 5012 5152 228 2313 457 3912 572 3803 
2276 1091 3750 5633 925 3356 138 1382 2126 
1078 2899 5205 745 1179 858 2301 2822 4168 
155 2316 3374 612 4903 3267 3877 1902 2980 
5604 5418 4718 482 816 2439 2880 2513 4201 
2829 3894 1020 1678 3179 3472 1237 2920 383 
2059 993 3777 2505 705 2162 3308 3786 2411 
2917 776 4684 2017 4239 1416 4322 2874 2700 
1178 4581 1198 3289 206 2063 2355 2383 3256 
1482 4320 5902 4789 4187 5933 214 4995 3759 
1953 5108 3378 541 1591 2271 2424 644 1358 
233 5066 1243 795 5525 3341 1501 163 2223 
4784 4738 4307 3671 4745 4359 5022 4313 4088 
1032 449 1300 241 4345 2337 5739 4080 253 
2687 5260 433 3 4862 1868 2053 830 1046 
352 3538 1920 4726 3134 5532 3640 6066 781 
3552 2783 1394 5349 3901 5498 1880 1090 4266 
987 931 5608 3291 5677 2253 4740 4447 2762 
963 4440 5099 1010 2471 3062 1644 909 4547 
3661 3574 2074 5241 1033 2212 1162 1019 1302 
4468 4846 4920 1249 519 1698 443 2875 1186 
2095 5356 2693 4448 4774 3146 195 2151 5991 
3185 4258 598 5780 4198 2676 4687 553 3822 
4755 714 5773 5710 338 5585 1092 2523 1721 
949 1390 365 5220 3691 1993 2098 4992 2408 
3860 5328 5324 473 4160 708 3827 2193 3207 
5002 2994 2077 3397 5562 2767 911 5847 3693 
1658 101 5126 4284 548 1583 5551 636 3176 
2462 1153 5280 1107 126 3354 3922 1191 5445 
4571 1564 4714 4172 2196 3914 3038 5798 3442 
3372 5777 1204 2122 752 5631 1009 4089 12 
5831 199 4842 2750 2629 2553 154 77 4589 
3285 3646 3257 2931 2710 2747 3804 3690 5310 
3003 227 3525 6027 2793 1290 3312 1151 4423 
602 6002 950 2925 4140 4898 4364 5915 4133 
512 6014 1708 1100 251 2664 2096 4365 3810 
329 1434 3302 3813 3243 522 3950 5405 344 
4500 1777 3695 2612 3856 1630 4024 1965 3206 
2413 6062 3510 4822 1004 4639 2522 1479 1638 
2535 4039 67 847 1291 2960 2233 2275 5403 
5879 1045 719 200 292 1592 3475 756 5894 
1808 689 4791 5481 800 353 5281 5641 5732 
568 5297 1829 4626 31 2387 812 3153 882 
2244 4525 1263 989 487 4158 3984 4508 4919 
3711 4381 5872 5692 2540 4727 5660 5361 4855 
4733 3593 1912 3722 485 2836 1410 3101 120 
1160 5666 5712 285 4419 2868 4850 1296 5917 
824 2294 2186 3760 1188 1746 5013 5279 2932 
2848 2128 2213 1813 1917 339 4146 3081 1101 
4780 3299 2327 5614 4706 672 5050 1453 1924 
5488 569 3564 3469 659 2552 2991 301 2463 
513 3761 4779 1388 1711 2016 3279 260 2841 
2454 4723 2941 4495 2720 811 184 4262 509 
1227 5352 3433 1316 4315 4162 5589 5868 5694 
1575 5329 3973 5705 2295 5662 5057 994 3278 
5875 5200 716 3948 2026 591 2808 3063 3033 
1017 3919 147 537 2915 4291 1175 219 4512 
4119 516 1542 1538 2916 4074 1786 3364 852 
3228 3768 4344 355 1351 4623 2863 647 4967 
921 2491 5890 2333 2448 4194 5360 4826 2533 
3152 1660 5005 5289 1049 735 2624 4082 1907 
1117 4463 5838 5765 3943 899 2576 2929 1398 
4327 5245 16 1908 2347 252 4179 1941 4679 
1702 4438 3402 4287 5512 5399 1596 2434 2678 
1936 2216 4379 39 2485 1983 434 4057 4250 
1232 2191 529 720 1511 1657 4081 143 4197 
1259 4180 1895 30 1976 1815 1998 3635 2197 
2400 3386 3995 494 2470 5454 1507 2376 3871 
1286 2341 2647 5052 3099 3947 2331 2761 562 
4389 2596 374 4368 185 6004 1339 1093 5861 
5284 3333 981 634 3900 1521 3340 3940 5301 
1922 4781 3311 1756 2787 573 2292 317 1130 
5183 782 3118 4991 5829 5833 2628 3487 2340 
4217 111 1930 5397 2138 1666 1165 1424 3916 
5976 3440 2153 2682 1925 821 5583 2418 5064 
1551 393 2254 3212 3724 3831 885 692 982 
668 1233 3178 1584 1779 3839 2657 1504 3272 
3656 5483 294 3104 4897 4 5168 4397 1639 
4578 674 399 2502 3846 703 2712 4796 3432 
2256 17 1599 1992 4615 2028 867 5436 2817 
2262 1209 2958 2740 5684 3811 6001 3082 5741 
4641 5061 3218 5515 3197 5812 5159 3975 5669 
406 3027 19 3613 2867 5078 2170 5966 4281 
521 3016 4268 2310 1620 4544 561 5554 2445 
3403 1403 1414 3288 1867 524 4601 60 5713 
5757 2901 3483 4467 1741 42 6042 5693 589 
2517 4009 2094 2214 4077 1018 2407 2041 927 
4989 1967 438 4376 5414 3801 5107 2305 1685 
3747 3703 5008 5696 4624 4574 4488 874 1396 
4034 5686 5396 3769 3858 2525 559 4668 2172 
5575 84 4126 5134 1452 5840 4548 5921 4264 
3861 3676 4149 2694 5754 4538 3112 5298 2291 
4863 3775 3205 4633 2766 5946 4276 2811 4677 
3404 4476 2679 2231 4261 2702 5845 1102 4196 
2392 5825 834 4135 234 5053 2907 1959 5042 
1552 1050 5987 2365 4139 595 3698 3879 2606 
3675 3850 280 5760 1855 4594 1568 3727 5336 
1677 1425 2756 5709 4695 2061 3592 4227 3165 
6005 979 5748 992 3706 531 3933 5227 2314 
5837 2642 5955 3823 2141 3516 1743 3581 5085 
1030 2236 2312 4411 5433 4839 3560 3444 2928 
4413 5092 177 4943 2069 1039 3393 6052 4357 
5406 2362 1141 5975 3648 4681 1882 2428 2361 
2859 3292 5672 4922 3430 5598 4880 3994 5070 
3634 2279 5493 5610 5062 4960 5350 4648 2804 
1679 337 1134 5790 4751 2872 2732 5100 3493 
6038 5967 3307 4373 1516 2404 1442 4442 5369 
2930 1439 3045 2791 5653 4212 3392 1611 833 
2085 1329 6058 1876 358 2839 1294 2348 1906 
5977 3390 3976 1083 5646 2272 2174 3968 4443 
1747 5004 1738 2503 4671 2751 1790 5817 2668 
826 5802 3409 5744 3859 4321 3870 2442 5793 
1062 283 3189 5931 1550 3842 1581 4941 3881 
5255 3892 3800 216 4721 4570 1991 1890 3245 
3365 2640 87 5320 1527 1624 648 3963 5272 
998 5519 102 5590 4821 1600 3497 2953 3008 
5354 3305 4888 5904 5937 3494 3275 952 4064 
5185 1447 3410 4240 1874 1919 780 906 82 
3736 3417 3563 2432 4439 539 4845 463 1572 
3006 370 4856 2895 5928 296 2111 3135 1598 
557 2453 2575 2273 1231 4586 3808 3853 5188 
4047 130 5380 5231 3237 5487 4452 5827 2103 
3898 3612 2987 670 3649 1716 2765 2056 640 
2595 5102 4975 1344 1934 1571 2528 2844 1315 
549 62 314 1354 6022 5832 3366 5499 3126 
5549 4301 929 4031 1737 6033 2706 26 3173 
1623 5318 5257 5363 3095 3061 4536 5612 3145 
1544 1474 1242 4296 1487 615 5 2052 939 
5016 5776 5820 3891 1851 3707 4694 2334 5278 
4766 5999 966 510 2402 2136 5146 1190 55 
2992 5046 4355 2232 414 1066 4422 2866 2175 
4161 4651 3310 4566 5901 4539 2964 542 3271 
2775 2776 3484 5885 1603 4552 1807 4324 6049 
3946 4958 35 3620 325 5948 3446 4230 2435 
3935 2949 3106 2422 334 4234 813 1360 423 
1389 2029 402 2957 3951 1709 2950 5550 5489 
319 2504 5718 4531 4583 3438 2634 3343 1496 
848 1848 3326 804 1427 328 3896 1037 3023 
5351 3795 946 2321 4147 1778 755 1791 1208 
810 5736 5626 4339 558 3607 5000 2999 3815 
5649 525 954 436 135 1029 4095 5769 400 
498 5362 3528 5266 4741 1547 4189 3847 4485 
2733 4458 4070 4753 2988 723 15 4933 1441 
3223 2600 2215 4021 4689 4191 4405 2460 96 
3419 1122 2948 2739 3719 4332 5291 5367 1068 
2192 2466 2701 3752 1467 5480 2437 1459 1024 
986 5852 5387 2563 3826 933 2210 1587 4245 
2860 1700 3731 1964 2919 3252 5471 5139 275 
2607 3979 3482 3616 264 2721 5196 5222 204 
2060 1966 2639 1847 868 4371 4938 2584 5862 
6068 4918 3737 3290 3974 4761 928 1911 1513 
633 89 5717 608 4988 4148 2494 3035 5378 
5919 5144 5368 3429 4858 1481 2440 1431 4415 
5332 1144 5056 5577 1944 3248 570 799 571 
1013 6035 4669 1264 46 3680 1216 5413 5884 
5856 3837 5828 2705 3748 5886 1877 3316 5823 
1503 342 389 2391 5421 5667 1755 4532 5357 
5580 3413 332 1803 2403 1333 676 4609 5161 
459 6050 2025 4501 188 4066 327 4685 3224 
3636 5839 4878 5282 270 763 4861 5800 873 
5972 3428 1189 1226 660 2131 2148 460 1149 
22 962 3932 1161 2076 646 3490 150 1866 
849 3938 203 3679 371 836 2773 4159 5982 
2007 74 3113 3575 3389 161 3094 2632 5607 
1812 5951 5249 606 2240 1 293 3093 4569 
1268 747 2104 5606 5398 4011 2479 284 123 
575 2269 4068 3610 4904 3934 766 2908 1042 
4449 2117 4226 3097 3897 1785 3549 140 783 
2886 2065 5599 1554 2475 4005 2382 3788 4204 
5335 2245 905 980 92 1248 2101 1935 779 
3210 2008 1622 1889 361 1167 5737 4604 3379 
4051 2390 4427 4663 577 1701 2983 2367 3261 
1910 4882 796 3599 1072 2277 4122 4537 999 
4955 3977 1693 995 4730 5791 2828 4451 3478 
4124 3337 840 2150 4298 1027 2771 1332 616 
734 156 5233 1590 890 4416 495 2130 2725 
5584 5358 3360 3632 4115 4054 3194 1945 4649 
321 4830 4802 4929 5451 5148 5701 2088 3905 
4211 3346 2118 5236 2058 2570 392 3941 3268 
4617 3531 922 4010 4055 1367 2912 2879 2100 
367 207 1331 3952 395 4611 4342 2414 3214 
2937 2976 3825 5009 3770 5288 3480 2630 5679 
5412 218 2332 1765 4936 4377 2311 1635 2167 
97 5340 4670 3589 1491 2799 2081 5166 1383 
2677 2447 5968 5500 581 1982 2073 4317 5772 
5294 681 4950 2754 1376 1098 2226 5572 4142 
3103 2005 5446 132 4195 4232 4002 5740 1781 
5985 2716 4750 5906 1213 3986 4716 2802 4869 
2542 1754 2797 114 3522 5924 1559 958 5848 
4572 149 1984 3512 1654 593 1082 4952 3287 
3821 3011 1484 237 201 3376 4966 5439 5423 
4757 5632 4701 4894 4511 5738 3555 2774 4915 
1359 3400 2325 4331 4970 5574 4263 5273 1816 
1715 5511 2323 2198 3989 4480 2225 731 1853 
2910 574 642 469 3890 4492 5151 2165 1440 
2468 290 4959 6065 5163 6025 1699 2366 815 
769 1324 226 3391 447 5540 4935 5914 6056 
2588 1276 3945 3297 2436 330 1580 2417 5135 
2023 2788 3756 462 401 2190 3942 1207 2846 
5908 197 2421 3108 518 1687 3234 192 3557 
4792 3080 5663 2419 2978 2803 2384 4908 5630 
1651 3219 2594 3895 2309 599 4493 5541 4756 
5047 2524 1064 5043 2653 3232 3526 2067 5855 
38 4778 2264 422 2718 2320 4777 3078 715 
3537 3787 1718 5792 805 2252 2982 5491 1343 
1682 2014 1723 336 4378 3603 2393 801 789 
2378 1956 3958 5074 4688 6060 1415 246 5542 
1509 416 3069 1337 4924 4236 2211 5943 2515 
5629 3568 4326 5437 4513 1065 5563 3273 153 
3170 4395 1669 5860 5044 3159 2638 117 3732 
2057 898 5826 3969 5567 947 4899 3533 941 
4868 3239 3518 4940 871 2837 4884 5883 5391 
965 1413 5299 4207 4577 6016 2974 5302 4998 
2258 5036 511 2997 2201 5963 3638 4961 4798 
61 3682 3083 4456 2952 4108 2342 2965 4981 
176 3188 4614 4655 3545 2548 3396 2501 1036 
2786 2336 4019 3829 1252 1602 4000 2626 861 
5237 592 3157 1116 64 774 875 4625 1079 
3036 141 4455 2956 3371 567 5962 5305 5344 
1955 340 404 4242 2161 4013 5364 2062 6026 
5495 3019 5479 261 2911 2467 4150 5028 3955 
2222 3368 3072 4337 248 4459 2719 4928 490 
4573 515 2139 1605 202 3718 310 208 2078 
5247 1614 5764 609 2473 173 3180 3436 2554 
6030 545 4885 1115 2033 1463 3504 3573 4712 
3453 5235 397 3437 1250 2854 5038 86 5234 
3412 5122 4522 1124 3195 797 3668 34 4831 
1968 844 481 180 2018 4865 2451 295 4141 
4107 4711 4526 784 4433 5275 3876 5913 5813 
534 5460 4731 5564 3559 4736 1826 54 5408 
5747 4206 4605 2152 3783 4883 5673 4713 3181 
1856 2217 4518 2851 3742 3020 1595 727 4590 
2004 4067 3253 4040 3151 326 1105 3465 4001 
211 3981 1326 3926 168 1120 4402 403 5084 
4274 1954 1989 5089 4241 4982 2263 4962 5372 
1346 6061 5708 4524 3882 1668 3733 37 1419 
3407 5911 3071 4748 4650 3530 1060 3363 5105 
1670 1119 1085 2274 1007 4505 4123 3686 4535 
1689 5970 5678 5452 6054 4985 2558 3792 6044 
4283 5218 4979 5558 1197 3017 2127 1899 186 
3644 4584 4965 3848 2169 3471 4645 1488 2507 
1884 3700 5033 131 5643 4093 2409 3284 604 
2711 2478 1077 3358 4045 4837 3029 5774 230 
2792 3547 4370 2000 242 441 4910 1174 5652 
5842 3138 2218 2394 5587 4356 1990 300 1681 
5683 224 4797 3678 4462 5639 4469 1948 4665 
3697 1566 3816 5727 1717 2261 429 3424 1164 
158 645 169 2304 427 3012 3164 544 2064 
305 5647 3466 4889 4674 788 5261 3624 5958 
2339 4911 1401 1633 753 178 2586 3158 983 
3696 2567 2500 5374 5167 838 3148 2625 1892 
52 5859 879 3136 478 3109 3633 1309 1844 
5516 3992 375 4305 1585 623 3025 410 4672 
3717 3910 3331 3817 4432 2620 2670 3367 432 
413 2093 1225 2247 20 412 4744 5025 3520 
2995 3997 566 2962 910 3546 9 3604 3086 
1556 4563 1418 3515 1792 501 3332 1086 4872 
2227 2559 5648 2389 503 2902 1615 5173 1000 
368 976 1364 3488 4877 5394 3577 2544 4302 
10 5035 5426 1548 3710 4825 3133 3828 1663 
2195 1295 588 454 5797 3889 2527 896 2617 
3034 3013 5370 1520 484 1728 3723 973 1465 
4174 247 4886 3521 622 273 2318 4969 3489 
496 2300 1497 2381 508 2580 2200 1071 5383 
4101 8 5783 5880 5636 3550 3177 5920 4343 
3473 3824 1831 1206 3458 3098 175 4354 4038 
4629 5581 4803 3778 53 1156 2715 3204 2921 
554 2486 857 4887 5083 4186 1104 2229 5810 
2683 532 2865 3105 4497 1647 4620 5103 2973 
5230 2731 3174 4742 4028 5576 3456 4060 1929 
2224 1727 2456 3509 3140 1089 5055 3789 1038 
5804 4131 1377 803 5303 3321 6037 2317 6063 
4048 2810 3301 3627 3107 5992 5560 839 5787 
5306 5165 1894 737 4835 3838 282 5212 3190 
5719 5916 3150 71 4662 5465 1794 706 2724 
5430 5287 3296 878 5097 1783 3401 5314 2289 
1634 69 3534 2613 1255 4334 4453 1341 5296 
913 6034 1952 1531 426 3517 4504 1437 3562 
1819 3908 376 527 4420 3835 1970 4576 3474 
6011 2887 2071 263 611 5895 3385 3594 5993 
3855 4304 5124 238 4599 171 4696 2176 3681 
2782 1155 5457 5687 5655 4622 4810 4770 1271 
2753 697 2671 892 5899 5734 350 5477 297 
3982 1423 5071 3588 2498 2940 2251 255 240 
4409 3242 819 4902 3199 5170 3540 3355 3687 
3091 4335 5145 2641 5095 3987 1656 3857 2796 
2352 2357 4363 3359 2155 5172 2675 3039 121 
2850 411 576 3893 3949 5735 2181 2840 4255 
4697 4044 2608 4817 1457 3213 1750 1133 4362 
2591 5945 303 3119 2135 1510 4834 3300 1832 
4016 5169 2834 5131 2013 4004 3329 3657 2741 
4790 2146 5049 2825 472 1108 409 5265 431 
895 831 1691 3141 1850 2823 4519 4350 6055 
4151 5129 4913 3031 5496 2723 2465 1310 1726 
461 5635 2878 5953 164 2156 1940 4852 5254 
6021 103 624 6051 4732 3854 3171 722 3763 
4243 1356 4282 1975 872 2623 5601 5932 3754 
3369 5670 1387 5681 2820 3182 5240 710 2661 
2905 1578 1137 3578 5980 2622 5434 2288 4873 
1386 2521 4043 1466 2938 594 3558 866 1688 
1861 5021 3460 2651 851 1905 2506 3904 2530 
1710 165 1563 2354 3201 3345 773 2298 1863 
2831 1570 578 2780 1239 1675 5721 4408 5118 
3122 4199 5517 4116 137 3985 4927 4474 3503 
2343 3621 990 5017 3383 4585 2464 3637 1735 
2818 3864 5822 1980 4100 5642 2444 5058 2798 
2564 4680 1490 36 856 5898 777 94 3167 
5407 1694 854 2873 2458 2935 2249 2328 380 
112 5389 2239 2048 4137 5194 3314 1393 770 
1618 5506 3865 5027 4128 2870 5874 5026 514 
5969 418 4184 4870 4267 2220 1986 3774 2125 
1192 4477 1838 6064 4260 3406 4499 2050 91 
5001 4041 3114 1097 4303 2904 225 277 5250 
4398 3049 4849 4129 1788 4788 2534 4939 4666 
3606 3834 2055 1972 4257 4188 2027 1047 2684 
5031 5065 1422 388 855 1549 3246 880 4464 
493 476 3990 4022 4890 1604 5010 83 5503 
3441 3771 32 877 3005 3244 1076 268 3147 
128 115 256 3270 5903 1719 2736 3068 4658 
4073 5545 6040 3776 1891 5076 1342 3868 4739 
904 2386 2079 3470 1553 239 5896 1063 4032 
2749 3394 2363 5671 916 4029 870 3192 4083 
2185 3335 2345 298 4971 3918 1057 1087 4248 
1558 923 613 3342 309 1181 1014 658 3875 
4421 5745 4808 4323 3399 1640 1740 3209 6007 
1809 4399 3347 620 2373 466 822 5119 2936 
2934 4762 2909 5624 2204 2441 3605 767 5728 
254 4336 3705 95 2278 1336 1222 5121 1523 
5063 6047 1849 1432 4807 937 696 5386 1406 
2685 978 2119 5355 152 4489 4773 5353 869 
2881 3334 5115 3767 820 702 1485 1914 5555 
1311 4521 3576 888 4259 3066 311 3318 920 
1125 5176 5508 1040 5472 5988 3421 2356 5416 
1061 4352 2636 3216 3054 1445 564 5448 1305 
221 4549 5841 748 4310 3739 5707 1365 2221 
4385 4930 2472 971 5996 5443 2107 4996 3350 
2038 5795 4176 711 837 5973 29 3920 764 
1469 2508 4309 4018 908 1957 1662 2897 887 
3784 5986 5054 5806 420 3663 2054 2856 2395 
4700 4410 4972 267 229 619 540 4646 4403 
5767 4202 4280 5510 2110 308 688 4065 3513 
1759 4743 90 3988 1886 5171 563 4042 1492 
3362 628 3163 3996 1979 1903 2550 1023 2947 
4136 4450 6069 4653 5385 341 1767 4052 1051 
1900 1385 1003 552 304 1084 491 502 5125 
3683 4580 1194 772 194 480 3274 3485 2228 
1211 278 3791 5366 6003 323 360 2144 3024 
3186 1574 4121 2984 1938 579 903 4437 110 
597 932 2538 1736 373 5285 1789 4330 5202 
4551 3907 386 1443 1734 1287 1128 1985 331 
1963 1932 5622 4978 3565 3057 5930 320 713 
5198 1353 614 2206 1015 3004 5029 698 5268 
5611 1378 5216 1478 3570 2993 265 1714 2423 
4473 5127 4593 3704 58 3708 5181 4937 1493 
4598 3591 4429 5428 1512 2330 4017 4984 387 
1706 1978 5106 4558 5133 3886 3660 1686 5789 
1655 4600 5605 4216 5596 4375 312 4545 5758 
6010 5664 5365 4502 3873 2728 3370 2543 2397 
5623 3566 59 2109 4925 4053 419 4003 4879 
4235 3191 5206 1858 3229 917 5075 3991 3211 
2474 4799 3548 4956 5814 4905 2946 2495 13 
4314 5248 1112 690 1835 215 1672 5770 938 
686 2547 5892 2571 1109 4086 5616 4050 5045 
5925 1560 2281 5815 4575 5788 4286 258 2861 
2308 1056 1915 5505 5676 106 5650 4358 945 
5889 3380 5579 232 3923 5651 664 5658 1707 
5582 3259 5603 2188 3298 2876 4709 5960 5447 
3939 3200 3100 5157 1534 5333 302 4087 5857 
1129 2569 5376 3915 1284 72 5321 4724 900 
3790 4224 1022 4946 1201 699 4660 3032 520 
148 5263 5219 643 2898 2116 3317 1557 2371 
2727 456 3643 2011 2658 1525 860 2655 4974 
3115 2635 4218 2961 2043 1773 2359 1245 4769 
5600 1026 2039 5338 288 4983 4916 5689 626 
4530 289 694 5023 2835 3665 5989 3507 5195 
2742 4719 5640 1960 936 276 4033 3225 4103 
4699 2446 4465 3137 4457 1508 3002 5474 4252 
3937 3615 5486 2708 3677 5556 2075 2666 4289 
3502 2208 2650 5749 3721 2514 2643 3064 4388 
5467 1476 3556 488 3978 212 3830 3073 4192 
2410 3672 191 2034 2943 5492 4471 738 1659 
25 4900 5193 3779 1827 5858 4595 740 2084 
1805 2106 4461 4809 2772 1951 918 1751 1705 
179 2549 1996 2102 3415 5954 5984 4510 1697 
792 4895 5929 3418 2759 23 5997 1217 1143 
2665 2942 1573 363 1044 1526 2918 1607 2490 
5821 2250 5463 3128 4401 5998 3315 2489 5720 
5450 654 2963 617 1842 4221 3832 2688 893 
5743 3375 4857 3127 4205 2108 1391 5104 2737 
1070 99 1763 2021 533 1347 957 845 2890 
930 3692 663 2353 5597 4820 5020 526 2707 
5768 4912 4657 3758 4475 5926 3476 2852 2578 
4406 2824 610 4806 1649 65 651 2037 223 