# vtk DataFile Version 4.2
Generated by LIGGGHTS
ASCII
DATASET POLYDATA
POINTS 5997 float
-0.0163666 -0.0173987 0.0142286 -0.0116724 -0.0209 0.0130305 -0.0130275 -0.0199572 0.014224 
-0.0102618 -0.0196952 0.0122345 -0.00999948 -0.0216881 0.01227 -0.012186 -0.0191293 0.012206 
-0.0141741 -0.0191471 0.0124094 -0.0155783 -0.0177062 0.0123227 -0.00937669 -0.0179066 0.0123248 
-0.0107995 -0.0194451 0.0144278 -0.00889635 -0.0221305 0.0140371 -0.0106598 -0.0214297 0.0146946 
-0.0148649 -0.0186953 0.0147036 -0.00906147 -0.018397 0.0150486 -0.0107573 -0.0174445 0.0140442 
-0.0129833 -0.0179987 0.0137717 -0.00840146 -0.0205225 0.0127096 -0.0116814 -0.0171767 0.0122129 
-0.000577407 -0.0237896 0.0122563 -0.00257725 -0.0237255 0.0122297 -0.00624302 -0.0231419 0.0120625 
-0.00654365 -0.021081 0.0121705 -0.00420529 -0.0216017 0.012174 -0.00558589 -0.019314 0.0123112 
-0.00406788 -0.0180125 0.0122398 -0.00302202 -0.0199858 0.0121927 -0.00812051 -0.0224397 0.0122134 
-0.00207686 -0.0182186 0.0122902 -0.00742662 -0.0185208 0.012464 -0.00444578 -0.0234347 0.012944 
-0.00584197 -0.0172074 0.012757 -0.00179733 -0.0223484 0.0135354 -0.0032111 -0.0210382 0.0141184 
-0.00522173 -0.0208067 0.0137276 -0.00703887 -0.0228724 0.0140416 -0.00139069 -0.0203899 0.0135415 
-0.00390333 -0.0191564 0.013934 -0.006971 -0.0198267 0.01399 -0.00335404 -0.0235951 0.0146156 
-0.00138657 -0.0239296 0.014741 -0.00715893 -0.0178094 0.0144355 -0.00439213 -0.0172808 0.0146346 
-0.00532201 -0.0232997 0.0149836 -0.000307595 -0.0172931 0.0124054 -0.00034899 -0.0193195 0.0121855 
-0.00259747 -0.0169341 0.0137956 -0.000320398 -0.0218049 0.0122597 0.00144099 -0.0238098 0.0122873 
0.00704477 -0.0219244 0.0122564 0.00144158 -0.0182945 0.0123819 0.00318133 -0.0217 0.0124075 
0.00544281 -0.0183089 0.0122031 0.00138538 -0.0207148 0.0121868 0.00656381 -0.0199672 0.0123109 
0.00435878 -0.0200419 0.0122321 0.00346289 -0.0236957 0.0123037 0.00543891 -0.0232406 0.0122195 
0.00344595 -0.0182614 0.0123653 0.000428989 -0.0235381 0.0139963 0.00064077 -0.0198849 0.0140045 
0.00181935 -0.0221049 0.0138147 0.00266302 -0.0198732 0.0136123 0.00538586 -0.0183359 0.0142851 
0.00512845 -0.0215126 0.0133788 -5.46871e-05 -0.0216625 0.0146364 0.00400508 -0.0236414 0.0143113 
0.00584833 -0.0202393 0.0147787 0.00145016 -0.0180811 0.0145162 0.00728034 -0.0216174 0.0145402 
0.00352285 -0.0214215 0.0146239 0.00595251 -0.0230993 0.0143128 0.00764496 -0.0197155 0.0140007 
0.00797141 -0.0181038 0.012445 0.00452111 -0.0168365 0.0132822 0.0119919 -0.0205522 0.0120937 
0.00848657 -0.0205039 0.0121884 0.00984204 -0.0173543 0.0122818 0.0117727 -0.0185885 0.0124428 
0.0137542 -0.0194855 0.0122657 0.0102189 -0.0215434 0.0121886 0.00949029 -0.0190795 0.0133772 
0.0154399 -0.0183624 0.0122763 0.00873103 -0.0223016 0.0133091 0.0128315 -0.0201934 0.0139116 
0.0129281 -0.0181929 0.0140277 0.0109916 -0.0211535 0.0140762 0.0112322 -0.0191576 0.0146336 
0.0150245 -0.0186226 0.014235 0.0111516 -0.0172807 0.0138347 0.0135465 -0.0174946 0.012205 
0.0165118 -0.0172833 0.0144173 -0.0180884 -0.0128185 0.0122692 -0.0211461 -0.0110521 0.0121862 
-0.0170454 -0.0145233 0.0122074 -0.0172042 -0.0165193 0.0122907 -0.0190532 -0.0145719 0.0123222 
-0.0200944 -0.0128609 0.0125189 -0.0191346 -0.0111141 0.0123147 -0.018182 -0.00935371 0.0123438 
-0.0171569 -0.0114427 0.0133884 -0.0209929 -0.011372 0.0141934 -0.0199719 -0.0130624 0.0145218 
-0.017954 -0.0129655 0.0146949 -0.0177216 -0.0159247 0.0141381 -0.0190155 -0.0112633 0.0145123 
-0.020123 -0.00945692 0.0128829 -0.0187346 -0.00927498 0.014499 -0.0219552 -0.00961815 0.014257 
-0.0220904 -0.00928613 0.0122493 -0.0163 -0.0100283 0.0122343 -0.01607 -0.0127804 0.0123573 
-0.0135648 -0.0165065 0.0122988 -0.0153768 -0.0156352 0.0122407 -0.0113325 -0.0133088 0.0122698 
-0.0108479 -0.0113667 0.0122827 -0.0131807 -0.0125242 0.0122633 -0.014725 -0.0112637 0.0124135 
-0.0100468 -0.0160135 0.0121734 -0.0128107 -0.0104873 0.0123233 -0.0129396 -0.0145926 0.0124263 
-0.00883574 -0.0112532 0.0121529 -0.0144352 -0.00924908 0.0122452 -0.0162311 -0.0140698 0.0139912 
-0.0160809 -0.0122862 0.0148986 -0.0143881 -0.0148315 0.0137965 -0.0118518 -0.0120559 0.0140318 
-0.0145755 -0.0128419 0.01369 -0.00971809 -0.012361 0.0136046 -0.0144702 -0.016766 0.014302 
-0.0132925 -0.0106344 0.0143693 -0.0152665 -0.0102821 0.0141781 -0.0127523 -0.0138145 0.0143455 
-0.00988255 -0.0143178 0.0132207 -0.0115109 -0.0153716 0.0137558 -0.0107904 -0.0136127 0.0148784 
-0.00892462 -0.0165711 0.0142143 -0.0126269 -0.0164721 0.0150369 -0.00984207 -0.0108093 0.014862 
-0.00959036 -0.00964947 0.0130782 -0.0114287 -0.0101159 0.013739 -0.00850307 -0.0132324 0.01219 
-0.0129618 -0.00884162 0.013543 -0.0103174 -0.00877183 0.0147226 -0.00411806 -0.0160024 0.0123046 
-0.00243254 -0.0125839 0.0121843 -0.0053153 -0.00982694 0.0122386 -0.00820568 -0.0152131 0.0121953 
-0.0016939 -0.0106946 0.0122645 -0.0040162 -0.0139526 0.012188 -0.00154057 -0.0156699 0.0123077 
-0.00684423 -0.0111082 0.0124084 -0.00368177 -0.0109805 0.012284 -0.00529577 -0.0123759 0.0123704 
-0.00582846 -0.0147728 0.0125961 -0.000806904 -0.0137952 0.0123913 -0.0077513 -0.0092921 0.012301 
-0.000985668 -0.0120598 0.0135472 -0.00706796 -0.0159084 0.0137196 -0.00295078 -0.0149741 0.0135684 
-0.00734549 -0.0139138 0.0137109 -0.00259341 -0.0108626 0.0140665 -0.000825789 -0.0148341 0.0141103 
-0.0037681 -0.0124333 0.0136694 -0.00399791 -0.00947413 0.0137244 -0.00784502 -0.0116981 0.0141291 
-0.00488248 -0.0153616 0.0142883 -0.00544449 -0.0134342 0.0141865 -0.00527656 -0.0111509 0.0139743 
-0.00216242 -0.0133833 0.0144957 -0.00633269 -0.00945334 0.0139228 -0.00145018 -0.00924172 0.0136849 
-0.00816079 -0.00974132 0.0146867 0.000661889 -0.0121134 0.0124069 0.0012521 -0.016055 0.0121961 
0.00303779 -0.0132435 0.0123472 0.00652375 -0.0131113 0.0122769 0.00566032 -0.0103984 0.0122387 
0.00649067 -0.0167617 0.0129361 5.53969e-05 -0.00970325 0.0123296 0.00473115 -0.0121732 0.0122966 
0.00509218 -0.0151847 0.0123023 0.00120936 -0.014054 0.0122477 0.00249914 -0.0113111 0.0124978 
0.00309108 -0.0152599 0.0122231 0.00300161 -0.00938145 0.0123378 0.00765997 -0.0103766 0.0122637 
0.00478918 -0.0134607 0.0138354 0.00677255 -0.0148099 0.0133487 0.0025536 -0.0166668 0.0136031 
0.000597268 -0.0107926 0.0139644 0.00287405 -0.01354 0.0144142 0.00727168 -0.0118925 0.0136768 
0.00245167 -0.0102908 0.0145267 0.00372284 -0.0117725 0.0140171 0.000155124 -0.01658 0.0142523 
0.00048028 -0.0133125 0.0140763 0.00508129 -0.015327 0.0144993 0.00147155 -0.0150496 0.0140843 
0.00651189 -0.0135145 0.0148687 0.00602811 -0.0106521 0.014645 0.00450791 -0.00972083 0.0137359 
0.00713862 -0.00905534 0.0141782 0.000841531 -0.00881424 0.0144091 0.00665515 -0.00864279 0.0122736 
0.00823707 -0.0160606 0.0122464 0.0083448 -0.014025 0.0122431 0.0137969 -0.0155096 0.0122168 
0.0107048 -0.0116817 0.0122906 0.00874171 -0.0120644 0.0122328 0.0119369 -0.0162481 0.0122753 
0.0101135 -0.0153701 0.012183 0.0116792 -0.0141282 0.0122714 0.014424 -0.0115115 0.0122792 
0.0125954 -0.0123399 0.0123152 0.0151442 -0.0133641 0.0124977 0.00955317 -0.00972722 0.0123288 
0.0135425 -0.0097116 0.0123088 0.0115475 -0.00986675 0.0122744 0.0157792 -0.0152564 0.0123676 
0.0148346 -0.0166791 0.0135105 0.0133671 -0.0139073 0.0133339 0.0131372 -0.0156694 0.0142554 
0.00997607 -0.0137471 0.0133674 0.00859714 -0.0104223 0.0140307 0.0110879 -0.0152911 0.0140303 
0.0149538 -0.0147873 0.0141774 0.00993618 -0.0119085 0.0141554 0.0135226 -0.0120602 0.0141111 
0.0154925 -0.0117327 0.013957 0.0117044 -0.0128926 0.0140239 0.00847019 -0.013203 0.0146045 
0.0106579 -0.0100416 0.0140563 0.0143089 -0.0101387 0.0142276 0.0161506 -0.0105012 0.0122662 
0.0124809 -0.00912825 0.0139179 0.0163761 -0.00972727 0.014173 0.0152493 -0.00879568 0.012805 
0.0170378 -0.0127398 0.0123306 0.016852 -0.0169453 0.0124244 0.0182549 -0.0153952 0.0123801 
0.0187465 -0.0116612 0.0122815 0.0195405 -0.0137285 0.0121976 0.0206972 -0.012104 0.0123704 
0.0198152 -0.0101421 0.0131132 0.0179307 -0.00966107 0.0126335 0.0216464 -0.010326 0.0123316 
0.0184083 -0.0131231 0.0137454 0.0193197 -0.0115063 0.0144911 0.0174554 -0.0113638 0.0137793 
0.0212786 -0.0109645 0.0142205 0.0164663 -0.0134759 0.0141049 0.0169955 -0.0153987 0.0139537 
0.0187561 -0.0148356 0.0147185 0.0182753 -0.00917797 0.0145512 -0.0230008 -0.00646734 0.0122928 
-0.0172681 -0.00757153 0.0123248 -0.0212759 -0.00544367 0.0122868 -0.0204269 -0.00354767 0.0122955 
-0.0180274 -0.00411981 0.0123224 -0.0192719 -0.0076764 0.0123299 -0.0212654 -0.00746073 0.0123432 
-0.0192902 -0.00567465 0.0123253 -0.0230199 -0.00445928 0.0124514 -0.0223624 -0.00257199 0.0123411 
-0.0181649 -0.00201492 0.012269 -0.0206221 -0.00150776 0.0122531 -0.0226766 -0.00781238 0.013754 
-0.0231892 -0.00558869 0.0141018 -0.017549 -0.00586896 0.0133377 -0.0203741 -0.00813713 0.0143703 
-0.0191251 -0.00654065 0.014399 -0.0213921 -0.00641591 0.0143925 -0.0214844 -0.00445285 0.0140145 
-0.0192707 -0.00440352 0.013888 -0.0169157 -0.0041148 0.0141817 -0.0174964 -0.00770194 0.0144634 
-0.0195332 -0.00239163 0.0136782 -0.0218891 -0.00250871 0.0142855 -0.0176319 -0.00205817 0.0142097 
-0.0238534 -0.00215342 0.0141393 -0.0238476 -0.00123251 0.0122962 -0.0186023 -0.000385576 0.013426 
-0.0225935 -0.000598111 0.0142281 -0.0153775 -0.00690865 0.0123276 -0.0113955 -0.00853046 0.012312 
-0.00950608 -0.00783658 0.0122343 -0.0130296 -0.00722841 0.0123519 -0.0129516 -0.00327937 0.0122536 
-0.0139819 -0.00547423 0.0121974 -0.0106552 -0.00567364 0.0123503 -0.00961936 -0.0033633 0.0122565 
-0.016341 -0.00304737 0.0122329 -0.0160611 -0.00502746 0.0122907 -0.00867155 -0.00601478 0.0122882 
-0.00883001 -0.00151378 0.0122503 -0.0124141 -0.00118469 0.0122081 -0.0144654 -0.00197244 0.0123051 
-0.0162194 -0.00111602 0.0127559 -0.0159237 -0.00850744 0.0134893 -0.01431 -0.007419 0.0139528 
-0.014676 -0.0038347 0.0131072 -0.0113132 -0.00397485 0.0131956 -0.0123884 -0.0056576 0.0134102 
[...]
POINT_DATA 5997
FIELD FieldData 7
id 1 5997 int
4428 93 2021 2264 2723 1450 5569 2776 4872 
3111 466 5414 2206 5529 2652 3309 5711 2341 
685 2636 2698 286 1512 3584 5977 2611 469 
641 4696 5528 2984 2504 1979 2342 635 2535 
2113 5452 4246 1135 1844 1788 4529 4915 4768 
1394 3943 2177 367 2427 995 3664 2934 3999 
5092 620 943 288 4534 936 2056 3578 4175 
4477 2940 3316 5851 859 819 2116 748 963 
5928 1917 3713 4605 1963 5425 3408 950 5773 
3880 2156 65 420 3243 3238 5828 2479 1853 
2103 3991 3075 3091 3414 3684 4293 4102 5408 
1603 4111 3049 3179 5728 2863 659 4545 5041 
2890 1901 2219 1758 3608 3678 952 4791 5998 
3958 2298 4242 1290 1720 1711 5570 4022 5128 
3648 215 4611 858 202 317 4423 1729 2858 
3034 4218 1269 5476 3812 864 4222 279 1200 
4466 2956 5759 2497 277 429 754 4307 223 
3997 400 2583 1543 863 2416 4227 2639 5283 
240 2415 366 4911 996 1722 1072 1487 5326 
4886 2761 23 4269 3984 4516 4048 3210 2550 
2164 2932 1799 2806 321 5440 5498 779 2875 
1724 1184 6040 5511 2218 2718 1700 351 1343 
2711 3279 1518 3865 1839 4835 701 1756 699 
2231 3545 2893 1276 3118 6053 3047 3415 4409 
1298 5637 6025 2189 4702 1403 1506 1101 4587 
3410 457 5737 3912 2615 2171 992 5723 546 
298 4415 5708 4869 4981 4578 3969 115 123 
1209 920 832 3260 5681 5755 961 3832 5404 
1708 5474 1333 4634 2906 789 1561 2325 2355 
612 1032 2544 1410 425 3697 5951 4680 5442 
2126 721 5164 4208 3616 753 4470 3536 4064 
2775 5017 3715 4491 188 5053 3621 5396 836 
5705 5788 5867 5673 4589 3426 1235 888 3424 
1784 142 2783 3886 2560 850 5351 2955 1699 
2627 2063 5765 884 506 1172 686 1537 4595 
2153 4184 715 2719 1250 1889 3911 5202 2945 
4996 5239 4055 5487 5494 2658 2461 5712 2429 
4462 419 151 1449 3465 5995 1313 2459 2352 
1061 2318 2441 2193 5758 5790 3132 2128 808 
3563 4024 3490 3123 4438 4583 5631 1605 5449 
5096 241 797 5500 747 5954 161 545 3445 
3544 3728 4499 787 1563 529 601 2610 4546 
927 5889 231 1451 2435 3326 5584 4378 2700 
5770 5059 5256 3152 714 2488 4480 619 5783 
5122 3819 766 2119 3154 2377 5769 2661 2791 
4489 4675 3 932 2434 4121 2961 5079 702 
2031 1170 411 4101 5389 2370 538 1018 4905 
5010 4908 644 818 661 2690 4573 5741 1497 
3916 3690 5613 5258 4375 20 625 4942 2538 
145 5774 3710 5372 5517 2283 156 5238 1761 
930 5495 5680 4785 900 280 5475 5931 2253 
3116 2702 473 3392 284 5590 2125 3948 1837 
1240 3907 2861 3791 2080 2054 933 1355 4850 
1183 2975 3854 1130 1852 5892 2620 1296 5968 
5900 2764 3954 1591 672 639 2373 2178 3146 
2083 1012 4795 1754 3226 2653 5664 3120 4289 
4564 4843 548 6022 4776 1085 2052 3393 2734 
1362 5263 4128 3166 3738 3729 1971 4657 3735 
732 5530 2261 1482 3869 2865 4037 2202 1816 
4005 2795 5108 5822 5531 3292 4373 870 4604 
2924 2273 903 2549 5406 1414 536 2743 4123 
3593 5634 4071 5823 6066 1105 5897 1182 1222 
3181 2203 358 3826 5612 5266 2747 2485 5400 
1887 4189 5503 1444 364 2301 5177 1649 4594 
5833 3235 3551 2018 4774 1599 2624 2686 4844 
5350 2483 4697 3057 1674 389 1489 3796 940 
1896 3813 3627 1280 2683 5257 5171 470 3438 
1367 1521 3808 2585 2990 5655 5104 2087 5340 
3267 3686 3661 5297 1685 4900 5687 8 1043 
2530 1686 991 3361 2263 3778 45 3600 2572 
861 1328 1347 6044 348 2376 2137 1078 1376 
5353 174 5285 5183 5825 3975 4615 5466 1913 
404 1885 3638 4525 2848 1841 1995 4962 1020 
2701 1969 2750 1571 3254 669 3766 718 378 
4029 1194 2594 1566 853 2587 2093 3056 1138 
59 5725 2755 1090 5937 1211 2348 3531 4666 
4602 3824 3037 2124 3010 307 2856 4179 4254 
2294 1481 2784 3904 5524 4527 1547 4185 2058 
2285 5072 1667 269 4946 275 4897 4786 4964 
5272 5866 4334 603 5510 1663 3023 1501 2403 
1406 4316 2207 4056 98 1428 206 159 2390 
1409 5764 4186 3337 5427 1024 3131 5015 3404 
41 2340 4929 4302 220 246 563 5627 5662 
4190 5809 1759 3035 491 6060 752 2412 3714 
1114 1805 291 4502 5243 5589 2424 208 1259 
4162 3668 1826 5979 3205 5113 3993 4430 3566 
4384 2617 2414 3914 2489 3007 5436 4565 2649 
4099 2644 3883 547 3136 745 4951 1652 1186 
2835 2977 4276 5660 1260 6062 4096 210 578 
5618 6035 4555 5792 4902 1121 3704 5505 791 
1810 5706 377 4771 5480 2174 4549 1412 1407 
2557 3300 2110 4807 2996 2769 2042 271 4718 
3632 2089 3625 4574 5965 5629 254 302 95 
1366 1141 1842 4876 3909 5666 5990 817 4674 
410 1162 5556 3617 2223 2081 5359 729 3651 
1154 445 5088 4278 1990 5601 355 953 4370 
5875 3804 582 5812 455 3640 4476 2086 5488 
5153 1014 2925 5785 968 1751 4803 3463 5614 
2299 1455 3919 1300 4467 1386 4270 5914 1299 
1025 2074 2388 3989 5854 5827 757 4860 5264 
83 527 3021 369 3747 1549 3031 3025 3739 
4129 3287 3395 741 187 3038 1404 3429 3281 
7 67 5312 3207 5865 1526 1267 1559 5964 
1363 2651 2190 1364 5518 71 417 2176 3757 
5639 1638 379 1609 2508 2454 3315 5862 1048 
1488 1128 1287 1870 4068 2512 3595 5731 1221 
1000 1515 5458 2027 1967 1861 5845 1197 2007 
5588 5170 5021 794 4263 3862 2854 1588 3237 
3689 1629 4229 4164 500 5056 781 999 5456 
57 802 1830 717 3596 4903 4490 1931 5935 
4744 53 5407 758 615 4286 446 2049 1871 
5071 700 295 1864 2468 3264 4455 1351 1863 
1079 3439 3328 1272 3581 1015 3349 278 4329 
1173 2210 1696 3930 328 5602 3240 5858 684 
5542 3558 4087 1966 898 5840 4132 4224 4508 
2215 2249 692 5549 5054 5545 4262 2381 807 
4091 1882 2484 2844 3402 4010 2284 5595 3221 
1076 3461 4160 1004 1911 815 5966 1924 977 
4074 47 916 5603 1383 2555 343 636 1075 
2359 5233 2366 1011 1989 5363 4994 5853 1618 
1740 1953 5335 2725 4685 2161 2134 3273 4706 
382 1082 3768 2002 4519 892 5360 2327 2112 
3251 5963 885 224 803 4075 2214 4195 2442 
5808 2145 2876 2205 3765 3853 3693 4640 4796 
2707 4755 1726 5196 4922 1747 1883 5832 1165 
4563 84 3013 5109 3698 4109 2600 3799 2798 
2234 3834 1645 1753 1914 3359 3084 2168 2732 
5493 1002 1671 4386 946 5441 5385 3201 1504 
5325 1201 3271 1884 306 3859 4540 1041 4362 
6061 4548 559 2919 5720 2687 2066 4324 2237 
1104 1874 424 2413 126 2637 1682 5213 2970 
1119 2276 38 1471 1615 2405 2828 3451 5375 
5234 3781 100 2085 1088 1918 316 4645 788 
2705 2869 3700 4801 2185 4187 4879 3922 1514 
3208 2071 5932 1275 3032 5463 164 5679 5314 
4754 3449 4852 2778 5496 1849 5803 4665 5535 
2344 4402 5361 1059 1546 2181 4773 3519 1630 
862 695 2737 1065 4253 589 790 1986 335 
2142 2200 1881 3758 3163 4201 4445 2631 2123 
3189 281 1766 3666 4407 1767 4292 4521 3332 
5772 867 4848 673 5661 3145 5975 3960 253 
1302 2154 4418 3341 5392 5126 2288 759 3633 
4945 1062 5533 4777 1156 1846 830 1228 2963 
742 5429 4348 2749 971 4732 3786 633 2336 
5962 1897 5572 951 626 4717 4770 3176 6010 
1850 2998 3252 4544 3487 2016 4659 6027 3740 
911 4512 3856 1324 5306 2831 3646 2351 2492 
4559 4202 1073 2762 3817 1865 2141 2098 844 
5298 3194 2630 6068 1257 1920 4442 3913 823 
3720 2369 3467 3079 1538 4130 2365 6049 124 
5501 5278 2989 4482 4596 4606 1458 4927 1319 
5766 5100 1838 4252 5930 3184 5815 3798 1824 
913 2770 2437 3774 4683 3389 4633 1136 4800 
5077 1755 3752 5110 1479 3406 3790 1312 2307 
2138 5255 322 5654 195 3797 1822 1133 1981 
3401 877 3760 5144 5820 5566 5724 5871 1797 
3249 4117 907 483 2048 4309 1772 974 1017 
5971 4142 4241 4471 4541 3918 5247 5461 2579 
2862 56 5507 5860 1737 843 2765 4934 2147 
4991 190 1252 5997 3502 3858 3744 403 1137 
1833 5651 5027 61 2536 5338 611 1688 1283 
5048 2655 3434 2167 4098 1491 2507 3483 5609 
5701 3342 4161 965 5006 4704 3933 756 3276 
4465 4821 2183 3732 5597 3228 1750 593 4688 
5319 1039 263 1557 1453 2733 5244 3601 798 
2022 4238 5841 2248 5271 2948 2982 4021 3749 
660 5063 1936 3370 4772 2986 3442 2420 4592 
9 645 3956 4877 3397 4939 5000 2107 1650 
5439 4089 1258 1769 78 399 5334 4267 5933 
2197 2997 1253 5909 4047 1915 532 4841 4483 
5398 198 4601 4492 1900 1564 3455 5292 3618 
5565 4874 4703 3447 1023 213 1113 3675 5315 
1909 2419 2150 4531 4936 2070 5282 3058 4494 
327 5288 4705 5275 81 2050 2873 2616 676 
3499 1038 5733 4032 4961 4389 137 4968 5483 
5796 3374 1226 4350 92 4194 1315 4947 3388 
1634 1329 3887 465 5606 3950 1540 1485 1570 
4351 2559 2650 4393 1551 2837 4901 4893 2277 
5591 3489 3687 4783 2782 4358 4183 3871 4722 
771 482 3763 4552 2567 4856 264 2779 1744 
2781 4887 1293 3580 4206 4279 1265 2546 1160 
3927 3721 5419 5944 1891 2609 5200 4000 5158 
2075 1391 2794 2464 1274 3673 3285 6028 3351 
5816 3272 3147 710 1198 5836 2009 503 2756 
2759 1050 4941 5855 5373 2741 2478 5250 2495 
3418 3717 4746 4955 4156 5031 48 2502 3265 
1311 707 401 3186 3280 1413 1600 4100 29 
4364 4295 5492 631 3014 3199 2309 5230 3983 
1635 2191 1997 244 1385 3508 4819 5534 4076 
1942 1857 2533 5248 1764 1459 5676 4792 658 
5844 1400 4894 2969 1664 5162 4443 5211 4066 
1248 3599 3497 270 5669 4045 1651 4265 4461 
835 1672 5791 1985 1171 3338 1467 671 4493 
1111 2515 3937 1706 2864 2943 3745 648 3234 
2780 33 4325 1530 5291 148 775 1099 712 
2136 5557 2840 2216 1855 5322 3935 1935 872 
274 5339 562 2382 957 3897 3142 1348 891 
2272 584 2825 441 5641 691 2590 3737 981 
5051 3979 5383 486 2905 314 17 3513 2146 
4940 531 512 5600 4093 4992 3411 3539 6058 
5856 5062 5046 2552 4711 3792 937 4014 1567 
3043 1215 5763 5217 3976 5715 5693 4439 984 
1051 472 430 5903 511 460 6014 4619 1384 
6020 5311 5344 4752 4365 1422 4437 1956 3612 
4133 3559 1227 2422 3220 3994 1544 2039 2246 
4110 2836 479 1642 5947 2244 5955 5756 2411 
677 5099 3456 5178 4503 459 5499 3967 1908 
272 2992 2556 3548 5464 3561 1763 390 1175 
3968 1727 443 2537 5843 1531 1932 4653 1305 
5810 5941 5670 1778 4620 4063 3074 1768 5467 
3641 2192 2987 2923 726 879 517 4122 1469 
3420 5986 4956 2511 422 4404 2499 5146 4789 
3788 1167 144 5050 2588 163 776 99 5509 
4724 5468 3174 3151 5638 157 4889 5945 993 
200 1974 121 492 4330 4921 2894 763 1213 
3432 915 4453 5991 2771 1031 4030 4805 2575 
3196 2472 5721 4034 716 3188 4457 3003 4973 
3719 393 3560 1195 5176 3696 4898 5013 3398 
300 4763 5751 5169 5004 1230 5976 1210 4928 
2551 4287 421 882 5674 4582 3269 5447 3466 
4408 3200 4971 1687 2949 3590 3507 2444 4360 
5025 1701 5691 4916 2695 4644 4260 2918 3540 
4371 1601 3727 3157 4895 642 3503 2199 373 
3413 1164 1435 357 4435 3878 2466 572 3849 
4762 438 5748 3626 40 3533 4509 2045 3565 
1728 2198 4736 3952 436 2235 5513 267 5352 
4198 1533 5157 3464 2818 4547 4355 5636 2662 
5512 3504 3949 3454 5066 3268 2266 74 841 
1318 191 2062 451 2166 5698 5665 3435 4806 
3399 2716 2523 982 4108 3550 2823 233 571 
3785 4105 875 2453 2023 5173 4080 5029 4663 
5131 149 1742 5214 4140 2730 5472 1659 4761 
462 722 5996 1877 5120 150 556 1919 5805 
4698 4781 3105 1955 5623 2554 647 4765 537 
2220 934 2901 1749 5881 112 2275 4501 5245 
1474 6018 4050 1178 1465 5191 1452 2295 1949 
4628 1795 5807 3158 5356 1241 4624 489 1127 
5450 5842 2684 2221 3767 804 4413 2186 162 
3591 1813 1495 3779 2847 6055 4871 3623 3631 
3403 1879 5268 86 3671 1286 4739 535 4833 
4811 49 2991 4664 494 5716 5192 4484 232 
3319 1933 1393 5097 3314 3587 3134 2149 4159 
1555 2722 5454 64 5895 4448 1270 2953 439 
5281 3112 5106 3644 5142 4083 3472 250 928 
5028 1046 3448 1181 76 2025 4884 1862 133 
3008 4828 196 2634 1893 1118 2463 976 5826 
5093 4799 5504 3162 388 6033 3674 4086 5418 
2917 4603 2140 2578 4288 690 5368 3137 1976 
5075 2133 5073 1733 4343 2417 4993 918 2159 
4738 2807 5821 1086 4158 4298 4590 3213 3875 
3345 2346 1804 3923 177 1607 4176 5402 89 
1760 5294 3534 632 4019 3102 1103 3564 525 
1613 1957 90 2735 2011 4741 784 5473 4414 
2891 4638 1794 2148 185 464 5514 1529 3177 
598 5574 4780 1656 4875 515 3318 2751 1010 
3275 5159 587 4607 1332 1373 505 1161 4682 
3852 3363 2105 2871 2320 3416 2100 2946 1597 
6059 1009 3409 2714 3172 4397 5967 442 1045 
1204 2328 2815 568 5799 2324 1266 4608 4450 
2322 1331 3606 3224 1868 4878 4641 5743 1005 
2638 5846 3598 3722 5038 5922 3011 6 1800 
1157 979 4239 5037 3103 2357 683 2744 1660 
1801 488 4257 1886 1203 2562 1875 4104 3925 
5642 4191 4020 1131 175 4714 1094 938 4290 
4017 2450 4234 5129 2514 1765 4913 1159 6034 
3135 5754 4033 129 5107 5067 1475 1460 3482 
60 1892 2668 5290 5617 2799 2994 2870 2475 
5735 3159 2517 2976 2319 5879 474 2394 1592 
2160 5123 1568 4315 3336 3611 1775 2265 2291 
405 5270 2362 643 5541 2914 395 960 5313 
5607 2973 1189 2448 4756 1424 5782 1694 4500 
5640 1399 2763 1225 3751 627 5960 2084 114 
30 4630 259 4094 4248 2350 4215 871 4726 
3005 2838 2443 3577 2240 1466 5643 3742 4566 
3654 3518 1851 5228 4137 4618 4079 1972 2640 
3386 4317 1147 5740 1719 2521 4816 4767 4713 
2143 2122 739 1589 2671 32 3604 372 2195 
666 3787 1583 5016 4344 1117 2826 3607 251 
3320 1666 3771 5299 2335 337 290 3541 4532 
606 2426 1921 3140 5219 1519 4221 4144 80 
2385 5261 2593 3985 3971 1553 1064 3009 3942 
143 3964 3322 2079 1907 2561 4168 5880 3827 
1102 1996 1089 499 3759 107 3511 2482 2439 
3556 218 5163 2139 305 985 698 923 203 
1335 3298 4332 2968 2516 1 1346 5684 821 
4817 3872 5953 4180 5886 4612 5069 1532 1748 
2797 594 3053 5921 225 2692 4349 6032 361 
2824 3676 3160 4398 5026 5952 4943 2985 1034 
3080 2619 5911 2534 2259 5697 640 4025 2470 
2392 1712 792 1878 2447 1902 2693 3002 738 
1776 5502 216 4749 3124 440 3020 3505 2389 
5405 5470 5181 4681 2937 799 4700 3535 3227 
193 922 534 4577 5150 3873 2752 4285 2841 
3417 3688 352 3286 744 10 2675 1993 2111 
5091 967 3333 1285 171 5049 1049 34 3156 
1968 5094 2242 2187 1232 1802 1637 3833 18 
397 4188 5262 855 2598 5212 2612 4827 1044 
166 4845 5348 4015 3842 1053 350 1306 1430 
4983 2958 2315 4975 1224 1174 2531 2371 2455 
5293 4328 2665 3458 3153 696 4400 12 5443 
1245 5005 3358 1710 1148 2208 1636 734 5709 
4720 2458 5576 1721 1191 513 969 5237 4584 
5722 4363 6011 2911 2666 910 2471 5586 4266 
487 1791 2525 4906 2553 4313 3522 1834 4637 
5970 629 5635 4953 2194 5563 5942 3155 141 
2942 4250 2043 2766 5235 3244 97 359 518 
360 1325 1632 2024 735 1894 2569 4560 138 
3083 5532 774 3901 4623 2460 3840 4719 3501 
1625 5152 5391 2868 3004 1264 1937 3665 3845 
5778 294 3453 5877 5058 3197 828 2834 1707 
5671 3603 4412 4135 484 39 980 1379 4530 
2179 3823 3870 3895 4977 2691 219 3520 5462 
5208 1628 4411 558 5745 508 6009 3291 4614 
323 1289 5744 1550 1295 2849 806 4709 1562 
1129 5166 1408 1093 4581 2008 5521 4810 1456 
5365 2096 1420 3297 3980 4282 2566 4312 2669 
2896 4322 6051 2060 4460 2548 3712 4686 1623 
6008 5714 16 4497 5525 4340 504 1371 608 
204 1714 3748 3542 618 4345 954 4708 4296 
1316 5374 949 3277 3262 1890 3098 2383 6026 
3348 2233 3683 1255 5199 2817 2020 4051 4556 
4390 1646 2597 1873 2073 2279 1212 2170 825 
1945 705 4864 4473 1590 3877 1624 3864 2029 
2400 3460 5599 4518 1091 814 5907 2068 3195 
1774 3552 3978 172 3115 3634 1502 2586 5668 
3339 4853 2017 261 4511 5317 4367 5205 5929 
3708 1081 1516 4217 3691 4485 5520 5401 2035 
5420 3702 3769 2072 2895 5786 5864 1575 3024 
5861 4826 5190 4174 1292 2664 2120 340 3986 
2053 1146 3067 3628 5246 5366 3701 19 2528 
973 1246 637 2565 1350 4249 5225 4678 1439 
3093 3198 2800 5555 4456 458 495 1677 4693 
2013 5403 147 6031 5938 4113 5397 528 3113 
2028 3734 1190 235 4553 5795 3096 4346 4533 
3051 1779 549 1486 51 3109 394 4410 1339 
1596 3750 2547 1433 2314 5040 708 1640 1867 
4673 3512 1389 2135 4579 332 783 5124 2407 
3211 4395 4747 3282 2519 5382 1447 4434 130 
6037 273 4359 4593 4001 1392 1494 1122 3373 
127 2935 4039 1731 4138 3477 2944 1554 3082 
5187 1358 2728 3900 5571 4432 5913 1087 4757 
1429 1036 4149 4543 5482 31 2845 6023 5260 
2805 1100 2055 2721 4520 318 140 2449 682 
1365 5323 502 380 1715 1820 3433 4300 3764 
3450 139 5033 1745 5940 3828 4715 4952 2910 
3222 4320 4377 1288 1066 1405 1028 3143 1904 
2343 4488 3998 2292 897 1962 5761 1608 2539 
2522 602 3092 1606 3261 4335 452 1829 3514 
5434 964 3129 4291 135 1097 2402 925 887 
6019 1423 1026 1939 4092 1697 4243 3052 3663 
4899 4782 4487 1854 1876 6057 1341 3667 5486 
4949 765 1647 1378 3860 2881 5008 1741 182 
4528 2304 1063 2872 793 777 3095 2904 3171 
1256 5568 816 2931 2908 4429 1354 4890 720 
4154 2626 868 1074 1249 2809 1689 5538 4966 
3062 5134 5284 5346 5675 1098 1473 1457 5384 
1454 5002 567 356 4829 4314 2486 1437 2129 
617 4600 2814 1577 1193 4225 3045 4115 1510 
3356 2635 4274 25 5658 1581 3302 869 3167 
5628 2929 1067 5577 5012 5362 3457 2717 3469 
1523 2012 3970 4759 3340 4054 579 3299 4695 
1124 5039 3529 1984 4041 2104 381 733 4859 
5936 3430 2962 5984 5105 4629 3851 329 2101 
5022 3800 3485 5321 1736 624 1940 5645 2172 
522 431 5847 2995 4585 4784 780 1185 3620 
2015 1047 5330 5337 256 1297 595 4148 4169 
1037 2746 4454 1847 2493 3855 3963 1866 3572 
3557 2175 1301 5901 409 941 846 3496 1973 
5554 5885 4837 4818 1610 3579 919 4405 1463 
4167 4554 3168 5485 5704 3917 4106 3379 740 
2706 5139 614 5490 1144 5074 3776 2224 3452 
2788 4321 4232 1326 2808 1780 896 796 1415 
4836 427 2878 2816 1528 2580 4416 4588 1584 
5767 3347 3097 1068 2574 3941 4539 2518 1377 
924 3908 116 634 4613 5622 5477 4065 550 
2663 1163 3440 3982 3324 1060 1273 4475 4011 
1595 3372 4211 1569 1112 313 4431 3343 1735 
1395 2243 3753 837 3647 2130 1739 509 3040 
501 651 3795 4651 5189 2839 5156 6054 5729 
1662 2922 4569 2657 3175 5240 2892 4721 4670 
3088 319 2978 824 795 260 5604 4972 3898 
234 5567 4240 5685 2082 5536 1372 1832 3216 
5852 2713 326 5779 3888 5817 990 3905 28 
3063 5371 5347 1959 1359 3305 1070 755 2632 
931 4514 1898 543 334 3488 3526 4728 3630 
5973 2308 2391 1436 5794 1498 4058 2431 2212 
1237 3431 1970 1661 3284 5837 5632 3444 3289 
1375 3881 1536 3050 749 4944 3892 2106 3247 
4834 2456 6052 4965 5489 3170 3203 5739 5394 
5884 4823 5045 4308 5019 664 2271 1401 723 
5800 383 4474 1149 3838 4825 4157 2477 2629 
3645 3861 2648 704 55 4815 1653 5453 3527 
4353 3081 1132 2599 5814 3818 573 5226 1644 
2697 2513 4013 3090 371 5580 108 3643 3380 
5890 2618 2213 5064 4297 346 1654 3602 2964 
4235 1668 4642 4401 2857 5411 6038 5961 3473 
552 13 3669 2879 970 4891 3480 3270 6036 
4858 444 2884 1627 1738 5295 297 3807 5894 
1434 4251 4361 5481 1641 1580 3521 772 2607 
3294 5543 87 3562 5184 4609 413 5575 349 
5433 5750 4802 1705 5869 2490 4178 1349 5357 
4143 4028 5216 2375 3538 622 1218 4610 4182 
4954 6015 4119 1263 5032 1199 104 4684 5537 
5544 1792 5943 854 5621 1611 347 3597 2909 
5478 3248 580 2812 5682 2330 2287 2860 1387 
2065 811 5320 2102 4982 3369 341 4873 1338 
5562 485 285 6043 3030 4672 2034 4963 1818 
184 5367 1983 6039 1560 1096 576 1233 3325 
72 96 4551 3893 5252 663 3100 1828 239 
1369 3182 2659 1303 3437 1247 5259 565 4862 
167 1022 2162 2738 5224 3746 5777 3474 3301 
434 3955 4374 1115 2899 5422 4958 5949 5546 
1352 2789 1095 63 3256 3366 1029 3486 5186 
1888 4026 5548 4753 363 5980 2387 5188 1508 
5736 4694 2438 5084 1848 3613 5303 4788 944 
3891 1614 6064 4272 4689 2581 3586 2487 4627 
1782 2628 2810 4271 1239 554 1019 4742 4797 
4379 5870 4831 5 4976 1732 592 1773 539 
227 2855 5749 3204 4259 1109 2898 4141 3087 
4199 5117 2236 2709 1499 570 229 1620 3001 
4863 4734 3360 5343 1284 2115 4196 5934 2927 
5726 2155 4338 2229 2225 1929 1398 1814 4049 
1975 3555 106 2867 4699 4088 1676 5644 5653 
878 2921 4163 4177 2409 5227 153 947 3214 
3945 3929 3089 448 1520 4568 5583 4486 3656 
865 5558 2897 5459 3574 1565 4496 5850 433 
3077 4103 2859 1713 4809 607 4591 3839 5689 
3990 5925 1831 242 5519 437 2888 4716 5296 
5608 621 3068 2245 1922 553 4960 555 4580 
3258 1402 3754 986 5793 1734 406 1368 526 
2188 5047 2251 616 5983 2281 4622 1860 197 
5648 1153 2374 2300 2480 1585 301 1684 2047 
3629 5969 3121 1507 4660 4237 1001 3125 520 
4842 2092 3039 11 2354 4656 4008 2920 392 
1573 4478 4166 4333 1155 2954 1582 577 2077 
1951 4124 6003 176 1809 5355 3288 5055 2436 
2774 4918 5835 1789 1294 3836 5379 3428 2793 
2041 2571 3576 2591 5130 5874 3071 293 480 
3257 4294 812 3042 3962 3639 6017 5672 1492 
5620 5380 4562 5114 5703 2819 2885 4969 3658 
1084 1926 4023 111 309 2152 299 693 6050 
5036 2510 3679 5719 396 5491 5819 737 5305 
6042 4046 1461 3848 414 5172 4775 3212 211 
2708 2792 2321 3236 3350 4301 1033 5341 4426 
2633 1977 5732 5309 1730 3805 2290 128 5435 
711 2874 5307 173 1216 5806 2951 27 5310 
670 3185 3706 4535 46 2401 4882 4937 2851 
5910 540 435 2364 3293 1619 1578 6000 838 
1910 5560 118 6005 770 1309 5776 4866 4299 