# vtk DataFile Version 4.2
Generated by LIGGGHTS
ASCII
DATASET POLYDATA
POINTS 5997 float
-0.0162789 -0.0169837 0.00599927 -0.0135666 -0.0196225 0.00599825 -0.0138655 -0.017081 0.00600071 
-0.0151563 -0.0185438 0.00654314 -0.0117152 -0.0203698 0.00599868 -0.0120044 -0.0183974 0.00626662 
-0.0103301 -0.0172053 0.00630128 -0.00936504 -0.0219177 0.00610204 -0.00953959 -0.0190502 0.00601459 
-0.00743252 -0.0224989 0.00608751 -0.00445139 -0.0234374 0.00601114 -0.00362537 -0.0193781 0.00600471 
-0.00167103 -0.0201875 0.00602052 -0.00541648 -0.0212594 0.00600556 -0.00558943 -0.0184985 0.00599863 
-0.000877498 -0.0172884 0.00604486 -0.00138198 -0.0222163 0.00599932 -0.002884 -0.0174981 0.00601097 
-0.00732584 -0.0203551 0.00600249 -0.00763287 -0.0183551 0.00609901 -0.00340001 -0.0217488 0.00649784 
-0.00849725 -0.016434 0.00600362 -9.66453e-05 -0.0238505 0.00601493 0.000982222 -0.0180921 0.00599639 
0.00315616 -0.0216413 0.0060024 0.00554576 -0.0188396 0.0060859 0.00511621 -0.0212653 0.00601094 
0.00439783 -0.0172056 0.00600949 0.000626496 -0.0218364 0.0060277 0.00757007 -0.018585 0.00601043 
0.00633047 -0.0229974 0.00603297 0.00146935 -0.0200296 0.00599805 0.00355012 -0.0190846 0.00599618 
0.00207771 -0.0235953 0.00602953 0.00435579 -0.0234382 0.00603741 0.00714125 -0.0207092 0.00614961 
0.00739517 -0.0165826 0.00603091 0.00845631 -0.0223733 0.00599834 0.0122693 -0.0204596 0.00624987 
0.0161278 -0.0176223 0.00602301 0.011775 -0.0170693 0.00599867 0.00945677 -0.0176172 0.00600305 
0.0103943 -0.021385 0.00600131 0.014594 -0.0189864 0.00600629 0.0109313 -0.0189727 0.00600738 
0.0139344 -0.017041 0.00600591 0.00904832 -0.0198744 0.00664153 0.0175605 -0.0161488 0.00685101 
-0.0182581 -0.0154077 0.00599846 -0.0195518 -0.0137752 0.00599876 -0.0203659 -0.0118381 0.0059985 
-0.0183278 -0.0116543 0.00599957 -0.0216338 -0.0102922 0.00600667 -0.0194802 -0.0100192 0.00601006 
-0.0182357 -0.00845313 0.00599846 -0.0207827 -0.00843079 0.00600432 -0.0226536 -0.00765626 0.0059977 
-0.0175767 -0.0135093 0.00612902 -0.0162589 -0.0150074 0.00631478 -0.011729 -0.0127984 0.00599896 
-0.0156813 -0.012896 0.00599663 -0.0142847 -0.0150015 0.00599942 -0.0136997 -0.0130952 0.00611959 
-0.0122874 -0.0147262 0.00599873 -0.0101108 -0.0134826 0.00695324 -0.0108252 -0.011016 0.00599975 
-0.0142707 -0.0110252 0.00600079 -0.0125326 -0.0081204 0.00599868 -0.0162835 -0.0109923 0.00599985 
-0.010352 -0.0152264 0.00600422 -0.0163119 -0.00898704 0.00599726 -0.0145298 -0.00808535 0.00600341 
-0.0125625 -0.0100778 0.00641128 -0.0107591 -0.0090248 0.00616182 -0.00898756 -0.0118039 0.00600983 
-0.00881359 -0.00944958 0.00600269 -0.00837652 -0.0137674 0.0059995 -0.00235221 -0.0135312 0.00600103 
-0.00723023 -0.00807521 0.00600693 -0.00589765 -0.0102537 0.00601496 -0.00676406 -0.0121219 0.00599507 
-0.00117247 -0.0119186 0.00601075 -0.00196879 -0.0154942 0.00599817 -0.00380291 -0.00945773 0.00612902 
-0.00354247 -0.0115062 0.00603659 -0.00188777 -0.0100374 0.00603723 -0.000570552 -0.00850339 0.00631035 
-0.00034261 -0.0143034 0.00610863 0.000743291 -0.01601 0.00600567 0.000725349 -0.0125677 0.00600824 
0.00382755 -0.014252 0.00599963 0.00208809 -0.0106649 0.00599971 0.00614551 -0.0114281 0.00599929 
0.0028545 -0.0125082 0.0061089 0.00826066 -0.0125953 0.00599816 0.00409228 -0.0106959 0.0060054 
0.0053822 -0.00898935 0.00603994 0.00549907 -0.0153582 0.00599916 0.00567306 -0.0133685 0.00600227 
0.000105782 -0.0103686 0.00599899 0.00741441 -0.0145523 0.00615132 0.0028121 -0.0159829 0.00604285 
0.00182585 -0.0142361 0.00599569 0.00747613 -0.00939996 0.00607461 0.010727 -0.012024 0.00601769 
0.0092901 -0.0105989 0.00599842 0.0131315 -0.010449 0.00599798 0.0111169 -0.00978363 0.00599439 
0.0124871 -0.00826042 0.00599985 0.0157089 -0.0128209 0.00600499 0.0155929 -0.0155386 0.00601155 
0.0150743 -0.010923 0.00599849 0.013717 -0.0124012 0.00606415 0.00930773 -0.00859061 0.00600089 
0.0145403 -0.00856247 0.00599877 0.0091104 -0.0157824 0.00677303 0.0134372 -0.0150804 0.00603823 
0.0112772 -0.0152614 0.00670604 0.00977888 -0.0139425 0.00614905 0.0121039 -0.0135814 0.00600038 
0.0165384 -0.00859553 0.00637366 0.0171966 -0.014318 0.00605841 0.01705 -0.0105044 0.00604961 
0.0191989 -0.010923 0.00603684 0.0212001 -0.0111552 0.00600339 0.0204591 -0.00929595 0.00600099 
0.0199788 -0.0128193 0.00624783 0.0178315 -0.0124181 0.00600346 0.0184499 -0.00914573 0.00659463 
0.0223133 -0.00852783 0.00599789 -0.0180328 -0.000790126 0.00600185 -0.0212231 -0.00617034 0.00600408 
-0.0231685 -0.00572625 0.00599912 -0.0181222 -0.00557776 0.006008 -0.0198983 -0.00465513 0.00600195 
-0.0236034 -0.00335335 0.00600943 -0.0211951 -0.00249743 0.00599761 -0.0192007 -0.00240986 0.00599752 
-0.0229053 -0.00141851 0.00601585 -0.0206615 -0.000580854 0.005998 -0.0194656 -0.0069679 0.00650627 
-0.0218302 -0.00432472 0.00646308 -0.0238549 0.000654441 0.00600362 -0.00940705 -0.00768243 0.00676049 
-0.0167711 -0.00233762 0.00599844 -0.016761 -0.00704054 0.00600126 -0.0165671 -0.00432392 0.00599877 
-0.0115746 -0.0045371 0.00599743 -0.00868891 -0.0031494 0.00599891 -0.011031 -0.00680208 0.00599941 
-0.0134458 -0.00383634 0.00601311 -0.0130795 -0.00585241 0.00600825 -0.00961354 -0.00492171 0.00604744 
-0.0147731 -0.00234046 0.00599879 -0.00909973 -0.00111423 0.0059983 -0.0127709 -5.46703e-05 0.00599876 
-0.0150737 -0.00593693 0.00607212 -0.0105884 -0.00289525 0.00656472 -0.0122971 -0.00199637 0.00604674 
-0.0145356 -0.000528814 0.00680154 -0.00269655 -0.00768196 0.00599934 -0.00520266 -0.00803342 0.00599928 
-0.00817071 -0.00631197 0.00599835 -0.00337225 -0.0038675 0.00599906 -0.00229661 -0.00555909 0.00600045 
-0.000682434 -0.00437038 0.00599966 -0.00439766 -0.00228532 0.00665838 -0.00620139 -0.00283638 0.00599903 
-0.00715431 -0.00459296 0.00599909 -0.000528228 -0.0065269 0.00599908 -0.00603854 -0.000841635 0.00601786 
-0.000926275 -0.000943752 0.00599943 -0.00428745 0.00015653 0.00599855 -0.00619427 -0.00632267 0.00633249 
-0.00421677 -0.00614461 0.00602337 -0.00176693 -0.00273096 0.00634877 -0.00522755 -0.00447999 0.00660267 
-0.0028234 -0.00105725 0.00660936 0.000214466 -0.00258412 0.00601903 0.00108227 -0.00530202 0.00599194 
0.00676194 -0.00752889 0.0060309 0.00619215 -0.00453325 0.00599645 0.00198013 -0.00351858 0.0059987 
0.00814343 -0.00396893 0.00599843 0.00339631 -0.00492574 0.00599617 0.00810657 -0.00196889 0.00599867 
0.00425997 -0.00313185 0.00608505 0.00520198 -0.0062681 0.00600264 0.00284886 -0.00172277 0.00599814 
0.00469365 -0.00101152 0.00628029 0.0010894 -0.000776865 0.00600596 0.00663375 -0.000622286 0.00600133 
0.00616398 -0.00254893 0.00622747 0.00312625 0.000253075 0.00599907 0.00763582 -0.00580862 0.00659197 
0.00938891 -0.00657606 0.00600019 0.0101299 -0.00472106 0.00599693 0.0151922 -0.00199137 0.00599882 
0.0093832 -0.000377963 0.0060094 0.0141405 -0.000199812 0.00599893 0.0114167 -0.0065025 0.00602761 
0.0157994 -0.00394247 0.00600225 0.00994681 -0.00273626 0.00609612 0.0118405 -0.00339529 0.00600043 
0.0112771 -0.00124966 0.00599896 0.0135979 -0.0065675 0.00600287 0.0155939 -0.00686672 0.00599812 
0.0125573 -0.00506049 0.00685193 0.0138085 -0.00375688 0.00599645 0.0131406 -0.0019015 0.00628641 
0.0231116 -0.0062986 0.00603352 0.0201376 -0.00101397 0.00599759 0.017035 -0.000697273 0.00599948 
0.0187136 0.000387956 0.00599873 0.017904 -0.00459965 0.00599841 0.0215379 -0.00468177 0.00600096 
0.0235053 -0.0043409 0.00599867 0.0202112 -0.00308405 0.00600024 0.0173425 -0.00267294 0.00600545 
0.0221074 -0.00134794 0.00599946 0.0238559 -0.00037974 0.00600105 0.0221763 0.000695303 0.00605326 
0.0211981 -0.00686433 0.00599763 0.0179788 -0.00700029 0.0062832 0.0195322 -0.00575929 0.00600216 
0.0238547 -0.0023758 0.00599975 -0.0192429 0.000669239 0.00662562 -0.0198818 0.00453009 0.00601027 
-0.0193151 0.0068992 0.00599847 -0.0210019 0.00138276 0.00599729 -0.0179478 0.00396187 0.00600325 
-0.0193866 0.00257247 0.00600178 -0.0216334 0.00327262 0.0060133 -0.0176844 0.0058734 0.00653361 
-0.023243 0.00535926 0.00601036 -0.0213027 0.00597046 0.00600457 -0.023812 0.00265226 0.00601848 
-0.0174146 0.00122949 0.0060634 -0.0227976 0.00731803 0.00605627 -0.0209951 0.00774975 0.00684953 
-0.01769 0.00828466 0.00599725 -0.010163 0.000769928 0.00606596 -0.0160296 0.00483832 0.00601545 
-0.0153917 0.00107934 0.00599769 -0.00919384 0.00255794 0.00599996 -0.0120338 0.00180046 0.00601105 
-0.0142811 0.00317512 0.005999 -0.0162752 0.00286397 0.00599742 -0.010979 0.00349502 0.00599769 
-0.0121824 0.00528204 0.0059984 -0.0141736 0.00561207 0.00600045 -0.0099643 0.00649803 0.00599642 
-0.00923841 0.00455934 0.00599938 -0.0159472 0.00682101 0.00617975 -0.0118476 0.00724838 0.00599805 
-0.0141183 0.00762319 0.00601591 -0.00891885 0.00819717 0.00599768 -0.00793574 0.000509786 0.00599929 
-0.00225024 0.00333563 0.00599858 -0.00410403 0.00407637 0.00599691 -0.00564522 0.00540334 0.0060003 
-0.00374948 0.00603838 0.00599816 -0.000408862 0.00447164 0.00599835 -0.00604318 0.00172094 0.00605198 
-0.00735008 0.00354896 0.00599849 -0.00382691 0.00210018 0.00599952 -0.00763111 0.00575756 0.00600262 
-0.00147971 0.00691222 0.00600233 -0.00699765 0.00765331 0.00599995 -0.00311466 0.0080793 0.00599877 
-0.00232849 0.000779204 0.00599961 -0.00211518 0.0051773 0.00675509 -0.00518174 0.00722892 0.0067122 
0.000983608 0.00728055 0.00599928 0.000588151 0.00274313 0.0059963 0.00376699 0.00214344 0.00599759 
0.00530852 0.000874149 0.00600384 0.00738709 0.00122523 0.00599827 0.00586067 0.00281473 0.00599899 
0.00646716 0.00473144 0.00600077 0.00504 0.00615151 0.00599887 0.00140245 0.00532456 0.0059996 
0.0081077 0.00308564 0.00599718 0.00687201 0.00694646 0.0060028 0.00297458 0.00742571 0.00599962 
-6.02404e-05 0.000855836 0.00600582 0.00430522 0.00407888 0.00600585 0.00328533 0.00561893 0.00678955 
0.00518641 0.008149 0.00601869 0.00235531 0.00339711 0.00664496 0.0111056 0.000738799 0.00599789 
0.00857425 0.00502672 0.00599962 0.0088669 0.00700017 0.00608399 0.0149824 0.00160798 0.0059982 
[...]
POINT_DATA 5997
FIELD FieldData 7
id 1 5997 int
808 2364 4851 5716 5685 1384 4193 105 884 
4058 1522 2477 2115 1110 4050 3501 2597 1480 
2090 940 3234 4765 5792 2035 5132 3555 1597 
5187 2329 984 4698 5923 11 883 1451 5226 
148 601 1749 5155 3168 2917 4588 2609 116 
3328 479 4175 464 843 4231 5789 2728 5605 
4984 5206 1376 637 3455 701 1303 5781 4763 
2689 1494 4393 4480 2495 1686 3608 5893 2652 
4579 3427 2285 80 3221 1532 835 258 2178 
1114 2561 5784 2044 4061 1536 3139 3357 13 
5444 4496 1498 5691 3702 3642 4575 3536 3814 
584 4369 349 1680 5738 4702 864 2142 1692 
2981 4783 3937 8 1244 1981 1438 1319 580 
726 1729 944 2690 5326 2518 5334 1834 2124 
1772 2120 1594 4063 1843 2226 1021 5348 1731 
4247 4846 5356 5292 5526 56 2627 2663 938 
708 1984 816 3211 4168 5075 4799 1237 5616 
1078 3103 473 4003 593 705 3420 5087 2794 
2543 4894 383 1008 2059 4718 430 469 4284 
5280 2994 5632 4987 4314 3179 101 142 4970 
732 757 5574 5788 4917 5688 5668 2323 5650 
2017 690 1559 381 1107 5440 1853 4286 2551 
5273 4581 1926 4705 2259 1449 4492 4101 3231 
5464 1202 1041 1489 5846 2137 5676 2573 5283 
1506 4059 3149 3280 4263 2861 5925 5147 1816 
1770 1433 5971 1161 452 5323 4942 5570 2025 
6050 2511 3373 1461 4878 1360 2148 3397 3966 
853 969 970 5468 5088 1389 5948 3405 4102 
402 5982 2587 2029 2949 4529 6023 1632 1552 
5602 2168 1429 5453 2529 5466 1709 2691 2827 
2572 5245 325 897 3685 4160 482 3055 3207 
3785 5557 3806 4025 5406 4165 3693 4078 3496 
4591 704 1708 2322 5082 629 750 5699 316 
3625 4828 3519 446 3713 1369 1878 5156 4153 
1375 4915 1915 2411 889 2308 122 1193 2700 
1203 1075 5339 602 2789 2205 1149 2773 1226 
2107 3938 307 3087 1866 5607 334 5809 849 
3575 1268 4700 194 328 3795 5606 2395 435 
4159 4788 1293 2131 3362 3549 4666 3956 531 
3567 5550 2968 319 5489 1748 755 1778 2634 
2452 2950 1622 4387 4405 4022 2536 150 1321 
5351 5171 2460 323 4230 3815 1140 747 3753 
5385 3210 3878 4534 3097 2215 5869 3477 284 
4005 2888 962 1428 1788 4222 3042 712 818 
2939 4105 2012 4775 1352 5204 1028 371 4972 
2110 908 4011 2007 161 688 4042 4569 1979 
3389 2054 4209 1767 229 5249 6003 4653 4527 
5054 1898 4169 1889 445 4564 1182 491 5007 
5366 379 779 2390 2947 2101 90 1211 4427 
5805 2858 563 407 1307 669 151 739 1241 
1764 961 2092 2006 3582 5619 2562 2030 5246 
2557 5238 291 1470 5482 1016 2618 996 3346 
2173 3259 2717 5521 1810 6017 5395 425 2112 
713 4932 5855 2344 2876 4113 213 5341 1757 
4786 4046 3720 2846 145 4709 4909 2914 2805 
4634 5067 5930 4756 2468 2569 4806 2116 614 
3531 1064 3032 265 5766 3790 3297 5540 38 
1022 2743 5630 3183 5180 3641 6041 2966 4407 
1841 3880 279 684 2072 4516 3130 3142 456 
2830 1904 4949 40 4990 2359 4295 1687 4020 
4934 3007 3092 5327 5518 4470 1054 599 1163 
2158 3735 4152 2159 5029 3970 4704 5219 4026 
287 4428 520 1058 1682 5089 6056 1771 2421 
295 2075 1828 922 3070 2184 346 1119 4748 
5729 3323 3319 5456 4241 902 5140 5059 5494 
3051 6032 1444 4311 5400 3181 4249 198 4164 
2635 3664 5259 1733 625 4225 217 471 2043 
1074 4174 4759 5342 4383 5213 4366 872 5330 
3600 5394 4040 2506 2784 5384 1224 4722 1221 
437 4515 5120 2601 2744 2795 1150 1706 4002 
5321 5072 1766 5239 5724 2566 3660 5106 4017 
1404 1123 1372 6024 3647 2519 3370 791 5216 
1026 3200 686 3551 5848 419 5435 5164 693 
220 3844 5836 1213 3773 841 4167 3709 5157 
5149 4254 4348 2243 3630 1586 1678 4553 988 
3651 985 2412 3046 1138 2399 2659 5927 5552 
4215 3677 915 5786 4968 2821 2319 3391 4876 
1840 5263 3721 5211 2099 1253 5393 3780 5365 
1576 4946 288 4329 1154 1279 5073 5019 4795 
129 2374 2297 2114 3217 3927 2480 2975 2770 
5447 2346 2037 2643 1901 746 3108 3805 5778 
3283 2212 5857 5271 5153 5536 1669 4493 5689 
805 4707 4079 5143 3077 2516 3298 1732 1201 
3232 652 630 2393 2898 5044 1368 3930 1613 
1282 1500 2509 5703 1817 1676 3457 2171 4346 
5179 4891 5863 972 2425 5242 1247 3100 4895 
1722 535 2599 700 2579 5090 3614 113 4462 
5178 5621 3353 5725 5091 5537 2493 1118 3964 
3293 3071 1628 5620 3792 1824 3109 2449 1169 
1661 4767 4693 767 4391 586 5591 1971 417 
1703 1136 1949 555 4084 4921 5142 2349 1546 
680 1675 3235 3669 2894 162 3241 259 4947 
5295 68 3435 2154 6029 1458 450 1704 28 
1299 3852 134 4852 4550 5824 3460 1254 4203 
4542 1947 4308 5277 492 4957 1975 5659 205 
5172 193 538 1005 4157 778 3171 754 5834 
2593 2768 508 4418 504 405 4804 5199 2674 
2577 773 4711 5851 3260 3833 2580 2855 5504 
2544 536 1905 2685 2001 1837 3957 1654 4716 
4114 507 4232 377 1322 1775 863 1091 1653 
3014 4201 3060 2266 6009 4143 3265 2542 5500 
4351 4491 5990 1043 953 3894 4090 3750 1382 
5569 2980 5045 5604 3255 1302 2513 5559 1249 
5866 1131 3294 4999 1969 5704 5785 4292 2590 
4951 917 5248 2899 5215 4404 1183 2157 3566 
2379 2603 5136 3571 3185 455 5423 5700 858 
956 3751 4819 4892 3423 2687 5878 3010 5740 
3554 3960 1210 1179 155 3553 1109 3131 1020 
3065 2350 149 1835 3356 4086 1096 5252 4903 
5929 5633 4349 2439 2355 5772 5507 5818 1672 
2843 4900 132 2126 5770 4317 201 5002 4468 
262 1188 4502 1484 745 1754 2547 5906 2903 
3978 2462 4952 191 5780 5228 4684 3991 3986 
1359 2193 3468 1112 5912 4925 2145 2959 4945 
3188 357 639 1805 4814 4293 1781 61 2729 
2476 2230 5317 1256 3169 1996 3111 3980 1827 
5850 5094 5556 3545 4571 2767 548 2650 4200 
959 3240 955 3073 4414 1659 3064 1260 3829 
1476 4983 4841 3462 5474 4859 4273 424 3287 
4757 5337 740 5458 3416 3400 3569 106 1178 
4631 4714 3967 2102 2002 3807 5613 5961 761 
5779 5513 731 993 4717 243 574 179 127 
4614 1814 2972 2644 4494 5658 1430 5375 4823 
2755 4568 3598 3944 18 5984 5954 5638 517 
2882 4361 2877 5935 918 5877 2487 3972 1421 
2433 1846 4809 1399 1862 4256 1758 2198 3443 
3690 1257 2325 4678 2179 530 3524 861 3931 
1417 4610 4603 1220 4130 1973 1340 5527 550 
4237 5431 4794 5609 5048 5974 1095 4608 322 
1251 5505 3577 4628 4185 2806 3777 5256 3308 
5502 5706 1187 1236 3488 1962 2815 4829 3445 
5592 5811 63 2326 4675 4228 2385 3561 3734 
1744 717 4219 3249 6067 2656 5533 2757 1056 
4953 1275 3786 4701 3486 5359 4278 1881 5957 
2281 5182 2225 5511 3479 5441 1126 1229 721 
3971 1665 1407 4720 2874 945 5300 5251 1080 
1958 1724 728 2774 543 1285 2660 4372 390 
2388 4145 5098 4118 5034 5410 3845 3454 1793 
440 4977 1518 974 5110 1304 5771 2857 1325 
3193 3655 2019 2398 3529 3144 2746 3263 5871 
3126 3514 5535 646 1132 3738 5040 4117 1541 
4104 74 4618 118 250 1400 1917 1230 2327 
1139 4816 3018 4661 5702 2199 1371 1362 4815 
1746 2246 1436 2484 3089 3439 2219 2998 4562 
2076 4609 1642 4410 2402 1426 3636 3746 3887 
5515 509 2443 4694 3541 2284 3197 1328 4288 
4616 3303 3954 4299 5061 2396 3224 911 4142 
2248 3544 1142 4964 3327 4484 1533 2334 5934 
3935 384 2177 3040 966 537 2499 4842 3827 
2632 1538 1696 2026 3684 5217 4512 4483 2776 
1848 1398 1409 2286 636 4624 4135 5825 4271 
1872 3030 1582 2900 5278 3446 660 3962 5949 
1298 3879 4766 5046 3850 1569 4074 3228 2232 
2848 1851 3951 2333 2098 5873 2024 2050 2312 
5053 3534 3325 39 2430 3381 3320 2496 16 
4479 1823 2808 1034 5461 3933 1650 1050 834 
813 4303 2321 3675 5193 3372 4798 4082 516 
2916 809 3922 4379 4119 3063 2533 1175 752 
4172 4180 2863 595 4594 1786 4623 2061 2365 
1568 3114 2141 4583 1411 2629 2606 1286 5760 
5336 5457 3506 2491 3727 1952 5389 12 4645 
4998 4194 4134 5036 5890 5227 3246 2624 3581 
3594 5987 1153 1381 2434 2069 2970 5742 4943 
5030 3943 1442 1959 4413 1564 3033 2907 4197 
3820 968 4019 792 3132 3302 2287 2549 234 
5847 3165 4826 2122 4839 562 1658 2216 4081 
1983 2428 2191 4139 2822 177 5042 1232 965 
2485 1511 2678 5092 4960 5062 5433 6034 2176 
4411 3592 4849 3635 1611 1079 3698 30 3779 
1413 3038 3292 5010 2062 3995 592 5551 1855 
5070 1657 1743 5967 5031 642 3354 6058 2756 
2372 691 4914 3658 4357 5111 1238 621 4095 
5315 3645 3307 3289 2956 5237 104 434 3393 
4691 3968 6052 3666 787 4681 5979 2928 374 
1373 821 3430 1936 1147 4239 627 5915 4898 
1177 2292 2362 5598 1039 1545 5672 3390 3648 
1882 4250 1583 1836 4380 1895 4057 4443 1141 
2279 2682 5369 954 3804 3900 4880 1062 494 
2751 1439 4843 5651 5938 981 1777 5815 2505 
1577 470 1539 108 2009 776 3336 2162 1416 
1715 1540 57 4754 556 4331 3309 1524 4559 
1664 4589 3472 2063 4511 2747 1939 3699 5405 
5151 4098 1955 1397 3989 5028 1219 2838 3781 
2032 1235 3414 2602 5158 1435 1434 5409 2324 
154 1113 2418 2020 1589 2283 4322 4459 3264 
4500 5004 5064 2931 1830 1874 1196 2662 6008 
206 5889 567 3490 5806 2180 3113 748 3663 
1825 3620 1365 1812 267 836 221 5972 1957 
3094 2240 293 606 2856 5951 1037 1496 5448 
1189 540 4552 4549 619 4996 5795 971 3428 
763 1305 4202 5922 3679 3093 55 3343 4018 
1281 3607 3606 203 4499 1972 4257 1208 5718 
2422 4147 1469 3106 2904 4309 3896 3406 4280 
2504 848 4069 2935 1549 2221 4676 4339 583 
1157 1348 4546 1995 29 4184 5973 493 3452 
558 4870 990 2220 4398 2207 3447 5880 5390 
5674 2038 4141 3587 946 5207 5736 4234 423 
277 3784 4604 1791 2166 3990 804 1427 3326 
4464 3049 1769 1422 2335 5626 3932 3344 4412 
3266 2368 3258 3583 1768 5796 2892 2125 41 
5192 1288 5733 3056 4708 5274 1011 2194 2684 
1988 4824 5726 210 5473 5113 4680 3513 2636 
1173 1025 4065 3716 3438 3023 4939 2999 3745 
2314 4531 807 3771 5000 2957 4746 3560 5177 
3706 225 2550 3244 2782 1076 2236 3223 2027 
2209 4632 4041 1338 5291 3719 5837 3441 1097 
1023 877 222 3762 5947 2483 3508 5503 1012 
2185 119 3186 3688 2377 5258 4771 771 2764 
5478 4528 1448 1294 436 3024 4971 3434 2479 
2280 3163 382 4663 5649 768 2640 2435 5944 
190 460 5986 1084 4226 2055 5362 525 5767 
3392 3897 2382 5398 420 4129 360 5071 3988 
810 6040 2619 123 4023 4922 22 2908 1248 
5610 1029 5381 4904 5900 3934 1492 5250 3834 
1886 905 4734 1903 2192 2739 83 5769 3379 
2475 2886 480 1626 5367 400 628 4052 1932 
1385 2984 4188 128 268 96 552 5622 1024 
4560 635 3276 1537 2615 631 4436 5221 3599 
2056 4954 2503 799 1515 2210 3377 741 4122 
4191 1701 5791 2816 1860 2488 4537 999 5849 
231 1785 4882 1467 2117 575 3924 4787 4265 
2277 2269 4068 2375 1258 3261 2245 4449 2614 
4730 4646 5443 4176 5308 1 2897 907 2472 
4743 3156 4403 5996 764 711 1370 5027 3819 
483 3674 5017 1490 5752 1838 2849 5775 4319 
2724 3090 2633 364 4654 5189 1662 1051 3274 
308 1759 2704 3872 3022 351 4592 2104 4454 
1395 4973 2812 4430 1483 4692 1152 2847 3203 
2068 1055 3382 5813 2431 4673 347 3653 359 
1088 546 2807 5581 5835 4656 5941 523 3401 
1887 1313 2865 2973 3313 4173 1159 4847 934 
4223 3383 5517 2066 5654 1443 1047 140 4860 
4269 1412 806 4121 1610 5573 5682 1128 1645 
2832 5112 1104 5680 1561 827 671 1061 1184 
5803 1753 1897 4015 5063 903 3797 832 607 
1567 5285 5154 1806 3175 451 5497 2531 590 
5665 1574 1042 2051 3791 2809 3610 5737 783 
978 579 341 5510 766 3485 304 1900 772 
1963 1167 278 3639 502 4450 2781 196 796 
386 361 1789 5125 4580 4437 597 5580 4204 
2686 5236 1015 2118 3570 3078 5960 2311 3643 
694 1635 2206 900 5600 2558 5582 320 5412 
2976 4830 5195 5446 5181 1493 632 3591 1383 
5451 4377 3895 4937 3787 2414 5663 2978 1060 
3644 4106 3665 2088 2524 3941 5677 4395 3461 
5712 58 784 76 477 2658 4649 3194 5372 
3511 1723 168 3214 3728 5333 1206 5022 4359 
5225 4313 4738 2883 2661 321 4802 638 5038 
1052 4936 5692 4929 3754 189 2923 2058 3143 
3161 2252 3574 4642 2718 4115 2683 366 5186 
3714 1265 236 53 244 707 1530 4896 3021 
1312 699 3219 1071 2133 2300 223 4836 5548 
4362 6025 5945 2591 1001 6028 1861 4419 5286 
182 2351 1318 1462 3602 5555 3154 4776 1405 
2260 306 2651 5697 2354 3540 165 4605 3889 
4820 505 3596 4282 6021 75 1514 51 894 
1240 5201 1655 3191 4235 2833 3632 1059 4473 
3694 3874 2397 4905 3057 5150 4290 1361 4558 
387 5428 3886 4600 1082 215 1378 5799 5015 
6010 312 5418 3229 4956 138 59 5908 3873 
2716 4306 4509 4587 458 5603 4097 2835 2040 
2419 1085 3770 1478 5566 2653 5340 2045 5127 
1557 4375 5909 1534 1314 4916 801 3080 1525 
3565 2727 4557 4010 947 3661 5047 5843 5844 
2203 3548 2303 4593 4388 4879 4103 1773 643 
4778 2014 4868 4724 3547 4899 3268 3911 4367 
3883 1077 2742 5623 4312 5023 2011 898 1960 
4540 2330 3556 4252 3067 1509 4465 891 1730 
2309 4008 4582 2417 3526 4045 5943 2714 3202 
4974 3502 1648 3533 37 1455 3733 4660 4001 
941 3159 3586 2836 2933 604 3279 2231 3628 
5608 1651 4030 2810 3603 667 4612 5989 282 
1702 2515 6019 675 769 6031 4426 3686 5532 
5235 1619 3360 1239 5774 2188 3110 5009 2415 
3893 500 5011 5595 2149 2451 3846 600 5069 
488 1668 3041 4760 497 4617 5313 6012 3585 
1170 618 3863 4224 3961 5262 3572 5891 2703 
1857 45 2345 4356 605 560 3939 2253 1684 
249 662 5175 1419 5169 3611 3530 1821 1831 
14 3729 1787 3369 1783 5970 3701 5854 3715 
5081 1593 3949 1863 2796 4881 4243 653 3408 
2042 4341 4072 2902 3929 2884 4255 3515 4561 
3125 4854 2047 2405 2723 3332 5254 2637 5634 
391 2995 4014 838 2989 2465 4490 3998 5311 
923 2823 2010 103 973 3119 5496 2623 4151 
5501 247 5942 2369 461 1792 1588 4043 2450 
2481 4294 5661 496 5635 1086 2962 1752 3558 
622 603 2938 673 484 1520 566 710 2353 
2539 3011 5924 2745 4682 1667 742 828 4146 
3411 3539 958 681 2482 2754 5205 1913 1646 
5870 6046 5260 372 5068 3512 2301 4109 2427 
2946 3877 581 3965 4840 5657 2926 1148 5424 
1698 339 396 5279 612 3912 2121 572 1267 
2095 5343 3374 2932 4127 315 453 5403 5730 
4780 1482 2213 2186 1045 433 5991 5050 3146 
5352 2885 5486 4950 2571 5391 2915 5299 2708 
2474 1937 3796 3431 242 219 2316 5596 5640 
2786 4275 126 4368 4769 4699 276 3682 4192 
4981 871 5831 2077 4750 2134 4457 3083 4448 
4287 4774 2408 3914 1017 852 1049 2336 2520 
2974 237 3507 5883 2057 5727 117 925 4108 
977 176 3631 2410 5033 2514 4884 949 2169 
1390 2409 3732 3768 2342 921 2317 5963 4920 
3152 5575 706 3697 749 1473 1508 4655 2965 
5374 2943 738 1105 429 4283 4577 2666 3615 
4007 5675 212 5698 4510 2837 3085 2790 3741 
4640 1278 4033 3672 2208 187 2003 47 5467 
1269 98 4456 3396 4386 1472 305 3517 1488 
4463 2583 1036 5643 656 850 1892 2792 5655 
5307 5749 2711 169 2339 4679 1259 1873 2218 
4370 2293 3402 1146 5001 3498 3618 3816 1633 
3652 5296 855 5981 948 4253 1215 2084 4703 
3037 4906 300 3047 3304 2758 1797 6048 2699 
5130 2800 5290 2592 1974 5003 3192 2979 5539 
2697 5197 4584 5379 2696 5167 3809 2625 5714 
5656 1164 166 5859 5516 52 1942 3562 3818 
2261 2952 3164 2034 5373 2760 3623 3052 5653 
326 185 4091 3523 2360 762 2891 427 25 
5117 1408 4514 1310 3459 4446 66 5918 3595 
4229 81 160 3763 2560 4099 695 4931 4986 
3395 790 133 3028 5129 4877 6000 2556 3580 
1695 1951 3659 3351 2853 3415 1510 1751 158 
5392 1171 4715 2227 831 4285 3222 5964 4374 
2772 4471 2106 3609 4595 3128 144 3633 3689 
2376 3987 4461 1697 3830 1391 2971 4417 2777 
793 235 6055 545 1820 1726 70 1728 2585 
5830 5377 650 3953 528 4630 6045 5191 5253 
2250 2546 5415 1720 5509 2681 4980 1850 6030 
5269 655 765 5578 1612 1811 5479 1994 5950 
5404 5648 4325 910 24 3542 5484 3573 2294 
3464 5686 5696 4871 1242 3858 4749 421 5800 
2128 183 5159 6039 2233 2867 719 4390 1505 
5243 4501 200 406 1101 5523 1366 5723 4517 
1333 5549 1608 3296 2992 5282 1603 2224 327 
332 3975 414 4158 5161 5669 2964 4539 188 
1190 510 4495 3707 4344 270 3676 5407 874 
5901 5999 5845 4161 2172 3769 4520 4066 2766 
5754 5695 4488 4162 4089 899 2702 27 4548 
1396 4196 3310 94 4291 147 5589 1351 3081 
2448 4574 1425 5360 3747 355 5614 2392 280 
1102 647 979 4327 5709 1660 3404 4863 5462 
4126 171 4304 3516 3703 3948 5946 5005 1301 
5220 4276 3700 5194 3891 2456 3000 5134 5840 
3271 5212 1565 2064 2576 6005 1214 2347 4260 
935 1677 1649 3865 1099 1038 5116 3696 4695 
992 1030 5940 5124 1117 5748 4227 4453 1507 
735 5838 426 5955 4092 91 5939 880 3190 
5347 743 1486 1357 1970 3823 3364 4599 1155 
6059 5722 4696 4710 5085 5916 2239 733 1980 
3253 3321 1711 1363 1067 4923 4518 4664 5165 
561 281 1989 54 418 4725 2187 4850 5920 
1671 5475 4926 1542 1116 1191 529 3045 3388 
3068 4012 2553 3444 4212 1819 5858 4207 3638 
7 3835 329 4902 4083 238 4482 5052 3683 
3270 2135 4853 3849 4340 3463 1761 5798 5993 
5734 2071 2977 5615 3385 4316 649 1069 1891 
5065 5782 3102 4622 2363 5731 3765 5095 3466 
1205 4658 4044 1734 3442 3394 5325 4401 143 
1519 3994 2404 4821 3243 337 5817 1134 1927 
924 5463 4625 2197 5445 774 5562 2416 3257 
1747 2859 2400 5344 340 5126 1093 5637 1573 
5442 1922 926 2361 3418 2732 2793 3311 5975 
720 1906 5790 4373 2733 2839 1068 4389 1679 
4991 833 498 2930 4485 1342 950 2940 4648 
1057 2174 4458 3419 2988 1998 2872 1547 4689 
4027 2196 3340 2761 5977 2380 3847 613 634 
1801 3646 2814 4358 2290 141 975 1579 933 
4523 4671 2 2955 5579 3976 794 2951 5794 
4120 3890 685 3380 3810 4000 3075 670 4728 
3899 1502 3426 5006 4297 2920 3272 3928 3563 
1919 1083 3782 3528 570 5387 1002 1707 465 
2710 1526 2910 4024 1127 5449 846 1447 1004 
4240 2942 2532 4874 5320 2096 1738 1630 1481 
5266 2987 5301 3262 676 887 5839 3491 6018 
3730 2464 5841 3350 1807 4385 3920 4310 5969 
5874 4137 873 3774 3739 2990 4324 1555 4944 
4100 2444 3662 5719 4958 2048 2343 3167 3985 
3503 388 4166 1450 4077 333 2537 587 5588 
4128 532 4800 4907 3946 380 856 2175 1977 
3020 5103 112 1374 3166 428 4503 4206 4731 
2921 1795 6043 5801 5913 2715 2673 5122 2780 
4733 1899 1946 5673 3301 3101 3122 3778 878 
3945 1893 331 1475 5713 4350 1685 3909 124 
4927 4355 1745 2779 137 2486 5026 3172 4555 
2255 100 1393 2296 5865 356 2086 1558 2036 
4620 1673 5051 5109 5565 1334 5910 1865 5037 
5926 1595 3031 2605 5670 4244 3174 2492 2274 
4994 5144 5753 2244 3799 785 4004 5662 4110 
5904 255 3001 5561 10 2844 4567 1306 4729 
5076 1948 3150 1207 60 4637 4067 651 152 
5107 2267 1986 2646 1345 1122 1277 823 2722 
4827 5244 2461 1938 2555 4472 3121 2752 3084 
4073 2871 4737 4554 2257 2143 2934 786 4399 
2631 3182 3851 5408 85 2459 5545 4768 2958 
6013 4808 4220 5853 3918 4530 5671 4638 4238 
5416 1776 3196 1485 4585 1528 5896 4354 4248 
95 2913 6069 4741 4051 5690 3776 1406 15 
1719 1194 3788 1287 309 4136 5184 2701 2228 
4753 3996 5827 1087 2466 2008 723 32 2437 
4875 298 4332 2079 1441 1736 1523 3345 916 
5480 2538 5832 5174 1966 2600 5903 1581 1964 
3252 1072 486 1335 2065 1459 986 3543 1554 
5599 1944 2563 3410 3826 571 5335 4451 4021 
980 135 3731 6035 4955 3977 89 415 1883 
840 92 1590 1935 3619 928 608 1513 1910 
3654 1503 2983 4124 4415 4038 5414 3802 1192 
4183 5642 5382 5783 3559 348 1111 5160 2667 
1185 5625 5086 3942 2969 1713 554 3403 175 
876 5917 5402 180 666 1324 2945 3422 5810 
4233 3361 5210 4112 3005 2015 4636 43 2621 
3473 3772 2004 5876 3322 3091 865 5234 4742 
3705 1379 3198 5897 2097 2588 4435 1869 408 
5628 2229 730 5276 2370 3668 5386 4431 4336 
3043 3324 2152 1222 2337 620 466 5376 2288 
5429 3314 1875 4259 2730 870 4736 4762 744 
5538 1640 3605 2144 3421 5988 802 5459 3209 
3105 3339 4378 4032 2986 5421 2278 181 2146 
254 5525 888 2298 5715 6022 4519 5750 2713 
4352 5472 2528 4864 1923 551 1209 5353 314 
4888 1543 1570 2878 6007 3216 2183 4959 697 
5756 2820 3082 5667 2119 4796 3008 3347 4785 
577 3907 3494 4323 1003 760 1432 1336 4416 
4148 495 1431 130 4489 5202 1985 1035 2373 
373 4807 3413 156 3334 4330 2453 4858 2273 
3399 1755 5427 342 5931 110 2242 5268 5198 
5611 1978 3137 4598 2797 1353 2802 4198 2307 
3004 2100 698 1928 4289 3317 3116 2378 3882 
245 1826 825 3247 1888 976 1879 822 2655 
88 246 3902 2788 2570 1710 78 582 4409 
3398 1968 2778 6066 313 4125 3759 2581 4912 
1456 3704 518 5664 4831 5593 677 2909 6047 
663 4873 3367 1615 1394 48 5021 4621 3537 
879 541 3437 2617 4712 1284 431 2641 274 
1563 3604 1070 3521 3412 1918 4208 1950 3285 
416 4969 5980 1849 5115 3115 588 1197 1844 
3133 759 1465 5049 1930 2389 5627 20 1386 
5681 1364 3520 5995 3013 3578 1656 6036 4205 
3180 5586 474 368 578 503 617 5214 4216 
4486 4195 1858 1982 2109 5572 2423 5814 3267 
2447 1223 1098 2073 475 1627 5294 5032 960 
21 2276 3187 1920 4053 3050 4320 5066 2053 
1902 5968 2383 5439 860 3239 2406 1714 3958 
5133 3170 3471 4940 5826 936 4545 97 3518 
5324 4236 1337 3860 5758 289 2677 5016 2446 
513 5985 987 1415 1721 716 1512 4966 4572 
457 3465 3469 2211 365 569 4333 5892 789 
5601 3673 376 3138 5162 4650 1343 3678 5629 
4747 5683 1822 5306 4016 4447 2067 478 2089 
4469 3743 4606 5148 2202 5084 6011 886 2394 