# vtk DataFile Version 4.2
Generated by LIGGGHTS
ASCII
DATASET POLYDATA
POINTS 3 float
-0.0223643 0.00529154 0.0507085 0.00464767 0.0171268 0.0740769 -0.0231761 0.000331228 0.104145 

VERTICES 3 6
1 0 
1 1 
1 2 

POINT_DATA 3
FIELD FieldData 7
id 1 3 int
4217 5653 4280 
type 1 3 int
1 1 1 
i 3 3 int
0 0 0 0 0 0 0 0 0 

v 3 3 double
-1.0192000472e-12 -2.4539548646e-12 -0.43649918341 -1.612169386 -0.32588361349 -0.46781952272 -4.5190233672e-13 1.0974433265e-13 -1.1197349695 

f 3 3 double
-4.1140424401e-12 -3.3992364479e-11 -0.00082184063818 0 0 -0.00082184063818 2.6815882848e-11 5.6843418861e-13 -0.00082184062511 

radius 1 3 double
0.002 0.002 0.002 
omega 3 3 double
-1.2614252401e-13 -7.7638028755e-13 -8317.9199514 -0.45475031926 1.2824421287 -0.0062158784713 -2.9471205646e-13 6.8274103067e-13 113.84590446 

