# vtk DataFile Version 4.2
Generated by LIGGGHTS
ASCII
DATASET POLYDATA
POINTS 5997 float
-0.0117649 -0.0188211 0.0108633 -0.0116802 -0.0207816 0.0113502 -0.013518 -0.017864 0.0110569 
-0.00949551 -0.0168835 0.0115758 -0.0164934 -0.0172171 0.0122712 -0.014825 -0.0184511 0.0125619 
-0.00854848 -0.0202835 0.0117741 -0.0132671 -0.0197124 0.0122769 -0.00995813 -0.0216918 0.0123095 
-0.0103709 -0.019545 0.0123564 -0.0115389 -0.0172265 0.0127614 -0.00385428 -0.0234457 0.0104859 
-0.00760838 -0.0175176 0.0109904 -0.00570645 -0.0226254 0.0116375 -0.00300742 -0.0178717 0.01145 
-0.00789966 -0.022512 0.0117572 -0.00228655 -0.0237072 0.0119137 -0.00715284 -0.0186967 0.0127576 
-0.00301785 -0.0219733 0.0127124 -0.00653806 -0.0204968 0.0121078 -0.00426443 -0.0203388 0.0122594 
-0.00181003 -0.0200181 0.0119344 -0.00147379 -0.0183228 0.0130205 -0.00570915 -0.0174328 0.0119332 
-4.01354e-05 -0.0238678 0.0121311 0.00190316 -0.0235501 0.011352 0.00415659 -0.0209185 0.0114933 
0.00272937 -0.0180337 0.0111281 0.000505842 -0.022001 0.0113049 0.0022728 -0.0200315 0.01172 
0.000492805 -0.0192405 0.0123042 0.0022461 -0.0219315 0.0124937 0.00336581 -0.0237023 0.0129888 
0.00479696 -0.0228784 0.011771 0.00445716 -0.0189819 0.0121664 0.00613161 -0.0212623 0.0119316 
0.000927433 -0.0172095 0.0118813 0.00638433 -0.0229647 0.0130008 0.00623885 -0.0193469 0.013049 
0.00666703 -0.0173815 0.0124357 0.00806095 -0.0206954 0.0120836 0.00823315 -0.0186719 0.0119081 
0.0150216 -0.0186175 0.0113587 0.0119959 -0.0167917 0.0114491 0.00995022 -0.0199012 0.0117141 
0.0101083 -0.0216361 0.0127368 0.0118724 -0.0206964 0.0123778 0.0118796 -0.0187451 0.0119289 
0.0136462 -0.0196749 0.0126898 0.0100673 -0.0178366 0.0119537 0.0139131 -0.0174432 0.0127185 
0.0160488 -0.0177469 0.0128865 -0.0191253 -0.0143798 0.0109394 -0.0168497 -0.0142044 0.0109832 
-0.0178226 -0.0158661 0.0115837 -0.0173578 -0.0109832 0.0112158 -0.0220702 -0.00925372 0.0114364 
-0.0181596 -0.0128205 0.0117429 -0.0201675 -0.0127298 0.0119598 -0.0191649 -0.0109332 0.012192 
-0.0211968 -0.0110169 0.0118813 -0.0200705 -0.00914287 0.0117025 -0.0151794 -0.0109537 0.0112703 
-0.015016 -0.0150653 0.0112648 -0.0090947 -0.0148292 0.0116214 -0.0114452 -0.0135295 0.0116648 
-0.0136288 -0.0134319 0.0115062 -0.0163621 -0.00933226 0.0119231 -0.0162237 -0.0125293 0.0122404 
-0.0163094 -0.0153166 0.013067 -0.0131554 -0.0156104 0.0118665 -0.00872795 -0.012557 0.0116139 
-0.0110522 -0.0155865 0.0117189 -0.0103651 -0.00960578 0.01196 -0.0146484 -0.0164771 0.0129129 
-0.0143647 -0.0121451 0.0128784 -0.0123858 -0.0119239 0.012573 -0.0104232 -0.0115903 0.0122215 
-0.0125491 -0.00990233 0.0122439 -0.0143681 -0.00918508 0.0117598 -0.0070786 -0.0137167 0.0114507 
-0.00301293 -0.00954008 0.011665 -0.00106877 -0.0100098 0.0115504 -0.000947455 -0.016527 0.0113675 
-0.00166562 -0.0129332 0.0114458 -0.00499013 -0.0132898 0.0119143 -0.00331354 -0.0143919 0.0117723 
-0.00748956 -0.0152159 0.0127578 -0.00691844 -0.0116557 0.0125556 -0.0049412 -0.0158713 0.0130559 
-0.00425883 -0.0112832 0.0118131 -0.00286072 -0.0160273 0.0129017 -0.00232423 -0.0114354 0.0126173 
-0.00559692 -0.00995884 0.0125728 -0.00130882 -0.0148095 0.0124361 -0.00757443 -0.00975235 0.0121769 
0.00206519 -0.0125115 0.0112763 0.00689458 -0.0154671 0.0116302 0.00440185 -0.0109268 0.0115985 
0.000319651 -0.0116103 0.0117256 0.00028231 -0.0138185 0.0117437 0.0026759 -0.0162053 0.0119904 
0.00630894 -0.0115853 0.011866 0.00465999 -0.016377 0.0116825 0.00245724 -0.0142625 0.0124597 
0.00394367 -0.0128237 0.0120599 0.00253262 -0.0107124 0.0123637 0.00538541 -0.014248 0.0121615 
0.00729881 -0.0134902 0.0118672 0.00779336 -0.00977498 0.0124408 0.00589014 -0.00931729 0.0119378 
0.000527395 -0.00892437 0.0121054 0.00256332 -0.00870125 0.01217 0.00850015 -0.0166648 0.0114314 
0.0129773 -0.0132848 0.0114879 0.0108264 -0.0120274 0.0115796 0.00832475 -0.0115711 0.0116316 
0.0148408 -0.0140317 0.0114907 0.0161124 -0.010732 0.0115863 0.0102776 -0.0158466 0.0118747 
0.0126005 -0.0110741 0.0117589 0.00930593 -0.0133624 0.0119869 0.011195 -0.0140465 0.0120055 
0.00857939 -0.0151528 0.0127665 0.0133925 -0.0153736 0.011805 0.0144468 -0.0118933 0.0117016 
0.00984035 -0.0103631 0.0121915 0.015256 -0.0162269 0.0117176 0.0142052 -0.00984778 0.012183 
0.0119931 -0.00915737 0.0120637 0.016293 -0.0127012 0.0119233 0.00986475 -0.00837808 0.0119494 
0.0159816 -0.00870519 0.0117062 0.0191435 -0.0143048 0.0109931 0.0172121 -0.016548 0.0113372 
0.019088 -0.0116273 0.0111001 0.02119 -0.0111334 0.0115568 0.0199425 -0.00944928 0.0114021 
0.022073 -0.00924828 0.0116216 0.0167304 -0.0146553 0.0117885 0.018386 -0.0153323 0.0126944 
0.0182185 -0.0130735 0.012404 0.0202633 -0.0127667 0.0124564 0.0198334 -0.01076 0.0130138 
0.0180263 -0.00999554 0.0116961 0.0187049 -0.0085451 0.0128951 -0.0200743 -0.00293996 0.0115901 
-0.0220582 -0.00210108 0.0113357 -0.0232123 -0.00542862 0.0114927 -0.0227953 -0.00739503 0.0115748 
-0.0175269 -0.00766991 0.0119471 -0.0196498 -0.00718302 0.0121774 -0.0214535 -0.00627285 0.0125949 
-0.018157 -0.00581551 0.0123897 -0.0199712 -0.00509678 0.0119212 -0.0183046 -0.00383821 0.011927 
-0.0216992 -0.00410906 0.0116491 -0.0236038 -0.003492 0.0118862 -0.0173799 -0.00224096 0.0127168 
-0.0190021 -0.00127616 0.0119713 -0.0238441 -0.00150801 0.0120404 -0.0209113 -0.00050004 0.0117772 
-0.0172668 -0.000279087 0.0121769 -0.0088528 -0.00403701 0.0103268 -0.0162737 -0.00604107 0.0113931 
-0.00977439 -0.00781438 0.0111961 -0.0117669 -0.00828764 0.0113435 -0.0105347 -0.00290784 0.0115354 
-0.0123094 -0.00632124 0.0115081 -0.00971862 -0.00564293 0.0116099 -0.010007 -0.000966757 0.0116282 
-0.0162994 -0.00399186 0.0117942 -0.0157485 -0.00752995 0.0128564 -0.014302 -0.00646686 0.0118176 
-0.0134022 -0.00466571 0.0120455 -0.0131455 -0.0080409 0.0128914 -0.0113365 -0.00460003 0.0123086 
-0.0124846 -0.00288849 0.0121318 -0.0144506 -0.00301266 0.0125145 -0.0156399 -0.00146373 0.0120281 
-0.0136533 -0.00121403 0.0119527 -0.00859541 -0.00261033 0.0120338 -0.0063856 -0.00823729 0.0109155 
-0.00655445 -0.00207698 0.0113182 -0.00808256 -0.00679882 0.0115423 -0.00293849 -0.00671623 0.0116355 
-0.0010961 -0.00153255 0.0116457 -0.00804409 -0.000693874 0.0112405 -0.00623491 -0.00585588 0.0116733 
-0.00716076 -0.00404213 0.011666 -0.00485761 -0.00448108 0.012243 -0.00453306 -0.00820264 0.0118776 
-0.00149133 -0.00824849 0.0124645 -0.0045438 -0.00644894 0.0129903 -0.00279094 -0.00481125 0.0126095 
-0.00266717 -0.0028943 0.0117749 -0.00464429 -0.00251888 0.0118132 -0.00105694 -0.00564748 0.0119925 
-0.000757749 -0.00359 0.0121998 -0.00342142 -0.000743207 0.011689 -0.00553702 -0.000474785 0.011971 
0.00615131 -0.00114361 0.0115301 0.00816806 -0.0017767 0.0114176 0.00418859 -0.000487437 0.0116107 
0.000190364 -8.7699e-05 0.0110114 0.0044216 -0.00790606 0.0119482 0.00262695 -0.00671379 0.0118901 
0.00115134 -0.0047041 0.0116963 0.000601499 -0.00676729 0.0117828 0.00624217 -0.0050131 0.0126768 
0.00618502 -0.00696804 0.0121962 0.00355862 -0.00416206 0.0120432 0.00452736 -0.00591084 0.011839 
0.00656109 -0.00311655 0.0120953 0.00458532 -0.00246168 0.0118171 0.00806859 -0.00769028 0.0125372 
0.00811164 -0.00574676 0.0120133 0.0154043 -0.00678494 0.0115982 0.0137497 -0.000964407 0.0112864 
0.0120884 -0.0061209 0.0121782 0.0100637 -0.0063349 0.0118646 0.013443 -0.00772415 0.012113 
0.0086122 -0.00375323 0.0121433 0.0108083 -0.00452901 0.0124155 0.0140105 -0.00583072 0.0127329 
0.0128378 -0.00423876 0.0122444 0.0156607 -0.0046792 0.0130022 0.0102462 -0.00258968 0.0119627 
0.0141976 -0.00257625 0.0124845 0.0122356 -0.00233222 0.0119141 0.0162036 -0.00306239 0.0118583 
0.00987919 -0.000533882 0.0118217 0.0154502 -0.00093485 0.0125073 0.0237768 -0.00148465 0.0108956 
0.0176594 -0.00131519 0.0109376 0.0174186 -0.0073482 0.0113102 0.0194173 -0.00665578 0.0110019 
0.0169536 -0.00507408 0.0115284 0.0213001 -0.00582416 0.0114435 0.0187671 -0.00407385 0.0115333 
0.0209022 -0.00375405 0.0110798 0.0228781 -0.00331698 0.0115231 0.0199925 -0.000894732 0.0106671 
0.0207665 -0.00772602 0.012029 0.0227463 -0.0073139 0.0117175 0.0198052 -0.00533862 0.0126902 
0.0233023 -0.00533667 0.0116777 0.0178365 -0.00603143 0.0130632 0.0196027 -0.00232653 0.0120433 
0.0218635 -0.00145397 0.0116794 0.0237977 -0.00212464 0.0128789 -0.0182195 0.00137766 0.0115715 
-0.0202046 0.00156796 0.0113588 -0.0238451 0.000250314 0.0110772 -0.0221462 0.00117778 0.0116337 
-0.0207628 0.00460028 0.0112806 -0.0212165 0.00656 0.0113043 -0.0191489 0.00696113 0.0114186 
-0.023113 0.00592002 0.0117276 -0.0191822 0.00301573 0.012317 -0.0238309 0.00221478 0.0120909 
-0.0218075 0.00310571 0.0121062 -0.0235013 0.00412974 0.0125678 -0.0187762 0.00498446 0.0117711 
-0.017312 0.00341648 0.0116077 -0.017002 0.0051042 0.012719 -0.0226375 0.00784969 0.0121855 
-0.0120761 0.00646152 0.0110248 -0.0147565 0.000427662 0.011402 -0.0146251 0.00292436 0.0112 
-0.012883 0.00464782 0.0112833 -0.0106446 0.0022219 0.0113327 -0.00954828 0.00405356 0.0111705 
-0.0125856 0.00264725 0.0116211 -0.0165532 0.00686808 0.011415 -0.011088 0.00814817 0.0114476 
-0.0162569 0.00172 0.0117459 -0.00921744 0.000869396 0.0117422 -0.0146141 0.00645574 0.0117103 
-0.0128099 0.000639 0.0119364 -0.0109705 0.000444824 0.0126947 -0.015083 0.00453378 0.0123064 
-0.0132163 0.00794499 0.011788 -0.00290081 0.00490713 0.0109867 -0.00210615 0.00256676 0.0108475 
-0.00433818 0.00101854 0.0110788 -0.00806939 0.0025159 0.0113692 -0.000813541 0.00413105 0.011006 
-0.00781686 0.00632408 0.0109268 -0.00583588 0.00655953 0.0111511 -0.00173653 0.000400626 0.0114182 
-0.00398342 0.00318561 0.01117 -0.00555625 0.00456832 0.0113677 -0.00120612 0.0078771 0.0109169 
-0.000110721 0.00224562 0.0109866 -0.00709726 0.000879039 0.0120476 -0.00578738 0.002508 0.0117474 
-0.00758479 0.00444319 0.0118803 -0.00191376 0.00632337 0.0121287 -0.0021883 0.00366153 0.0128202 
-0.00315316 0.00171394 0.0126843 -0.00404641 0.00535744 0.0125819 -0.0078589 0.00815435 0.0119225 
[...]
POINT_DATA 5997
FIELD FieldData 7
id 1 5997 int
1450 2723 1758 4423 3414 2776 5711 5569 93 
3111 2341 5528 4872 1512 641 466 685 4696 
2636 286 3584 1979 2113 5759 4534 2177 4477 
288 2504 5092 2934 995 620 943 3664 367 
2427 2156 5928 701 4605 1963 4981 699 5425 
3713 3408 1853 3880 2893 6025 4578 3684 3091 
5728 2219 3075 3991 3049 1603 4293 4102 3648 
3608 3958 3678 4022 1901 1711 5054 4242 864 
2858 5053 4428 4791 5128 952 2298 5998 4227 
2497 3210 4768 429 277 400 3034 223 1200 
4466 2416 1724 4307 4915 1290 1799 1756 4516 
2761 2932 2806 5440 2164 4269 2550 321 3984 
3545 5889 4835 3132 5449 1276 6053 5637 4409 
546 702 3118 1298 2231 3047 1506 3415 5708 
714 4869 927 4546 920 231 5389 832 115 
2031 4101 4905 1018 3969 123 1209 1170 818 
411 661 789 145 1333 2890 4634 2325 2355 
4680 612 1561 2906 1032 1410 425 5017 3710 
5774 5239 4589 3621 4222 5867 5396 3426 1235 
5673 142 188 5705 1720 5788 836 3424 1784 
888 5487 2956 2719 2583 5202 5263 3120 3911 
1250 4055 1889 2658 715 4996 2459 2945 3490 
1605 5494 2461 1816 358 4005 4604 2128 4438 
4583 4024 808 3123 5631 241 529 5096 2435 
5770 5079 5612 5584 2700 3326 5256 5059 4378 
3152 4121 5400 3181 2203 2624 4189 3813 2483 
3057 538 644 2370 4942 2686 4697 1489 3796 
5010 4908 1896 4844 1497 1674 389 470 3791 
156 5238 930 5680 5104 2990 5340 1761 5590 
5495 3661 933 2975 3226 1685 2653 2080 4850 
3854 4843 4128 1852 3600 1571 5892 548 1296 
2153 2054 1183 861 1362 2795 4289 2734 5406 
1020 3254 6022 4657 2052 3010 4123 4564 3393 
3166 718 1085 732 853 3766 5822 2549 3292 
5937 870 2273 4373 5725 5531 5108 2924 1222 
1414 1105 4071 4254 5072 3826 5266 1887 2747 
275 4185 2058 903 5503 2485 4527 1547 269 
1182 4334 4786 3808 2585 3023 1663 2285 1406 
1501 2207 2403 5846 98 3438 2390 1428 2087 
3131 4186 3267 1328 3686 5764 5297 2137 3361 
5015 1347 4962 220 5809 1024 1805 2572 5243 
1376 3337 752 2587 5662 2376 348 1969 4929 
669 1078 2093 1566 208 2424 2701 4179 1090 
3205 1194 3904 4029 4215 2750 4276 2159 1976 
1260 3007 2755 4602 3824 2348 1211 2124 2856 
1481 3037 307 5075 3875 2294 5073 918 3137 
2133 525 2443 3534 4176 4816 5524 4902 5436 
3531 5510 4946 5706 1121 2784 4666 603 377 
2110 3704 4316 1667 4964 159 791 4056 5272 
598 3011 3598 5743 5037 1407 2557 1826 6060 
5427 491 291 3714 4190 1259 2870 5979 5589 
1759 2412 4565 4384 2617 5113 378 3566 4099 
2414 4502 547 1652 1114 3993 5660 2084 5290 
4094 3005 2835 4951 2489 4430 2649 2977 210 
745 3883 3914 2644 30 5960 3136 4096 1186 
6035 578 114 4630 4726 4566 2240 2350 3518 
3577 1851 1972 6062 4555 1810 5505 259 5618 
80 4549 5792 3300 2174 1412 2426 4532 1519 
4771 1079 2264 2021 5414 2206 5529 2996 4807 
2042 5965 271 2089 302 4611 2769 1141 4574 
1366 410 3632 4718 4876 3625 5629 4010 4218 
95 916 5990 1162 5359 445 3909 2134 5452 
469 2698 2611 5977 1394 2535 4370 2342 4246 
635 582 3640 3804 4529 5875 2925 5812 455 
2086 5488 5785 1135 2940 1788 2844 1014 5153 
3463 2299 5614 1299 2074 4476 1386 2984 3943 
936 5312 1844 5832 4270 859 187 1638 968 
2718 4803 4467 1751 3919 1300 2056 4048 3578 
3316 1404 3999 748 819 2116 3038 1526 4175 
3429 7 3281 3207 67 5518 5851 1363 1267 
417 5865 2176 379 71 5964 2651 2190 5679 
1861 1917 963 1515 1197 794 1559 1514 2027 
2875 1364 3757 1609 1000 2854 950 5773 65 
5828 420 2479 3243 3238 1967 5458 5170 5845 
4263 3862 5021 2007 5588 2103 615 2189 790 
3332 4521 2492 4407 4659 5404 1403 802 5456 
1920 1073 1708 3758 1629 4229 999 4418 4286 
759 5975 3913 446 2049 3179 2468 295 700 
3581 278 1272 5570 3930 3264 1864 5363 2210 
3439 4074 3328 1871 4111 2863 4455 5071 1863 
5408 195 1015 5041 4545 977 1838 913 254 
3240 1351 328 1696 1312 2484 1173 2507 1618 
202 1076 47 3461 803 1729 215 5545 3309 
5966 317 2652 858 4262 807 4755 366 3402 
2381 4091 2284 1004 1911 4922 4160 5595 2359 
1075 815 5603 1269 4886 1989 3221 4706 1383 
3273 343 5233 2366 1953 2555 636 1011 3812 
1882 1740 2234 3483 4563 5476 611 2536 3799 
279 3732 4685 5338 2725 1154 5360 3651 2161 
1002 2002 263 3997 863 754 5326 1543 240 
996 1072 1753 1839 4911 2639 5283 1722 5196 
1747 1165 4109 3013 1726 2600 1615 5109 3834 
84 2637 3698 2798 2168 2732 5493 1671 5441 
4386 4722 3618 1343 1700 1682 1088 1487 1883 
1645 5398 3451 4187 4801 100 2415 5511 5439 
3201 4531 3359 3208 2197 3084 1874 5803 23 
3563 5498 1184 2218 6040 3865 779 545 1518 
126 2413 351 5213 2828 2970 2276 424 1119 
1471 3279 2711 3445 5375 1918 2705 2869 316 
4645 788 3700 2185 2071 5535 3922 5932 38 
5234 2405 2085 3781 1881 4552 1101 281 482 
3763 2171 2488 3960 2837 4783 2154 335 2200 
5661 5250 5492 797 4183 4879 4852 4512 4754 
1275 2778 1849 589 2609 4777 4206 5944 3341 
4702 457 5737 992 3912 5723 298 4587 2615 
1986 2631 2142 4445 3410 3666 1766 1767 4292 
4201 3163 5772 673 867 4848 2123 253 971 
3145 3189 1302 5373 1311 6068 707 3832 4415 
3819 4941 4100 2351 270 932 844 619 1672 
5755 3646 5298 5783 2741 5855 1413 4732 4295 
3745 2762 4746 631 5533 5126 911 4442 3260 
2141 2690 4045 2515 4489 766 2791 401 29 
5392 1062 3786 3856 2365 823 5230 5474 5681 
2831 961 3817 4573 4559 4202 2098 1257 1865 
3194 2630 3599 3497 3690 5211 5669 835 671 
4493 1111 5613 5741 4066 4265 3937 1467 1706 
4325 1248 5258 1651 4461 5791 2864 5291 5766 
648 148 712 659 3697 753 3616 5951 4064 
5164 4470 2126 5442 3184 5997 1688 721 4208 
1824 5815 3798 3536 2437 4252 5930 2770 3406 
3389 5654 965 3774 4683 3790 1136 4633 1755 
2544 2775 4800 2167 1479 3392 3752 5641 3715 
4491 5372 4785 5931 2590 5475 3737 5255 2283 
3116 441 3979 3559 322 1822 5051 981 2905 
2307 2138 5144 5077 5110 3401 3797 512 2836 
4093 6058 3886 5351 2955 850 1924 2560 4595 
884 1537 686 1699 2783 2063 2627 5765 403 
506 1172 3858 3502 3744 1061 2997 1283 5027 
1833 1137 5609 5651 5048 2655 3434 532 5701 
1750 5006 5565 4704 61 4098 756 4841 4133 
1491 4047 5758 2373 1227 3994 4184 3612 2419 
5968 2178 4956 2923 1557 3342 5597 1591 4465 
2183 4494 3933 3228 4161 4821 2499 1909 5712 
151 2429 5995 1313 419 4462 1449 1769 5954 
3465 2441 78 4089 2318 1258 399 5334 4267 
4893 1914 5933 3544 2352 5909 4703 1915 4483 
4601 4492 1113 5315 198 3447 1023 2150 5282 
3675 2650 4887 213 1253 4936 327 2070 776 
2567 1900 1564 4763 3927 5790 3455 517 5292 
879 5146 5275 4393 1570 4724 2193 4874 5288 
3058 4968 2873 3499 4705 137 2551 5447 1274 
4789 1563 747 5500 161 3728 4499 601 2610 
2434 787 2277 5591 2782 1551 3489 3687 4901 
4480 1195 264 4358 3871 771 2781 2779 4856 
1744 3580 1265 6028 2546 4287 1293 4279 5751 
421 6066 5013 3593 5674 3200 5419 3721 4408 
5004 3285 1160 1391 2794 2949 2464 5200 4644 
5691 3590 2309 1451 5122 2377 3154 3 2961 
2661 2119 5769 4675 2495 48 3265 2502 1444 
642 5031 2478 3418 4955 3717 3280 1600 4156 
2199 3186 3916 2301 364 3503 2466 4435 5177 
373 3235 357 3413 3533 2780 4762 5748 40 
2018 4364 1857 4895 1164 3626 3199 438 2045 
4509 267 5322 3849 5352 1533 20 940 5350 
1280 4375 3338 625 2538 74 1985 1171 3399 
2943 2825 841 571 3627 2683 2716 2523 5171 
191 2062 4105 1367 982 451 3550 875 2023 
1935 2453 5257 5698 4108 1530 1318 2166 2823 
5173 149 4663 5029 4080 1742 3785 5131 4761 
462 722 5996 5655 5517 900 284 1837 2764 
2702 280 2125 473 2253 3948 2861 5687 691 
5383 486 314 2146 531 3513 1240 4940 5183 
3539 647 2422 2246 3907 2220 5450 4765 537 
2684 1642 2263 991 5245 8 3975 1913 4795 
4615 4900 2901 934 1043 2530 1749 1474 174 
17 5062 5881 5947 1813 112 3411 1051 4437 
2275 3403 2847 1178 1355 1130 2620 3954 1971 
3729 5825 1012 5900 639 672 3146 5664 1754 
2083 3420 3220 4122 1956 4110 2039 2192 1544 
1167 4973 2221 3735 2261 4404 5842 45 5466 
6044 2848 804 4083 6055 4871 2511 404 3623 
4884 5050 2244 5955 390 5467 1495 5028 4811 
3151 1286 3174 3738 4037 5530 4776 2202 1482 
2865 3869 726 2953 59 1469 422 3788 5986 
5281 1046 144 157 163 492 2463 763 1213 
5897 2417 5142 5368 3448 3008 5468 2588 4457 
5418 5634 3719 5608 3162 5509 5638 4889 2894 
4453 3188 4799 1974 4030 4034 3507 4360 5823 
2743 536 393 5176 3696 3398 3560 4898 300 
5169 1230 1210 4158 3269 3345 4582 5976 4928 
4971 882 2444 2346 4993 3923 177 1103 3466 
2011 3157 5473 552 1701 1687 5025 4916 3727 
4809 1529 3551 1649 1599 4594 4897 5833 5866 
4774 4780 5574 1435 3878 3177 3318 2198 572 
1728 505 1597 436 5159 3852 6059 1656 1010 
4397 2751 1045 5967 4736 4608 1373 3565 3268 
2266 2946 3172 568 5799 1331 4198 3454 3464 
2818 5636 2322 5512 4660 3121 4842 3039 2328 
3952 206 1521 3435 1005 5665 4806 233 5623 
683 979 5038 5472 5214 4140 2554 2357 3103 
2744 488 2638 3722 2320 4239 6 1660 1886 
1801 2730 1203 1659 4875 5157 4257 1875 2562 
5922 1800 1877 1955 3105 556 4781 4698 167 
4104 3925 2340 1686 3778 1409 5285 4501 4525 
4050 3779 4234 3591 4191 4913 1094 1995 41 
5129 175 2514 4714 938 4448 1159 2295 1795 
4628 5353 3638 1885 1841 1138 2186 5642 563 
5617 3767 4413 1270 3644 5106 4290 6034 3631 
162 1893 2291 76 2799 4020 4302 439 5123 
3404 1765 2475 1460 928 3035 3472 3336 2994 
1862 395 1131 4033 3135 3671 60 3112 2025 
2976 4833 2668 4828 64 1189 2594 3056 5735 
4738 1225 250 2634 1181 2735 2917 1957 1592 
1760 5879 739 976 196 5093 388 4288 4086 
2891 464 3611 4137 3564 4248 5640 643 4315 
133 4088 2859 5541 2914 106 3674 2578 621 
711 5294 5826 5519 690 5644 1975 4882 3929 
3990 5307 1317 1086 4343 89 1733 632 4019 
1613 372 4298 1804 4590 4741 1607 5402 90 
185 3102 4638 1794 988 3409 2826 2671 2148 
4591 1507 5689 3068 5296 553 3101 2807 607 
242 5514 1402 4716 4960 986 1320 2576 3258 
5648 197 2830 5821 3213 5480 4878 4414 4607 
3275 587 3363 2871 1161 4682 2105 3416 442 
5261 2100 1204 2815 1009 4450 784 2714 1868 
2324 1001 2920 337 2605 606 1266 3224 3125 
2354 2793 11 4656 1219 3606 4505 1573 4008 
4237 2092 4333 2077 1155 374 2041 2753 4580 
2323 392 290 4641 3985 515 1332 1157 2385 
3971 5149 5219 2593 2710 2019 3541 1040 1582 
3576 293 5130 5874 480 3940 2349 5627 246 
2450 4017 3668 2517 3482 3159 2394 1892 5107 
474 2362 2973 4500 2265 1775 960 4756 4426 
5313 5607 1475 1730 3805 5067 6042 396 1977 
4535 5309 4937 2851 4162 627 5643 2319 3742 
2160 1568 3751 1719 5740 1117 1466 4079 405 
2763 2448 3604 5270 1589 3787 2584 1399 173 
4866 4317 3607 1679 32 4057 1694 1424 2874 
5696 1578 767 4713 5782 4974 670 5910 874 
3973 2290 5435 5560 2364 3706 46 1910 2201 
2010 6005 871 5228 3654 4618 1147 2143 2122 
4767 3386 5016 4344 3320 3771 2640 666 2521 
1666 5299 4599 2195 2596 4427 2952 1583 4804 
5974 251 4616 4403 4299 5752 1777 402 5160 
516 4760 2703 746 3902 5956 3553 4617 4932 
4692 770 3711 4710 4151 2938 165 3946 3193 
5551 5873 2880 1309 4464 2947 2838 4144 1921 
2335 4221 3140 1553 1064 2980 3066 2739 4380 
3190 3362 2368 3481 5497 5683 2462 5868 1842 
5556 5088 2223 5666 817 2081 3322 4860 1455 
4674 143 3964 1996 3298 3556 2439 3759 2139 
4131 2482 361 4725 2824 5601 5163 3827 3617 
5880 2968 2561 4278 4168 5921 2926 2534 369 
729 83 1025 5264 4540 757 5854 527 3021 
5914 3989 3031 3739 1549 1346 3395 3025 5827 
2388 4129 2516 1532 4332 3505 1 4817 821 
3872 4612 5069 1748 594 3676 3160 2619 1776 
2752 3747 741 3595 799 2454 5502 3124 1504 
3315 1870 5181 225 2797 4667 2508 1488 5639 
1287 5862 1048 4068 1128 1588 2512 4749 5056 
3020 216 5470 2937 4681 5731 1221 3227 440 
2389 3833 1232 193 922 397 758 500 1502 
57 717 5293 1931 4827 855 951 3596 18 
2288 534 4700 5405 1044 1306 2586 3689 781 
4164 1846 4490 3237 1830 5407 4903 2187 2242 
4744 53 5262 166 1637 1802 5212 3634 5225 
5935 5572 3252 4217 5501 5205 2800 3467 4678 
830 3740 1850 2989 4770 4596 4845 1081 2598 
1439 5858 4994 4329 1966 5602 684 4224 3765 
2327 3558 4087 5840 2208 5542 4132 5443 359 
1636 3009 12 898 4508 5005 1245 5563 692 
2249 5549 4720 518 3349 4640 2215 1133 1797 
3249 3750 1710 3358 5709 3155 5853 5635 2043 
5942 382 3768 892 2214 885 5335 953 3251 
1990 4519 2876 5963 5808 2145 946 1082 2194 
2442 355 2205 3853 4953 1907 141 2112 3603 
499 2079 2766 5532 4135 5720 4250 1102 5671 
1628 1289 2942 3895 2569 5208 4195 5235 3901 
3870 5244 224 3693 735 2237 1550 2707 660 
97 2460 5365 1104 306 5385 1201 6061 5314 
1884 4362 1041 4324 2687 2066 1065 3859 5325 
3271 3287 39 4460 2179 4977 1379 1630 2691 
5684 4530 3712 3002 3748 219 3291 323 1093 
4709 4412 2919 3348 5745 4614 2849 3520 504 
2233 980 558 559 164 4548 954 5525 5166 
4581 4349 508 5521 3032 3519 4665 3449 695 
5496 2181 4773 6008 1059 608 5463 4402 2344 
1546 2548 5361 862 4253 4544 2737 5714 16 
204 1968 4708 4686 1714 4340 618 4345 3542 
1890 3277 1897 3147 1623 1255 2020 4051 2170 
1316 4518 3683 2009 5962 4497 4296 3633 4853 
3691 5374 4819 261 5420 5158 1371 3176 1510 
2597 814 4792 2383 1646 3262 5199 3970 3098 
4945 1156 2963 1228 6027 5100 1324 1997 5429 
742 626 2533 2336 4717 6010 2998 5668 633 
4348 4511 2016 2749 3487 329 5306 3339 4367 
5929 1516 2017 5317 2664 3708 2895 3702 2101 
4482 4927 4485 1764 5520 3508 124 5645 3234 
4076 2191 3079 5339 4456 872 2136 2072 1538 
1458 3093 775 5022 4585 3067 4174 5864 1146 
3769 637 3620 528 3168 595 2369 4130 6049 
1319 1855 2216 3720 4606 1348 957 5278 3198 
495 1677 5139 2382 4106 3917 1099 562 3897 
891 5557 2840 2272 3379 614 1144 33 584 
5490 6031 3776 3935 3142 2224 2808 5074 458 
796 5938 4232 2580 1326 5724 5566 3760 1981 
5820 3276 5971 190 877 1772 4309 4688 5871 
483 5247 4117 2579 3918 2048 2449 1737 1017 
907 5461 4934 2765 4241 2547 56 5040 2314 
2862 5507 5860 843 2147 3792 4142 4541 5600 
4014 4471 937 3043 984 459 1650 5856 2552 
1567 4992 1215 1422 6014 460 4711 4439 4619 
479 1389 708 4991 5344 5841 974 593 1453 
4075 2733 2022 2050 5319 1039 2982 2107 677 
2411 3370 3601 2248 2948 4021 5756 3374 645 
9 5063 2986 3956 4772 3442 4592 3764 92 
682 2420 4238 5271 1936 798 4949 4796 4300 
380 1820 3828 5008 3433 1365 502 1329 3749 
4032 5499 99 1727 2992 4939 2556 140 443 
793 5178 2559 1531 5462 3450 4952 4877 1715 
3397 5000 4961 81 676 2616 5733 5796 1038 
4947 3388 4389 5483 4330 1634 1226 4351 1315 
465 4194 5606 3860 3823 2881 3887 4350 2904 
765 1378 182 1063 5744 1647 720 4154 3062 
4429 5568 2304 5002 4115 3171 2626 1485 3950 
1741 1540 4528 3356 993 2872 2809 816 1249 
2629 5945 3645 5346 2486 868 777 4829 1074 
1891 3673 710 4000 2075 3272 1050 1385 3351 
5836 1198 5816 2759 2756 4260 503 25 5658 
2635 3167 1581 2929 1354 5362 3457 5577 4274 
3302 2717 5248 1459 5321 6038 2918 869 6036 
5012 2104 4629 3540 4371 3473 2073 2962 4148 
5936 3014 3983 1942 1635 244 5534 658 5844 
5162 5676 4894 1400 2969 1664 624 5513 2995 
3485 1736 1940 780 3800 1199 274 4547 4443 
4355 347 2860 2235 4954 740 2706 4119 104 
2172 5485 5847 2065 1185 2662 2909 1611 431 
5330 3597 1301 3030 941 3538 2102 3452 4321 
634 1780 4784 2788 896 1022 5120 2162 3100 
4613 1919 2738 1828 239 2659 3746 150 5805 
1303 5224 1352 2816 4065 4958 5546 3182 1369 
3437 565 5777 5949 4416 5622 1115 2899 3486 
1029 1888 5700 3366 5046 6018 1465 3976 472 
5903 1879 5217 5693 5763 1175 5715 511 430 
4620 4431 5099 2537 3968 5192 4976 49 5191 
86 2149 1452 1933 5807 489 4484 2987 3158 
5084 5356 4788 1384 5311 5670 1112 5736 3305 
944 4694 4259 2438 3456 4503 3967 1763 1908 
3548 272 5464 3561 1932 200 4921 3641 5810 
5843 5941 1778 4653 1305 1768 326 3888 3074 
4063 5721 5347 755 5097 4308 5268 3203 4664 
5991 1031 5504 3587 543 3432 2991 4568 1959 
1359 2632 1070 5761 334 1498 3431 1898 6052 
4834 121 915 2575 2771 3196 2472 664 1401 
4805 716 3838 3003 2931 5019 5045 4823 2271 
723 4825 2648 4474 2867 5800 3861 1149 55 
4235 573 4603 4049 3081 5064 5632 2513 2857 
4353 3089 3527 383 5814 1654 4815 5817 4157 
704 2477 3818 4401 4058 1644 371 189 2695 
1601 5961 3270 13 970 622 5411 4891 3669 
2879 444 1738 4858 5295 3807 2964 4610 1641 
5481 5894 4361 5543 5750 1705 3521 1218 297 
2884 772 2245 4297 5580 4028 1124 4251 2375 
4859 2490 4182 2599 5184 3294 5869 5621 5216 
5987 5838 886 3130 87 6015 5066 3949 1263 
5032 3504 854 5537 5943 520 3480 4684 5544 
3248 580 2812 1627 5682 6043 1434 2287 1387 
5320 811 4982 663 285 72 96 1792 6003 
5055 577 4478 2034 4918 2330 1096 4839 5835 
5925 2954 1338 5367 184 5252 1560 4571 4551 
1934 3288 5478 1247 5259 3955 4862 434 3474 
5188 2591 4374 3301 63 2387 1508 4562 3962 
1492 3071 5703 3658 3639 5114 4294 3257 2789 
2885 1511 1095 1294 3893 5672 6017 485 5422 
5562 4023 3635 1789 1926 5754 4739 1949 1127 
1241 1393 4624 3314 1848 2581 129 2152 535 
5303 299 494 4159 570 3613 3134 539 3679 
4272 4199 2510 1614 2628 6064 4689 5870 554 
4379 414 232 5716 3319 5895 1118 5491 5454 
2722 1555 592 1732 227 1773 2921 2898 5749 
1109 2236 3087 5806 6033 3204 2855 1676 2633 
5036 1814 5305 229 5310 4775 2229 3718 2225 
5172 5117 1499 4163 4177 540 5934 693 3303 
5394 4141 5726 2115 1929 2140 3077 3555 5227 
153 4699 878 5653 435 448 865 2409 5459 
3214 1520 4486 5558 1565 3945 433 5793 4496 
5850 3293 947 1472 221 5918 5583 3574 5415 
2897 1668 3656 5804 3602 1944 4570 3169 1368 
555 3839 437 2188 1734 1831 3754 1922 2251 
1684 1860 3367 5047 5983 2888 301 413 2300 
526 1835 2374 160 2480 4143 52 1153 5969 
5646 368 2689 1840 3161 4103 4391 1336 1524 
1357 3405 3427 2296 5194 616 406 2047 2281 
4166 1951 5355 3428 2258 1809 3836 5896 4337 
1587 2672 1345 2436 2571 3381 4622 2232 5630 
5103 1585 1337 450 5223 3304 257 4814 2278 
1658 2302 2724 3736 2988 4077 2641 1806 2667 
50 5167 1140 176 1035 1539 447 881 4124 
1251 2677 5379 812 309 2774 3042 5380 111 
3815 5620 2819 94 5082 5831 4793 1187 4326 
1084 4998 3802 4969 4997 4950 4687 236 1308 
687 3119 5819 6050 5719 5732 2951 4046 2708 
737 3848 2792 3212 211 3185 27 128 1216 
2321 3274 1461 4196 5328 6000 2401 1398 838 
5203 5210 1619 1790 5197 5161 118 3350 820 
5460 5341 1987 3236 2386 1713 5811 3705 3920 
4336 4650 3770 2529 2451 4301 1033 4526 3495 
304 247 1941 3209 5950 3549 2673 1633 3421 
6029 2226 2293 461 183 5138 2941 4778 2833 
5626 1665 4504 4441 5776 5801 3296 667 105 
2332 1432 3681 3187 2912 1192 1716 2317 2467 
4750 4931 4038 681 2337 1903 2573 5426 3934 
5605 3589 2685 2772 3594 3835 3850 4820 3629 
5718 493 205 2623 1417 839 2731 3412 848 
987 449 4406 4524 5927 4938 5592 899 2501 
3446 4114 1058 4031 575 939 3857 2005 3716 
3376 3570 2656 4339 1327 5267 975 923 3942 
1089 218 107 4420 3041 581 1906 2506 1418 
3773 2310 3947 4145 5135 2260 2404 5279 2675 
5911 4398 4943 2692 1712 3053 4025 1902 3080 
2259 2367 1034 5902 5026 5236 2111 1878 282 
585 2447 5915 1229 2269 4655 3253 3330 3801 
792 2316 1693 3890 764 5797 4 2006 4082 
3655 5876 4510 2421 5133 5336 2688 5182 2127 
2827 4449 3810 6032 5125 5150 2470 34 2392 
4707 2841 4577 3873 3417 4285 352 3286 1993 
1285 171 3535 3333 3156 2531 744 10 3688 
5049 5091 967 623 703 5515 3310 5707 893 
1899 5094 3877 4983 2227 4868 5168 4015 5786 
4864 4188 1430 2612 1224 3458 5555 3842 2315 
3000 350 5348 1053 2455 5959 1174 4986 696 
2665 1292 3153 3051 4400 1246 4113 5401 2035 
3109 2120 2013 3113 5190 5397 5403 5795 1612 
1190 3734 1894 1148 1191 734 513 1721 4584 
3840 2471 2911 6011 969 305 2525 4266 5304 
4313 5576 5722 4363 127 5237 4637 2458 1392 
2666 4906 2868 3511 4180 774 484 3244 1335 
1325 2024 2423 5953 3515 4623 138 4560 1295 
985 1264 203 698 294 5391 2406 5778 1937 
1743 5834 5058 3501 3568 3965 3197 1625 3845 
5152 5877 3083 828 360 3453 3004 4255 4228 
5886 806 2096 2985 6009 1562 2008 1129 5232 
1212 4282 3297 1556 2693 5952 640 4152 3882 
4810 4626 4322 1456 4411 738 170 3637 1709 
2498 1408 2060 5229 1307 1143 3110 2566 1420 
1091 228 6051 5697 1457 6026 2669 4312 1655 
2400 1873 2279 949 825 1945 4556 4390 705 
1774 4473 2817 1590 3864 4054 2029 5760 1049 
2915 2068 4249 3195 2333 1214 3552 4625 2256 
120 4572 3099 1356 4826 3115 5599 3460 4146 
1007 597 2432 1624 3662 2057 4923 5958 4975 
522 1575 3628 2053 5246 4405 5861 3986 340 
3701 2565 146 2528 1350 731 5579 394 4857 
387 19 3496 3546 3096 2614 3347 2746 3855 
5554 4059 5451 4539 4204 1047 4693 4553 4410 
2015 4837 1973 4454 4167 4554 6012 5742 3579 
147 51 4533 3097 427 926 4436 1415 2878 
3941 4084 5387 4836 4588 2574 5767 1528 43 
1202 1433 318 3512 2519 3143 2135 1867 4747 