# vtk DataFile Version 4.2
Generated by LIGGGHTS
ASCII
DATASET POLYDATA
POINTS 5997 float
-0.0165203 -0.0172428 0.0124471 -0.0150911 -0.018557 0.0118565 -0.0133857 -0.0197283 0.01178 
-0.0117136 -0.0208437 0.011986 -0.0099158 -0.0217115 0.0123166 -0.0099647 -0.0198007 0.0116849 
-0.0115989 -0.0186849 0.0120038 -0.0133312 -0.0176146 0.0120203 -0.00972292 -0.017536 0.0115646 
-0.00447519 -0.0194964 0.0111412 -0.00315535 -0.0233759 0.0114607 -0.00807316 -0.0224239 0.011535 
-0.00815028 -0.0203247 0.0124011 -0.00786376 -0.017408 0.0129432 -0.00647028 -0.021406 0.0121757 
-0.0063866 -0.0193789 0.0118413 -0.00182902 -0.0219948 0.0123899 -0.000992676 -0.0201544 0.0122639 
-0.00563864 -0.0232427 0.011747 -0.00451233 -0.0217156 0.01245 -0.00424599 -0.0174559 0.0124655 
-0.00302095 -0.0203815 0.012531 -0.00243229 -0.018493 0.012218 -0.0013013 -0.0239035 0.0120445 
-0.000299684 -0.0182972 0.0119144 -0.0061519 -0.0169822 0.0118531 -0.00158334 -0.0167251 0.0115551 
0.00605403 -0.0224005 0.0102256 0.00680892 -0.017555 0.0108726 0.00347962 -0.0217236 0.0112899 
0.00532533 -0.0208416 0.0113514 0.000821997 -0.0199816 0.0111447 6.09346e-05 -0.0217849 0.0116176 
0.00351779 -0.0236288 0.0121685 0.00672666 -0.019466 0.0122547 0.000960684 -0.0238351 0.0129401 
0.00526421 -0.022965 0.0129156 0.00200102 -0.0186055 0.0121276 0.00409107 -0.0191061 0.0119521 
0.00709415 -0.0227706 0.0119912 0.00463123 -0.0172122 0.0115796 0.000963071 -0.0170633 0.0129265 
0.00804105 -0.020827 0.0116074 0.00812761 -0.0179231 0.0123735 0.0114327 -0.0207657 0.0103586 
0.00933586 -0.018952 0.011125 0.0115903 -0.0184656 0.0111031 0.0151861 -0.0184133 0.0112085 
0.0100565 -0.0208086 0.012064 0.013432 -0.0197997 0.0115771 0.0133629 -0.017641 0.011575 
0.0160455 -0.0177587 0.0128985 0.0101512 -0.0174988 0.0126184 0.0166655 -0.0169117 0.0107869 
-0.01828 -0.0095566 0.0111722 -0.0191845 -0.0143752 0.0123444 -0.0201403 -0.012659 0.0115376 
-0.0170573 -0.0141746 0.0120916 -0.0182264 -0.0126291 0.0125976 -0.0171585 -0.0109368 0.0121218 
-0.0212061 -0.0109999 0.011907 -0.0200751 -0.00925039 0.0122467 -0.022092 -0.00919162 0.0126514 
-0.0155534 -0.0154931 0.0123241 -0.0158798 -0.0123979 0.0127033 -0.0144261 -0.0138218 0.0124635 
-0.0115703 -0.0166251 0.0120848 -0.0124118 -0.0139854 0.0123619 -0.0135593 -0.0156253 0.0121641 
-0.0105926 -0.0148642 0.0119636 -0.0108217 -0.0128753 0.011873 -0.0137112 -0.0119773 0.0121307 
-0.00897582 -0.0120766 0.0117071 -0.00906259 -0.0138387 0.0128249 -0.0151869 -0.0106178 0.0119563 
-0.0131198 -0.0100461 0.012089 -0.00993706 -0.0101543 0.0120464 -0.0146297 -0.00866584 0.0121845 
-0.00788661 -0.0107677 0.0127586 -0.0070921 -0.0127004 0.0124039 -0.00338953 -0.0155361 0.012126 
-0.00311527 -0.0135041 0.012356 -0.00151542 -0.014704 0.0119703 -0.00255558 -0.011592 0.011948 
-0.0045301 -0.0121274 0.0116516 -0.000477283 -0.0113695 0.0127219 -0.00397638 -0.0103028 0.0125801 
-0.00587849 -0.010916 0.0124974 -0.00141125 -0.00951093 0.0120859 -0.000179434 -0.0133496 0.0125858 
0.00627128 -0.0152769 0.0109597 0.00394734 -0.0111511 0.0113844 0.00802575 -0.0160904 0.0115583 
0.00507409 -0.0144105 0.0123564 0.00171466 -0.0138069 0.0121265 0.000471648 -0.0153082 0.011653 
0.00693773 -0.0123861 0.0121472 0.0017517 -0.011632 0.0121627 0.00279277 -0.0157325 0.0114005 
0.00359281 -0.0131371 0.0119162 0.00573808 -0.0107281 0.0122366 0.00765334 -0.010515 0.012802 
0.000595159 -0.00976237 0.0121933 0.00259968 -0.00981683 0.0121057 0.00641039 -0.00885026 0.0124271 
0.00827245 -0.0139454 0.0117212 0.00422216 -0.00861032 0.0121659 0.00884471 -0.0118074 0.0117784 
0.00964898 -0.0153202 0.012458 0.0114958 -0.0145812 0.0117211 0.0119163 -0.016456 0.0124671 
0.0101331 -0.0132618 0.0124339 0.0135704 -0.0151115 0.0127113 0.0127437 -0.013 0.0118912 
0.0110504 -0.0114883 0.0116136 0.0146838 -0.0116732 0.0114538 0.014723 -0.0136004 0.0120495 
0.0130222 -0.0110655 0.0123843 0.00977092 -0.0102015 0.0125572 0.0152202 -0.0161533 0.0119702 
0.014514 -0.00967286 0.012181 0.0116693 -0.00958688 0.01236 0.0164573 -0.0145729 0.0118462 
0.0165225 -0.0124739 0.0114718 0.0165039 -0.0104007 0.0118293 0.00844165 -0.00871233 0.0124068 
0.0195993 -0.0104873 0.0113164 0.0222681 -0.00855457 0.011543 0.018148 -0.0156078 0.0115377 
0.0193454 -0.0139704 0.0115851 0.0184904 -0.0121263 0.0116057 0.0205804 -0.0123202 0.0116699 
0.021553 -0.0104865 0.0118584 0.0183994 -0.00887877 0.0117074 0.0203254 -0.0090748 0.0126918 
-0.023278 -0.0051637 0.0108095 -0.0203396 -0.00225008 0.0113984 -0.0192667 -0.000558878 0.0113222 
-0.0236651 -0.00035152 0.0107043 -0.0207667 -0.00739864 0.0119348 -0.0215456 -0.00549412 0.0117547 
-0.018715 -0.00777058 0.01199 -0.0170709 -0.00583212 0.0124739 -0.0227937 -0.00718514 0.0120552 
-0.0199335 -0.00426273 0.011634 -0.0218052 -0.00350683 0.0119698 -0.0183614 -0.00236959 0.0118099 
-0.018251 -0.00419675 0.0127935 -0.0190658 -0.00603335 0.0129228 -0.0233897 -0.00469001 0.0127674 
-0.0237314 -0.00295736 0.0117504 -0.0222624 -0.00154267 0.0116137 -0.0166576 -0.00797447 0.011622 
-0.0165371 -0.0035697 0.011798 -0.0127204 -0.00804293 0.0119146 -0.0107346 -0.00825648 0.0122765 
-0.0094153 -0.00674454 0.0122225 -0.0110614 -0.00562553 0.0125663 -0.0150424 -0.00669753 0.0121212 
-0.0131027 -0.0060565 0.0122511 -0.00991641 -0.0039251 0.0123693 -0.0119287 -0.00383673 0.0122668 
-0.0150319 -0.00474937 0.0126103 -0.0100697 -0.00196828 0.011921 -0.0142988 -0.0019521 0.0122957 
-0.0121259 -0.00185475 0.0120289 -0.0165047 -0.00160755 0.0122192 -0.0109844 -0.000155742 0.0116802 
-0.015162 -0.000119867 0.0125445 -0.00379867 -0.00824543 0.0123292 -0.00392484 -0.00552924 0.0121267 
-0.00591096 -0.00478634 0.0121369 -0.00765655 -0.00573908 0.0125234 -0.00711621 -0.00769822 0.0127449 
-0.000119812 -0.00790308 0.0118858 -0.00196216 -0.00514095 0.0120901 -0.00529549 -0.00686131 0.0128412 
-0.00202056 -0.00729021 0.0119989 -6.44968e-05 -0.00455322 0.0123592 -0.00784512 -0.0037563 0.0120861 
-0.00434032 -0.00348818 0.0123111 -0.00228052 -0.00315631 0.0120185 -0.00609611 -0.00251294 0.0120669 
-0.00805996 -0.0017574 0.0119436 -0.00142485 -0.00130796 0.0122016 -0.00623816 -0.000508117 0.0119857 
0.00228956 -0.00782559 0.0124262 0.00550895 -0.00705076 0.012272 0.00127825 -0.00609007 0.0121741 
0.00751109 -0.00693885 0.012275 0.00635271 -0.00524344 0.0124211 0.00611958 -0.00326196 0.012637 
0.00148227 -0.00312091 0.0126748 0.00411556 -0.00261845 0.0124481 0.00793462 -0.00256627 0.0121689 
0.00257507 -0.00130338 0.0123306 0.00522047 -0.00081332 0.0123161 0.000556869 -0.00102122 0.0116285 
0.00766395 -0.000562568 0.0124024 0.00866904 -0.00532377 0.0120207 0.0103143 -0.00820803 0.0118055 
0.012261 -0.00744251 0.0120591 0.0132305 -0.00567209 0.0121269 0.0114863 -0.00452636 0.0119259 
0.0104613 -0.00623773 0.0123 0.00970296 -0.00356024 0.0118514 0.0149507 -0.00478438 0.0116168 
0.0132971 -0.00367011 0.0119161 0.015962 -0.00644764 0.0120885 0.0151203 -0.00286542 0.0121622 
0.00974465 -0.00157198 0.0121126 0.0135112 -0.00162326 0.0121581 0.0165771 -0.00149379 0.0121492 
0.0116638 -0.00111859 0.0128219 0.0164575 -0.00838537 0.0117232 0.014992 -0.000272455 0.0124936 
0.0228617 -0.00669131 0.0110397 0.0207415 -0.00724267 0.0116275 0.0178958 -0.00697898 0.0121177 
0.0194726 -0.00567896 0.0118225 0.0174537 -0.00509314 0.0115886 0.0215308 -0.0054145 0.0119995 
0.023443 -0.00463479 0.0116798 0.0185353 -0.00335712 0.0117145 0.0202487 -0.00395181 0.0126527 
0.0219113 -0.003356 0.0115243 0.0203537 -0.00210372 0.0116912 0.0237914 -0.00243675 0.012251 
0.0185677 -0.00124564 0.0120317 0.0222456 -0.00122989 0.0117853 0.0202509 -0.000177482 0.0122564 
-0.0214435 0.00339542 0.0110107 -0.0192005 0.00584053 0.0110769 -0.0199941 0.00201365 0.0115213 
-0.0211591 0.000106864 0.0112939 -0.0229813 0.00193389 0.0112359 -0.023527 0.00401952 0.0112882 
-0.0230357 0.00629783 0.0111446 -0.0208864 0.00701478 0.0110543 -0.0170292 0.00586373 0.0114542 
-0.017451 0.000310749 0.0117842 -0.019162 0.00387649 0.0117083 -0.0181482 0.0022355 0.0123017 
-0.0215581 0.00150683 0.012683 -0.019307 0.00069492 0.0128804 -0.0214617 0.00572431 0.0128155 
-0.017143 0.00391515 0.0118891 -0.018309 0.00726558 0.0121625 -0.0223889 0.00802107 0.012191 
-0.0149219 0.00684806 0.0111548 -0.00958972 0.00348578 0.0120536 -0.0130658 -7.24709e-05 0.0118868 
-0.0119043 0.0016266 0.0117499 -0.0129373 0.00335421 0.0119339 -0.0141621 0.00172231 0.0119982 
-0.0098446 0.00148071 0.0119871 -0.0161181 0.00172242 0.0124479 -0.015026 0.00346127 0.0114968 
-0.0111184 0.00555317 0.0121327 -0.0138017 0.00525633 0.0116803 -0.00915792 0.00628433 0.0122975 
-0.0127061 0.00700852 0.0117888 -0.0162773 0.00735975 0.0125964 -0.0107578 0.00763548 0.0116103 
-0.00301749 0.00674737 0.0109104 -0.007989 0.00224977 0.0114611 -0.00102281 0.00768159 0.0112066 
-0.00824066 0.000217036 0.0116741 -0.00407389 0.0034657 0.0116572 -0.00149639 0.00263169 0.0118604 
-0.00351638 0.00155484 0.0121192 -0.00554002 0.00144342 0.0118671 -0.0017143 0.000671435 0.012218 
-0.00634803 0.00328536 0.0120993 -0.00235312 0.00462795 0.0122845 -0.000371972 0.00428257 0.0119605 
-0.00427261 0.00543561 0.0120207 -0.00615544 0.00639467 0.0116768 -0.00153533 0.00641926 0.01273 
-0.00743158 0.00789083 0.0124246 -0.0031519 0.00805845 0.0129045 0.00487527 0.00530024 0.0109764 
0.00272592 0.0059476 0.0114815 0.0039042 0.0080151 0.0114721 0.00167735 0.00804831 0.0111785 
0.00798733 0.00287348 0.0120152 0.00657421 0.00114503 0.0120476 0.0057443 0.00297959 0.0119748 
0.000580365 0.00159137 0.0118365 0.00252798 0.000652717 0.0118338 0.00455817 0.00109866 0.0123005 
0.00167105 0.00414744 0.0116141 0.0030582 0.00266336 0.0119427 0.00683209 0.00479743 0.012017 
0.000513333 0.00610179 0.0119522 0.00618551 0.00689683 0.0118041 0.00824041 0.00718707 0.0116023 
0.00883611 0.00483514 0.0122381 0.00885654 0.00100306 0.0119934 0.014691 0.00580419 0.011518 
0.00999034 0.00298069 0.0118915 0.0130704 0.000296441 0.0125336 0.0137806 0.00216684 0.0124133 
[...]
POINT_DATA 5997
FIELD FieldData 7
id 1 5997 int
1320 72 210 332 3217 689 86 489 366 
1284 31 1586 1972 649 676 212 756 611 
397 1217 166 1649 20 808 641 1067 1119 
23 849 983 151 1221 162 812 64 176 
1555 16 1875 479 580 69 920 230 48 
1241 493 286 597 856 364 484 1499 550 
1066 791 246 2464 963 433 295 1390 1389 
1163 1059 1856 259 1474 285 223 503 145 
1096 781 558 2070 761 708 226 2226 626 
1400 403 243 718 452 709 369 913 899 
83 1692 379 14 624 970 100 1375 1141 
2017 87 108 1664 107 543 2298 1772 565 
1073 1811 160 213 1013 480 1733 728 105 
988 661 637 442 711 68 1430 820 1540 
754 751 261 1121 818 799 488 690 420 
2330 137 882 271 606 2338 1299 1829 392 
497 1267 878 1010 2471 3565 1159 1322 1089 
684 991 568 2868 1172 719 581 804 2258 
1237 1627 318 1765 643 1197 1483 184 1505 
824 554 142 1369 2127 592 759 1062 1493 
3151 2016 2116 2187 994 713 2 1757 1492 
92 445 124 1604 1088 1900 2143 1629 316 
390 712 408 109 1755 1570 1 870 779 
469 974 371 144 695 359 393 1769 2133 
796 577 354 57 367 950 1041 254 798 
361 961 1222 132 281 1523 1190 844 270 
414 180 1265 505 1106 1314 1058 887 939 
2403 352 173 1658 601 506 651 2343 1124 
1490 727 1230 1808 200 467 677 1636 1104 
1582 450 29 2263 301 2327 2451 1419 1398 
1077 1899 234 1227 2720 2069 168 2037 1545 
944 2274 2780 1229 2753 2399 348 2401 1035 
2440 817 1481 1881 1624 1365 1527 4229 4084 
2681 2313 2130 1589 94 1652 741 128 743 
1958 150 2169 2114 734 2692 161 277 771 
399 766 227 205 1680 1603 113 76 1200 
309 1642 666 1904 610 3124 800 292 1848 
1565 1263 1735 784 402 1161 1288 1107 2244 
2452 2508 2224 3762 534 353 1410 4557 1213 
507 1858 857 1912 1333 1475 1026 1595 1173 
1947 4062 5278 989 2605 333 509 841 275 
481 3340 1746 2503 3215 5042 4860 517 1944 
458 972 1607 985 4521 1279 1264 2537 220 
2735 1928 2631 2912 2173 3989 471 579 1443 
1559 2713 1282 428 3478 33 1072 747 1444 
2390 2597 683 832 1167 2154 159 382 1098 
79 175 3184 3906 730 4381 47 4225 4234 
4433 4731 3313 2350 1105 4919 2229 3746 1108 
1592 3153 1751 4202 4582 4141 2811 4495 1645 
3648 979 5357 3253 4816 4559 28 2757 787 
536 2030 146 2036 5573 4478 3748 1368 3585 
1330 1991 5174 3837 3963 4795 502 1562 483 
7 74 3306 1744 1182 1812 5202 3032 4446 
5420 1501 65 2038 1045 4868 587 2342 3584 
1136 419 4348 2025 4829 2048 4166 5447 4717 
5224 1304 2877 3274 1064 4631 518 447 2652 
4935 5068 5146 2444 1150 2458 2234 4968 1111 
1810 1968 764 729 4480 13 614 3166 3570 
618 2593 1840 2558 1694 3770 1449 671 1016 
644 1129 4112 1913 1008 2824 4475 2727 1670 
2911 3637 2740 2552 157 3339 2997 2981 3632 
2414 4905 4237 3758 3930 3400 2520 158 1007 
1901 1305 37 2049 2398 2669 1100 302 2103 
2072 2482 2836 1528 85 3022 3476 409 4306 
706 2275 595 1631 2243 3273 3495 3371 1571 
1738 2728 2673 2845 3207 2384 4549 1372 2339 
3390 570 733 1690 1729 631 1747 2442 2741 
2633 388 578 773 154 702 760 657 179 
46 962 875 215 1513 2595 1051 1254 1722 
11 3188 916 2301 1639 61 973 1338 1186 
1193 425 1554 1346 1406 185 4 714 1760 
219 2364 1307 3544 1402 2409 2576 2074 1411 
2304 1983 2454 2190 1580 2230 462 560 2507 
2073 830 81 2290 2792 2067 2509 3412 3010 
3874 2819 2843 1118 2424 2271 2376 687 769 
2296 453 884 2805 1866 2135 463 2453 2408 
3225 1114 3381 473 1711 1215 917 1787 2423 
279 1404 3029 2374 3945 5376 3327 4610 1383 
163 2417 3664 1502 2717 5223 3221 1534 2598 
3078 863 2134 1766 1343 1532 2560 34 241 
2416 971 2510 3725 3401 5015 4025 5043 5235 
2847 1745 1635 3200 2655 218 186 2804 98 
770 1838 1262 1337 1473 546 237 3109 511 
1339 1021 2716 3002 2946 2193 2040 2833 50 
802 1353 519 2242 3790 3202 1191 1698 1378 
1019 1546 326 3 2115 2629 269 1318 5074 
3073 2366 3712 3777 2253 1921 102 181 2091 
704 472 640 342 131 2354 949 621 2856 
274 1176 880 395 749 1165 1906 1110 1039 
1228 1269 504 1648 1001 1730 2388 4129 625 
3397 252 2420 3012 1526 3396 675 1891 2062 
3794 3352 1930 902 1695 648 1094 2228 2499 
1857 2138 3970 3164 1195 1783 3158 4211 1767 
2457 3513 1399 1824 1070 1543 155 1776 439 
138 475 633 1509 1360 91 278 122 443 
1302 731 2748 437 1880 848 1347 2626 172 
224 2429 1584 1506 737 3331 368 540 1226 
273 206 1218 298 1614 732 193 943 816 
582 1815 636 995 77 1126 1675 964 957 
17 894 1202 378 854 156 71 110 619 
432 56 62 627 1002 115 647 232 692 
1071 881 1177 890 783 904 123 723 235 
531 935 457 748 541 908 851 383 214 
1429 1572 310 588 147 1113 211 126 2541 
889 183 2842 1329 1421 1482 1538 461 1691 
562 1379 1199 797 686 980 2530 1718 1779 
2387 2151 2285 1412 2944 2152 3665 2467 3813 
2383 1122 959 1885 2432 407 2023 3378 2240 
3234 2707 2450 1250 940 2470 2533 2028 2378 
3033 3034 1283 1253 3341 3556 4130 2512 36 
2421 2351 2245 2345 1518 1638 449 3799 4493 
2730 3199 1511 15 805 599 2212 464 2372 
2085 3548 966 1801 1672 174 860 656 2513 
1261 2331 936 3075 2155 2893 1457 3053 1207 
2480 1354 2299 3564 2337 2778 3391 3100 2904 
537 3037 955 3366 2762 2998 2697 2018 600 
2159 2975 2126 2312 3802 2850 3067 3383 2215 
1609 3007 1768 97 1074 553 2100 456 2039 
2005 1637 58 2567 1425 1103 2341 564 427 
1655 2264 1703 1308 1300 1525 789 2846 864 
3553 3232 2014 117 1032 2764 2687 1920 1817 
2902 3518 2053 1633 530 3462 3284 1954 2602 
1797 3873 4252 1998 3389 1130 103 1084 32 
2724 363 1742 1630 1220 1535 3287 1651 478 
1189 1183 2222 2915 1068 1468 1777 1520 752 
2129 513 716 3348 1042 788 2084 1006 960 
2293 1792 1491 299 2527 2158 3329 2592 2958 
3229 650 247 1567 2254 1453 529 3501 2206 
508 491 1248 1842 228 905 1205 2255 573 
391 169 1426 413 340 668 598 1028 347 
344 981 794 1550 1294 63 593 251 30 
1146 557 866 1770 2288 2317 1594 1047 2612 
482 1408 396 1662 1667 18 909 1043 926 
1578 111 255 2693 1666 1325 1887 1394 1581 
2890 202 1752 2273 952 2176 52 2080 171 
861 586 238 268 373 1367 343 35 1351 
455 1223 362 998 740 1017 999 199 526 
525 1015 1049 1843 679 1359 549 178 262 
1724 112 846 945 815 38 328 1587 1256 
93 630 898 976 978 1432 1065 1579 257 
325 885 755 744 73 735 1203 1004 242 
608 8 372 1132 249 681 662 793 900 
495 127 263 101 1382 329 384 297 604 
1895 1564 2076 1441 284 494 1249 22 931 
544 912 3001 2320 1786 879 2112 1956 1268 
2906 3192 3148 2677 2183 330 118 2581 2446 
2706 1953 2007 623 424 182 635 1428 2098 
819 189 40 670 1424 140 2463 516 877 
365 2353 1063 836 951 1101 1240 2570 3155 
1243 2459 27 2763 2208 5 1440 1376 334 
1187 244 426 1276 694 777 852 1969 921 
672 1646 375 2916 1919 2043 2389 3297 253 
1753 552 937 2744 356 2483 327 1030 938 
1679 2400 21 801 807 1168 258 2360 2427 
2081 1676 2625 1427 2630 2771 1653 1836 1384 
1952 1316 3523 2903 49 3000 2333 1157 3298 
3752 2795 1529 1933 1619 1668 825 2756 1415 
1576 2648 2113 2287 2613 2583 2658 2249 2650 
3159 1476 2696 2732 1510 1036 1807 3118 2501 
947 742 2433 1370 3294 2907 1214 3444 3238 
778 2711 3629 1669 2645 3823 823 3322 5005 
3903 4310 3572 4896 2774 2965 2261 350 2000 
3554 698 3427 1876 3724 3058 2490 3194 4756 
5483 833 2498 2957 283 2171 2823 1152 1331 
2474 2701 351 1332 1275 2869 355 3960 3569 
1143 1761 2986 1079 1678 2534 1936 2065 3394 
1717 2930 4273 3540 3831 1472 265 1990 3300 
3521 501 1451 2830 3958 3266 1849 4172 2051 
1488 444 1973 1979 3277 3672 3239 2665 2962 
4022 2924 2806 3049 2875 3734 1663 3224 3624 
4468 2880 2775 2967 2736 313 1386 1225 1295 
745 1907 1781 25 1137 1272 2083 1850 822 
1813 1641 2019 4753 1932 2332 3374 2659 2539 
1939 810 3178 2550 2139 1336 3358 5896 3081 
5168 1888 753 2485 248 422 603 613 2818 
3594 892 448 3386 3561 4336 3510 315 1033 
498 622 1020 1350 320 96 660 907 466 
2031 377 2167 539 276 1198 843 116 987 
2825 400 1845 1435 874 89 291 620 1204 
1278 1147 1153 2738 2348 1029 3527 239 1321 
1174 3607 231 1273 868 726 1517 1611 3316 
1025 55 813 922 669 845 2192 646 2239 
659 197 1281 4308 1566 1175 891 2905 928 
3283 3119 3531 2561 1626 2776 2365 3693 4231 
883 3526 3333 4024 2213 2063 476 2900 3213 
2841 2202 3560 4103 1544 763 2422 566 3103 
2794 2102 3219 2319 3452 2425 3909 3728 2695 
1986 3558 2059 4970 4230 3014 3512 4307 3289 
3489 4313 4524 4411 4361 2929 2698 3552 3670 
4959 699 4053 3539 3380 2009 4120 3416 3996 
4104 3559 5393 5243 2147 3271 4581 4204 2884 
4641 4908 5165 4589 2266 4482 4796 4464 3759 
3082 4090 4519 4369 5735 4679 4272 2201 4473 
3004 2979 4190 3741 4097 4223 5254 4065 3883 
4870 2943 3781 4966 4382 3172 4108 3384 5200 
5810 4617 4540 3407 4597 3694 5207 2940 5091 
5481 5140 3681 4030 3522 5801 6059 3170 4037 
4900 4472 2596 4577 4505 5309 2964 4263 3494 
1610 2162 3776 3367 2839 4015 3193 4785 3311 
3009 4396 3932 4817 3520 4070 4248 2968 4703 
4623 3739 532 3086 5868 4232 2945 3901 2812 
3990 2179 4437 3506 6017 4512 5829 3586 4023 
2608 5941 4329 5350 4700 2555 3610 969 2594 
1080 2803 2646 2950 4068 2600 4955 2983 1834 
4762 5288 2828 4454 4124 4537 3595 2689 5739 
2280 5409 3913 3784 3069 4792 2269 4819 3661 
2733 2870 1459 3590 946 2838 152 1640 2221 
423 634 1820 1946 5386 4119 4985 4451 3068 
5772 256 3355 4458 2071 2207 3413 3347 4737 
6007 1219 5098 2373 2050 3985 5550 5282 4909 
4958 5014 3140 4256 5847 5911 3440 2683 4490 
4370 3657 4654 4533 2122 2647 4181 3312 3662 
2101 4146 2438 1993 3346 3165 4147 3865 4406 
5642 3984 4671 5564 2879 4883 4835 5589 5275 
4294 3066 3018 3496 4347 4315 4632 3946 4246 
3711 2322 4327 1606 4572 3350 4979 4880 5753 
5813 3433 2564 2578 4107 3301 4354 4850 4262 
5917 4357 4343 3785 4713 2821 5729 3195 5750 
5103 4591 2198 4646 5082 5176 5390 5115 5884 
4249 4580 4372 5410 4162 5353 4605 3680 5421 
5416 4532 4624 4392 3388 5659 4383 5121 5510 
5478 2585 4932 1890 4280 5204 5862 3236 4890 
4565 5359 2777 4971 5538 1081 1889 4086 2849 
4551 1549 3163 5671 3795 4191 1027 2883 4011 
5711 2705 3479 4858 6064 4664 5876 4449 2124 
5704 4789 4526 3789 5857 4907 5768 4745 5818 
4378 5135 5099 4393 5627 4424 5632 5419 2109 
5283 5333 6046 5262 5277 4403 5848 5755 5694 
4506 5781 4127 4875 3885 5608 5824 4956 5094 
6053 4621 3324 5370 4320 5195 4596 5156 4724 
4351 4286 4825 2854 5120 4809 5959 4793 5189 
5571 5960 5540 5211 3621 5697 5799 6027 5986 
5609 4200 6036 4738 5451 5520 2529 4241 4760 
4187 6041 5630 5310 4199 3999 5957 5444 5036 
5893 4987 5914 5603 5331 5680 3240 1714 5201 
5789 5029 5326 5536 5143 3668 3697 2770 4387 
5705 4409 2703 5180 3807 4934 5427 5561 4683 
5790 3593 3292 3596 5255 5476 3472 5509 3546 
5618 4346 5706 4916 4321 6023 5879 5304 5373 
3498 2609 5155 4094 1995 2799 5915 2278 3227 
5796 5038 59 1552 1599 3821 3272 3977 4305 
1699 975 338 2772 3659 4840 5006 4655 129 
1754 416 5809 5551 3652 293 2008 2121 1037 
837 1232 545 2739 602 208 496 1465 680 
1728 720 346 2466 5269 1500 2223 3486 3535 
2131 4981 3968 2641 3524 4618 1937 3736 2181 
4892 1980 3700 2700 3702 2026 3751 336 2788 
1461 4057 1671 3096 1247 3085 4186 2603 2231 
1924 3146 1773 2714 2082 3211 4483 2610 3453 
5105 4019 2519 4652 5927 1940 4389 2515 3708 
4431 5241 4650 4457 5228 2899 5279 3625 4984 
4510 5714 3780 4823 3475 3852 4906 4788 3756 
5374 3591 3843 5619 3368 3031 4152 2566 6070 
4071 4254 5372 3395 1854 2761 3455 3090 3457 
4799 3376 3426 2358 5496 5032 5533 5459 4550 
3041 5113 5106 1681 1401 5582 3937 2708 4944 
2058 2572 5605 2410 2954 3851 4660 5749 5348 
5340 4598 5965 5023 3019 5629 3505 4161 5002 
4283 4527 2203 5989 3317 3052 5100 4999 5874 
2664 2952 5181 5701 5475 5097 4772 3732 4952 
1784 4017 4292 5221 3059 4886 3599 5860 5778 
5354 5613 3683 2684 1504 2637 3623 4136 1775 
3275 4466 5490 3160 2297 4215 3308 3402 5806 
4456 5065 3074 5086 5734 3038 3162 4665 3603 
3606 1893 5215 4702 5454 3817 4450 4647 4744 
4543 4861 5539 2927 3743 4687 5117 5751 2545 
2817 1209 4969 3862 3436 2001 1942 3577 2521 
2200 4691 380 2971 4836 3065 67 757 1521 
528 1723 2456 296 2096 3183 2657 1046 628 
3127 305 3822 2371 3690 2078 1391 1720 1598 
45 1053 693 404 1489 1661 862 130 1235 
99 1048 967 95 1286 2855 1605 4798 1902 
492 1233 2108 70 148 782 609 1319 1486 
1169 436 703 1285 1151 584 446 1297 930 
2289 527 1178 1602 201 1539 691 896 1115 
290 673 10 314 639 1095 765 1244 435 
240 470 750 867 1771 1644 454 1112 717 
1292 792 982 4101 1950 4440 3488 1507 3093 
3678 4961 3519 3445 4637 3796 5467 3966 3025 
2186 2455 3080 3422 3733 4216 1469 3998 3154 
3429 4418 2910 2233 3064 3259 4419 3893 2988 
2588 3006 3286 1970 2270 3689 5741 3030 3437 
3529 3949 2575 3855 2959 2618 4316 3399 3393 
3027 4134 3257 2867 1588 2644 3263 3710 3982 
3888 4077 3951 3003 3833 4301 3979 3920 3942 
2999 2876 1628 1301 1326 2294 2493 2734 2790 
2579 3641 3614 3698 1363 3972 2426 3459 2786 
3451 3256 2816 2966 2336 3410 1790 2394 4165 
4779 3760 2496 2569 2793 1894 4689 2477 3961 
4465 4046 4678 3571 3072 4448 4337 3773 3615 
3602 4625 1702 3745 2666 3364 2346 2702 4963 
3507 4375 5699 3707 3385 2784 4414 2495 2385 
3466 3189 2617 2832 1158 1748 2465 2303 3077 
2976 2095 2088 2923 2300 3514 3403 3279 1454 
4578 5057 3133 3431 3013 3138 3415 3750 2853 
4179 790 4822 335 3048 3337 3270 1965 2712 
66 1145 2829 3338 4089 3079 3808 1450 2635 
1984 5306 3050 5073 3414 3839 4250 3872 2670 
195 1938 2892 2808 2532 910 3372 2344 2925 
1315 4258 2191 2369 3315 3545 9 1309 312 
3467 1090 2815 2439 3749 2145 1763 2535 2660 
3912 3918 1994 4270 2963 3955 2937 3679 2292 
1418 2544 3449 3398 4151 583 2164 3332 2046 
3573 4391 4459 2767 1583 2861 4801 2165 5404 
3611 1054 847 1078 953 2149 1364 1978 1289 
785 370 104 207 1131 300 474 440 585 
2318 705 1830 2021 133 1352 2077 260 1612 
1910 1310 992 2865 1585 701 1883 3343 1405 
2559 1557 1463 2710 2473 2443 1844 287 984 
774 136 522 685 1075 1149 1673 655 827 
357 88 1563 738 567 412 997 821 1056 
317 1739 758 289 1116 1731 1632 1494 2367 
75 51 591 221 1120 1031 707 638 1715 
139 153 1556 225 1170 1140 337 1821 358 
1460 167 923 1044 345 512 188 2992 2148 
2721 2591 2719 1155 2961 2060 3091 3547 3974 
2359 3469 2858 1929 2947 2851 2461 2252 2079 
3303 1208 1280 1701 2587 2619 1721 1362 1194 
547 2577 3089 3039 2204 1868 2436 1686 934 
3106 3947 2395 3062 2859 924 2571 1439 2277 
2170 3456 3834 4405 3092 3458 2606 3147 1618 
3956 3379 282 191 3060 1922 3071 4317 2064 
2615 2178 143 2678 4026 2125 381 3740 2478 
3638 2554 2972 3480 2837 3265 401 2785 1361 
2184 2835 3252 3803 2246 3040 2468 1512 3503 
4644 3941 4044 2491 3261 2087 4726 3555 2141 
2309 2504 3131 1366 2885 4708 4180 4154 3846 
4696 3409 2547 2766 2168 3361 2679 1206 1799 
1819 1092 941 3360 2926 4805 2307 3268 3581 
2196 3008 5344 1802 3908 3502 4553 3643 5260 
3763 4356 2506 3727 3262 1057 1706 2994 715 
3196 3704 3836 3997 3654 3604 2782 3975 3497 
3493 5343 4189 3894 4810 4682 3841 3634 4298 
4599 5491 3838 4013 3830 5479 4587 3167 3934 
3622 3369 2086 2661 3633 2942 2628 2691 2256 
3136 2329 1127 3771 3986 4561 1340 3209 3149 
3645 2759 2718 2978 4583 4436 2931 4820 2755 
3916 4399 4787 2750 3928 4255 4110 3890 2798 
4904 4080 4531 322 3419 4063 4217 3537 2919 
1210 5746 3290 2791 4841 1918 4715 4176 4332 
3857 5477 5046 3644 4245 3005 2153 3150 4723 
4339 3420 2150 3320 2434 2511 1093 2136 1185 
617 658 141 2107 1825 965 1433 2306 616 
3897 2075 1872 2989 2251 2586 697 3114 1976 
1277 2199 3104 1423 5077 2238 4251 1827 2370 
2553 2580 323 1898 1822 3244 2494 4670 121 
831 1601 559 1974 1317 1852 2685 1139 2543 
5187 1700 829 2411 2237 968 1925 389 1024 
1569 1548 551 321 460 1133 1687 3054 710 
177 198 1780 1496 1948 78 2948 1022 594 
2448 319 1960 3919 859 135 1456 4839 1992 
2210 893 2479 4344 3731 306 4592 2536 2932 
1577 190 2315 2584 2157 2779 1839 2404 2844 
4920 1927 1536 809 535 1835 490 1403 645 
2012 3636 1756 929 3094 1791 2227 2286 1531 
2214 2117 1713 1837 2913 2029 1162 3601 149 
2334 2382 438 990 2634 1774 1737 1741 1608 
873 60 4508 3592 3788 2524 4764 3609 3446 
3842 2562 4198 5000 1622 1541 3490 2826 4167 
3463 2624 4363 1192 4552 1623 2549 2827 4159 
4173 1709 5700 4497 2447 1298 5840 5318 5090 
2054 3145 2676 3896 4309 4887 1452 2305 2548 
3190 4548 3962 510 3125 2901 3886 3910 4368 
3323 3895 4575 4055 5929 5921 5242 5655 5861 
5952 3260 5286 3994 4188 3764 2742 4484 3483 
4010 5319 5566 2990 4096 3967 5526 5439 5922 
6011 3583 2671 4304 3568 5060 5402 4774 3891 
4704 1296 3900 3471 1804 2752 4734 5035 2995 
5661 1869 2974 5599 1397 3628 5236 2951 4069 
2380 3695 5718 5731 5291 3844 3819 1997 3907 
3470 2863 4656 2093 3840 2377 4612 605 1931 
2743 2882 2462 2431 2873 5634 2773 2205 1892 
2235 1882 2180 2891 1697 5728 1896 3083 3152 
2405 3677 2781 4937 4768 3226 3441 4300 3251 
3319 5919 5522 4515 2649 1759 2840 3448 3223 
3421 5039 1503 4608 2267 3791 5482 4882 1558 
4323 1099 2538 4653 1877 5763 1011 1923 1949 
1181 1537 3635 2068 3425 1789 3866 2397 2938 
1712 840 4746 2725 4871 1961 3129 5930 3940 
2437 2430 1794 3482 4033 4938 2622 2209 3276 
1349 2934 3121 4808 4827 1498 5823 2574 4901 
2189 4371 2563 4311 4001 2247 855 4925 394 
2970 3620 4009 1568 2435 3575 2314 3111 4685 
3428 5901 2316 4567 5574 5161 3113 5568 5973 
2396 4476 5920 5460 2690 4100 5549 2621 5443 
5083 5702 4158 4667 5719 4207 5193 5623 4355 
54 4422 4585 3177 4590 3674 5678 5422 2852 
5673 5765 4964 5992 5666 485 1833 4028 4535 
3686 4749 4525 4518 4775 4815 3181 1600 5825 
5872 3713 5913 5707 5556 4643 2941 5662 5761 
5828 4206 4773 5982 3639 477 236 5794 5056 
4340 2241 2760 3924 2265 903 2391 4416 24 
2809 2260 5949 888 4269 3043 465 3102 1417 
1855 5849 5803 3245 1355 3653 722 1878 1311 
2881 487 762 3248 5588 1533 1515 1160 3477 
3406 814 5413 4771 2055 5717 3576 4534 5266 
4866 5346 1886 2909 2497 4352 5951 3980 2097 
4021 1547 1125 3344 5312 4051 3868 3688 932 
5434 1455 5122 5485 4982 5238 4602 5075 4649 
5926 5301 4940 4722 5258 5365 3825 4830 3915 
4235 5877 4463 4784 5628 4693 5969 5157 4496 
5133 5507 4980 6009 4266 5592 5955 6057 3566 
5506 5841 4673 5595 5497 5844 5316 5687 5770 
5263 5654 4460 5391 5683 4965 4995 5677 4410 
4699 4201 4876 5470 4666 4996 5486 5514 4855 
5933 5950 5054 4312 4401 3285 4558 4522 5621 
5541 4600 5899 4923 5998 4864 4705 3465 4733 
3017 5125 2160 4888 5392 4326 5836 5956 2928 
5423 3779 4402 2765 5615 2250 3293 2528 5184 
4333 6022 6055 5788 3549 2518 4514 4939 5953 
4750 4721 4140 2723 4350 5440 5131 5759 5111 
4873 5383 4137 3491 4285 3122 3699 5947 2568 
3723 5820 3988 2281 1484 229 1945 918 1464 
3811 1593 4042 2412 5300 304 2531 1138 134 
1977 1274 1148 2874 3774 925 3418 294 2276 
1239 1470 3735 2386 3729 556 267 1816 4765 
4287 4634 2638 4087 2996 5488 4114 3829 5558 
3772 5567 5625 4056 4499 4709 2393 3861 2090 
3671 2991 3137 2898 3392 3468 5394 5878 4045 
3612 4962 2751 4059 5767 3045 2406 4214 3957 
5034 4983 4135 4185 4941 4712 4824 4711 5347 
4076 5182 4218 4491 5774 5492 4504 5138 5253 
3214 5382 4498 5725 5079 5641 5991 4688 5682 
3115 5247 5888 3630 5505 6032 4054 4238 6024 
4545 5428 4400 5453 5169 4328 4947 3978 5851 
1853 3812 5004 4780 5027 4786 4846 5442 5377 
5474 5563 5178 5647 4398 5784 4976 5766 5643 
5327 5116 5206 5512 5524 5261 5996 5569 5698 
5198 5607 5756 4853 4319 5954 5963 5596 5114 
5149 3969 6012 5218 6030 5863 5322 4143 4513 
5199 4111 2800 4008 4168 4563 5045 4859 5299 
4075 4184 2922 5814 4777 3525 4150 4638 3995 
5379 3827 4500 5585 1879 5137 4342 4885 3992 
2379 4743 5433 5811 5710 3460 5903 4719 5542 
5795 4986 4686 5837 4672 4917 4267 4435 2022 
3828 3542 5069 4157 5631 4929 5397 3925 2980 
663 2057 3246 2797 1257 2118 4636 2006 4461 
1334 1865 12 2194 2662 2745 2917 3304 576 
1903 3719 4064 1846 2601 4568 3120 2672 2920 
4384 2011 222 1884 5129 1290 2099 1805 1438 
2225 1179 3530 3646 4293 5205 2783 3291 2651 
1551 5341 3580 307 776 853 1987 2032 1327 
1236 1659 1688 1897 80 2502 575 1643 1782 
1708 1395 1788 667 1758 2663 1560 615 1381 
612 2089 1291 786 1055 2949 4043 1873 5171 
3182 3242 3099 5259 4160 4061 5776 4627 5271 
3948 5966 5918 4366 4485 2445 4417 4439 3375 
4502 3135 2362 4224 4082 5792 4122 4138 3430 
3965 5250 4615 5572 3798 3685 5650 4379 4257 
3087 2514 5216 3871 3931 3536 3174 4651 4611 
3097 5058 3797 4275 4156 3899 2953 4640 5688 
3562 5939 5284 3305 5305 4595 5287 2489 5916 
5528 5040 4554 5405 4973 4050 5639 2848 4538 
3675 2887 3044 4467 5909 4345 4421 3541 5640 