# vtk DataFile Version 4.2
Generated by LIGGGHTS
ASCII
DATASET POLYDATA
POINTS 5997 float
-0.0105755 -0.0214594 0.0115121 -0.013653 -0.0195615 0.011638 -0.00864555 -0.0222128 0.0118286 
-0.0138446 -0.0174207 0.0115952 -0.0159742 -0.0177393 0.011531 -0.011668 -0.0197611 0.0119026 
-0.00960114 -0.0196852 0.0118729 -0.0120273 -0.01787 0.0124537 -0.00993374 -0.0177414 0.0123551 
-0.00793062 -0.0182408 0.0116107 -0.00764983 -0.0203544 0.0114965 -0.00122493 -0.0238184 0.011064 
-0.0017846 -0.0216572 0.011103 -0.00324117 -0.0231567 0.0110174 -0.0039331 -0.021161 0.0117368 
-0.00068496 -0.0195733 0.0115338 -0.00379325 -0.0181557 0.0116781 -0.00699329 -0.0228654 0.0127484 
-0.00606676 -0.0189047 0.0125602 -0.00591411 -0.0210119 0.0123008 -0.00500803 -0.0233199 0.0121466 
-0.00239175 -0.0197772 0.0126493 -3.31896e-05 -0.0180127 0.0128246 -0.00172813 -0.0174883 0.0119027 
-0.000441711 -0.0221796 0.0126274 -0.00542481 -0.017054 0.0121376 0.000764303 -0.0237716 0.0106548 
0.00219893 -0.0223268 0.0112764 0.0044496 -0.0199071 0.0113887 0.00583884 -0.0213747 0.011335 
0.00390047 -0.0236285 0.0110855 0.00738849 -0.022606 0.0117996 0.00058717 -0.0211089 0.0112017 
0.00251613 -0.0203974 0.0119643 0.00341144 -0.0184837 0.0124455 0.00399794 -0.0217495 0.0120613 
0.00540656 -0.02317 0.0125758 0.00250169 -0.0236827 0.0130175 0.00170885 -0.0175384 0.0117194 
0.0123357 -0.0185493 0.0107397 0.00963112 -0.0201085 0.0111789 0.0101817 -0.0181853 0.0111273 
0.0138252 -0.0195778 0.0116012 0.0154744 -0.018297 0.0116945 0.0120599 -0.0205704 0.010971 
0.0116526 -0.0168199 0.0116145 0.00869367 -0.016813 0.0112193 0.00932374 -0.0219821 0.0118158 
0.0110509 -0.0193736 0.0124986 0.013436 -0.0176705 0.0122329 0.0170344 -0.0167466 0.0120992 
-0.0178731 -0.0156351 0.0115121 -0.0199773 -0.0129833 0.0117787 -0.0176492 -0.0135774 0.0117568 
-0.0210488 -0.0112818 0.0116861 -0.0191025 -0.0144941 0.0128646 -0.0196552 -0.00997117 0.0122946 
-0.0167498 -0.0100227 0.0121909 -0.0217952 -0.00950128 0.0124072 -0.0184086 -0.00840447 0.0123495 
-0.0119907 -0.011261 0.0116482 -0.0100672 -0.0107064 0.0118707 -0.0164587 -0.012012 0.0121684 
-0.0155427 -0.0158167 0.0119435 -0.0155497 -0.013791 0.0119171 -0.0099163 -0.012831 0.0121502 
-0.0133988 -0.0142141 0.0120727 -0.0084765 -0.014197 0.0124282 -0.0143373 -0.0121984 0.0120993 
-0.00867615 -0.016179 0.0121055 -0.0132752 -0.0101372 0.0129768 -0.0149478 -0.00917001 0.0124469 
-0.0115873 -0.00933124 0.0122469 -0.00803542 -0.0104242 0.0115168 -0.00373576 -0.0133412 0.0118155 
-0.00745331 -0.00847903 0.0116549 -0.00775274 -0.0123421 0.0120303 -0.00679048 -0.0155059 0.0119381 
-0.00295715 -0.0158192 0.0118828 -0.00481751 -0.0151294 0.012234 -0.00171031 -0.013349 0.0122992 
-0.00521195 -0.0119057 0.0127837 -0.00617284 -0.0136077 0.0120788 -0.00158676 -0.0112262 0.0120402 
-0.00128803 -0.0152723 0.0128529 -0.00388982 -0.0104271 0.0123733 -0.00594435 -0.0101599 0.0121006 
-0.00222634 -0.00924326 0.0120855 -0.000299897 -0.00872815 0.0118989 0.00019381 -0.0124814 0.0117496 
0.000111268 -0.0162508 0.0117019 0.00681127 -0.0132567 0.0118465 0.00212351 -0.0154957 0.0115546 
0.00221 -0.00937652 0.0117898 0.000465046 -0.0143276 0.0125196 0.00238254 -0.0137745 0.0127587 
0.00572371 -0.011405 0.0118701 0.00209767 -0.0118337 0.0122133 0.00400794 -0.0122123 0.0128636 
0.00539314 -0.0158853 0.012034 0.00438038 -0.0141485 0.0123046 0.00760056 -0.0106425 0.0119361 
0.00742272 -0.0151866 0.011913 0.00403987 -0.0101415 0.012166 0.000567143 -0.0105207 0.012117 
0.00593083 -0.0094243 0.0121024 0.0102592 -0.0155327 0.0109734 0.0147429 -0.0106273 0.0119184 
0.0109755 -0.0123834 0.0118805 0.011659 -0.0143825 0.0118314 0.0132636 -0.00930933 0.011543 
0.0163419 -0.0148799 0.0115584 0.0153687 -0.00865395 0.0115644 0.0132405 -0.0156162 0.0119715 
0.0150695 -0.0163753 0.0123165 0.0132471 -0.0131335 0.0122398 0.00914348 -0.0141651 0.0119776 
0.0126505 -0.0112298 0.0118937 0.014719 -0.0144465 0.012749 0.0152538 -0.0125137 0.0125189 
0.00845928 -0.0123472 0.0126398 0.00984755 -0.0163787 0.0128403 0.0212687 -0.0109852 0.0109224 
0.0196141 -0.0136613 0.0117223 0.0188447 -0.0117274 0.0115347 0.0195372 -0.00989614 0.0110548 
0.0174896 -0.00952953 0.0114987 0.0182934 -0.0151899 0.0119487 0.0174479 -0.0132568 0.0119828 
0.0168227 -0.0113423 0.012032 0.020297 -0.011384 0.0128891 0.0218167 -0.00944868 0.0120802 
0.0189907 -0.0084245 0.0123333 -0.0178943 -0.00248179 0.0109906 -0.018261 -0.00658406 0.0114396 
-0.0225157 -0.00766625 0.0116761 -0.0210736 -0.0061921 0.0115456 -0.021718 -0.00431316 0.0118134 
-0.0171691 -0.0043222 0.0115972 -0.019291 -0.00410146 0.011489 -0.0235757 -0.00359024 0.0115844 
-0.0198078 -0.00126576 0.0115047 -0.0238279 -0.00149396 0.0114572 -0.0180045 -0.000287931 0.0109776 
-0.0204146 -0.00814809 0.0118112 -0.0231535 -0.00573536 0.0121137 -0.0215941 -0.0022997 0.011953 
-0.0195257 -0.00572164 0.0127449 -0.0188881 -0.0026388 0.0127963 -0.022261 -0.00019509 0.0118727 
-0.0162723 -0.00613709 0.0112509 -0.0145224 -0.00729418 0.0117623 -0.0155434 -0.00302198 0.0112836 
-0.00944487 -0.00166423 0.0116851 -0.0163264 -0.00122986 0.0117752 -0.013254 -0.000504564 0.0113368 
-0.0110221 -0.000437651 0.0117809 -0.0165019 -0.00804881 0.0118481 -0.0146353 -0.00525665 0.0120333 
-0.0119893 -0.00738311 0.0119979 -0.00996689 -0.00766417 0.0120249 -0.0128179 -0.00579573 0.0129139 
-0.0133818 -0.00369585 0.0121908 -0.0104698 -0.00341298 0.0118869 -0.0110407 -0.00554774 0.0120305 
-0.00913628 -0.00491127 0.0120854 -0.0121587 -0.00211487 0.0120254 -0.0144458 -0.00169996 0.0124106 
-0.00523968 -0.00431029 0.0117108 -0.000530134 -0.00364016 0.0117683 -0.000828684 -0.00159111 0.0116136 
-0.00542752 -0.00101854 0.0115584 -0.00245594 -0.000173529 0.0110803 -0.00823488 -0.00671268 0.0124068 
-0.00809504 -0.00317174 0.0119169 -0.00712786 -0.00492167 0.0121913 -0.00322225 -0.0044792 0.0119052 
-0.00121868 -0.00708964 0.0125965 -0.00154249 -0.00506308 0.0128246 -0.00222589 -0.00279932 0.0124139 
-0.00418632 -0.00256855 0.0119536 -0.00639978 -0.00283741 0.0129827 -0.007355 -0.00123936 0.0122049 
0.00590391 -0.0056874 0.0111309 0.000184474 -0.00568297 0.0119325 0.00539446 -0.00751781 0.0117774 
0.00130459 -0.00759602 0.0113864 0.00145802 -0.00395355 0.0115688 0.00772914 -0.00514477 0.0117645 
0.00452481 -0.00252942 0.0118344 0.00253179 -0.00203265 0.0118079 0.00813492 -0.00153451 0.011037 
0.0042787 -0.000639918 0.0111685 0.00628093 -0.000602457 0.0114711 0.00239436 -0.00607731 0.0123268 
0.00442778 -0.00605573 0.0127544 0.00343425 -0.0043576 0.0118431 0.00659494 -0.00264878 0.0121862 
0.00530652 -0.0042195 0.0125702 0.00768639 -0.00725165 0.0120477 0.000719413 -0.00246971 0.0128303 
0.00160218 -0.000525555 0.0129155 0.00804294 -0.000420953 0.0127558 0.01185 -0.00439939 0.011082 
0.00980328 -0.00511645 0.011608 0.0114435 -0.00633194 0.0117819 0.00924633 -0.00317924 0.0114147 
0.0150231 -0.0069682 0.012704 0.013822 -0.00524869 0.0122395 0.0110916 -0.00276476 0.0121217 
0.0131598 -0.00737748 0.0120904 0.0130379 -0.00322076 0.0124506 0.0149904 -0.0025789 0.012335 
0.00992074 -0.00107384 0.0122883 0.0166168 -0.00374584 0.0122305 0.0157566 -0.000594384 0.0124005 
0.0205586 -0.00807399 0.0108612 0.0226098 -0.00763621 0.0115528 0.0193618 -0.00651165 0.0113117 
0.0234131 -0.00472311 0.0117108 0.0175421 -0.00198218 0.0116701 0.0236715 -0.00271521 0.0117565 
0.0166629 -0.00584302 0.0121518 0.02135 -0.00577195 0.0118049 0.0169638 -0.00781037 0.0124958 
0.0185353 -0.00537008 0.0127426 0.019992 -0.00425109 0.0119454 0.0208096 -0.00740034 0.0128476 
0.0218317 -0.00395993 0.0127231 0.0230826 -0.00626016 0.0130179 0.0214815 -0.00213337 0.0119819 
0.0194244 -0.00139929 0.0120295 0.0238025 -0.00113858 0.0129868 0.0220775 -0.000211659 0.0119187 
0.0178435 -0.000261291 0.0126518 -0.0238471 0.000514509 0.0105632 -0.0208716 0.00105981 0.0110702 
-0.0172007 0.00185446 0.0111811 -0.0224232 0.00233712 0.0111821 -0.0205075 0.00323542 0.0110846 
-0.0183709 0.0034488 0.0116059 -0.0234846 0.00407839 0.0116547 -0.0217372 0.00494924 0.0111827 
-0.0194275 0.00534601 0.0115121 -0.0222291 0.00709912 0.0106769 -0.020221 0.00739659 0.0109829 
-0.0190096 0.00123368 0.0119642 -0.0176823 0.00628223 0.0119788 -0.0205116 4.18549e-05 0.0128551 
-0.0238479 0.00159088 0.0125232 -0.0219634 0.00354088 0.0128768 -0.0168393 0.000422457 0.0128644 
-0.0199544 0.00401038 0.0129206 -0.0229942 0.00607737 0.0123543 -0.0210318 0.0067367 0.0127185 
-0.0144689 0.00579473 0.0104689 -0.0116533 0.00146505 0.0110749 -0.0149867 0.0025583 0.0114902 
-0.016524 0.00455595 0.011417 -0.0114332 0.00453413 0.0109564 -0.0152573 0.000506541 0.0116353 
-0.0095906 0.00403775 0.0116017 -0.012906 0.00310957 0.0113872 -0.00858801 0.00224132 0.0117281 
-0.00866256 0.00020309 0.011743 -0.00959728 0.00605593 0.0115516 -0.012389 0.00663274 0.0113375 
-0.0163926 0.00785944 0.0111769 -0.0106987 0.00773718 0.0114706 -0.0139651 0.00816777 0.0106959 
-0.0101965 0.00125953 0.0124942 -0.0134013 0.00130198 0.0122308 -0.0111738 0.00301907 0.0124149 
-0.0143784 0.00435716 0.0121384 -0.0164049 0.0028286 0.0130089 -0.0118696 0.00525994 0.012884 
-0.0157171 0.00637746 0.0125839 -0.0137421 0.00613551 0.0128199 -0.0148235 0.00822928 0.0126406 
-0.00757853 0.00398464 0.0111704 -0.00489046 0.00399566 0.0110513 -0.00210031 0.00505507 0.0108867 
-0.00471859 0.000986235 0.0111796 -0.00667131 0.000548481 0.0116241 -0.00613742 0.00247457 0.011421 
-0.0002774 0.00420406 0.0113819 -8.54799e-05 0.00220601 0.0114975 -0.0061948 0.00551824 0.0111796 
-0.000323509 0.00647348 0.0115031 -0.00408167 0.00594977 0.0108956 -0.0078667 0.00716506 0.0112825 
-6.99408e-05 0.00023215 0.0119588 -0.00207941 0.00323333 0.011775 -0.0021226 0.00142547 0.0126357 
-0.00433684 0.00257068 0.0124281 -0.0035243 0.00472926 0.0123842 -0.00424074 -3.00286e-05 0.0128375 
-0.00653604 0.00378901 0.0128765 -0.00128468 0.00498572 0.0129518 -0.00773099 0.00555203 0.0124952 
-0.0049886 0.00611079 0.0129048 -0.00230595 0.00663759 0.0122381 -0.00620074 0.00794923 0.0122119 
[...]
POINT_DATA 5997
FIELD FieldData 7
id 1 5997 int
2980 2513 5423 377 1021 2301 4232 2745 3750 
5604 2226 1123 5206 3265 2542 5893 1984 4201 
1382 1654 5045 5772 2355 1179 1706 4002 5120 
1213 258 469 464 13 5605 5632 938 4480 
4763 843 4987 1853 5738 2323 4701 1816 2917 
4581 4970 4575 3702 2198 2281 1322 1667 1731 
5870 5864 2627 863 828 5559 4351 708 1775 
4491 5348 4143 3255 4090 4114 958 1913 3571 
1091 1078 1237 5252 155 56 149 4716 593 
705 816 3103 3553 1020 5633 4142 1359 1835 
5075 4757 5616 4718 3211 4684 1008 1781 4894 
3991 3986 1559 383 690 4168 5273 5788 1836 
2325 4492 3443 1758 5237 2774 3777 1416 5574 
4239 5676 3786 5650 106 2505 2411 2308 567 
4322 4263 5511 4915 5815 4511 2920 2266 4247 
5990 2663 5292 1131 3060 5866 3529 5704 3263 
1653 1183 953 3294 1969 4618 5526 5356 4999 
3014 118 1433 3327 4846 1043 1843 3131 2885 
262 3420 4468 473 2248 2903 3397 3320 2572 
1429 2529 3356 4349 911 3325 4284 2729 2994 
4529 4842 1142 482 101 2017 2059 3693 3690 
1381 4160 104 3207 3055 5280 3416 1107 3132 
127 3289 39 2434 1177 5915 1708 3308 5979 
206 4589 3804 2956 3309 154 1583 1434 5409 
3472 2700 776 5151 1397 2162 602 2747 4331 
3646 2205 5028 4459 2165 2063 2931 5449 1777 
889 6009 507 452 3018 4816 1400 1371 2746 
3738 3439 1139 2590 5871 4951 3746 4815 250 
3197 5515 3954 5323 970 4661 4942 3405 1461 
1533 853 4484 3544 3030 5468 5971 3966 5535 
4964 3684 5217 5088 5702 4483 4288 1409 2246 
1696 5602 2168 1632 2496 5453 3806 704 4479 
3496 1034 969 3685 6023 1823 2808 1552 4379 
5461 234 2334 325 2430 1389 5742 316 4025 
4914 1373 4078 4153 5315 3785 2322 3519 5557 
2970 5030 5156 3393 4357 3625 5699 691 629 
750 4691 3658 1435 5938 1238 2928 3645 627 
2789 122 1939 981 794 4828 4843 5111 4098 
446 3699 5405 1577 3336 1539 470 1193 1075 
3414 1235 2838 1524 3781 1219 975 1113 5570 
3126 3373 3144 2511 2998 6050 2219 1362 421 
2284 4616 1541 3541 4878 2776 2199 5934 3040 
5040 1642 646 4117 3514 3089 5982 2025 2443 
2900 2029 1360 2076 2968 5207 3956 334 2827 
435 2587 4102 384 5466 5809 5351 5948 1748 
1293 5000 2314 1582 2949 3438 5489 3023 3575 
4165 4230 1140 2536 3753 2215 1626 5869 2888 
897 1878 5082 3713 4591 4387 4234 4413 807 
5406 4222 1428 2957 3042 1321 1537 3477 1369 
4105 4775 621 3666 1375 4559 1664 4560 3377 
4436 1029 787 231 1335 2816 5339 712 2032 
108 4954 818 5204 3924 2056 1203 2009 1196 
1226 2148 161 1149 849 371 4104 3087 2773 
5054 1812 5007 150 3549 1825 1866 3389 1268 
2007 3745 4011 2104 5606 3567 4018 783 3932 
1622 4604 460 5249 4534 2479 1042 4023 382 
2858 2686 190 284 4904 768 3610 3878 2280 
5900 123 3276 962 766 2908 635 2939 1028 
1352 631 2615 1258 5221 2012 2375 4537 4122 
3543 1860 5205 3522 1098 4869 3912 1982 5924 
3877 917 138 5418 4195 2754 3229 59 3267 
4053 2167 2802 5814 5572 2716 4545 3965 2081 
2797 4905 3566 1858 5500 3873 1404 858 4216 
3894 1376 5740 5848 3551 791 4086 4235 2728 
4502 5770 686 4984 4003 387 419 3370 4509 
5106 1150 1082 2946 215 3191 2397 4375 3886 
5201 4600 1655 1253 4329 312 3874 5623 6010 
4017 2601 3548 4109 1096 4306 5127 3011 4486 
1361 1154 5428 1478 3960 5211 1678 2795 5818 
2543 3221 3427 637 1686 2652 2495 5781 3844 
5789 3608 1536 3357 2689 2243 5164 1303 1210 
2374 5228 5337 357 3677 5239 2145 835 1586 
808 3807 2794 5187 1110 3555 4050 5925 1005 
4286 2259 5458 2035 726 1399 2551 2690 4278 
1680 5444 3168 3536 883 732 1834 1449 1973 
4953 757 1506 5182 1041 1665 3642 1319 1257 
1202 5300 984 2573 1080 1646 5136 475 345 
4833 4840 6046 1267 2447 1627 5679 4611 4813 
228 547 5264 5959 718 1859 4667 343 4647 
5215 2769 1652 5762 2695 3554 1262 5730 1223 
395 3925 1845 2234 4892 2482 1320 3449 1186 
3825 4444 2307 997 798 5014 5294 2672 2121 
1331 2276 2379 2427 2899 3065 4682 315 2926 
572 2077 5012 21 5032 960 3374 3629 5968 
612 2316 3376 1902 4572 499 3803 2073 2005 
2109 237 2880 2974 2829 5439 2669 1148 2342 
3176 2306 4950 2126 5657 3050 1415 5985 114 
5780 3187 4966 1512 3821 6016 681 4879 581 
3512 4819 4903 5248 2350 2547 2439 1109 4799 
1672 4900 132 4317 5929 4952 2603 1484 2336 
4956 5906 2474 2571 3978 5365 5486 2410 2786 
5596 4192 2708 191 1754 745 4750 3073 201 
3188 4108 4097 4388 5640 2943 4719 276 2203 
4884 5474 1476 3083 4981 3179 1112 2843 2002 
5094 430 4293 4814 5658 142 3111 740 5507 
1996 2102 1827 5638 959 2476 3468 1805 5912 
2230 4631 1411 761 5613 4314 5954 2287 1178 
5193 4925 3980 5984 3721 993 1256 5556 4809 
2874 4917 5668 1715 5502 2372 4228 5256 5706 
381 3380 1056 1502 793 2806 731 5110 5688 
1724 4764 5505 1285 4297 4754 4401 1955 5637 
1275 5846 57 3415 5533 5431 5404 2106 4120 
1770 2225 2861 1915 5889 3280 3890 5579 945 
543 5651 1589 4358 3923 1540 1707 4728 1304 
1518 3899 4543 664 2942 2512 1526 1560 232 
2910 99 2688 4392 4242 4487 3450 3983 5419 
5424 5700 3411 5569 4404 2687 2157 3539 4292 
183 1270 396 5068 372 5343 1482 453 2053 
1162 1868 4320 5260 1698 4862 1920 433 449 
4726 2541 2147 3 2762 2383 1885 1010 2932 
5066 3751 5224 2074 5785 2213 163 5241 2233 
5878 3010 2128 2960 956 5403 253 672 2223 
3464 1917 5050 5894 2186 353 824 352 781 
3538 3552 4440 5933 1243 4789 4745 4976 443 
455 1302 4275 5002 3185 977 4448 1249 2462 
4774 2499 3423 1017 2915 742 925 3631 126 
1019 5991 2095 2875 4920 949 1721 598 3146 
2693 4924 4146 1813 647 537 4127 147 716 
219 852 4291 339 5220 1351 2201 4755 921 
1188 2026 3081 4780 5488 553 338 5328 457 
4258 4687 1453 4967 5005 3469 659 2448 3922 
2767 3827 548 636 61 752 2098 4172 4571 
5831 3545 3914 3372 5299 12 4998 1153 1659 
3682 5391 2408 4798 4577 4368 5036 4089 1286 
2629 4645 305 3152 2965 2064 355 2191 1650 
1538 4180 4082 3381 4623 3635 2333 5963 4287 
4456 1036 3696 1049 1390 4512 2624 4992 5302 
5883 212 738 1488 5033 1117 1259 3829 2193 
3287 4019 4714 861 5847 3302 4898 1079 3400 
4614 2062 2822 5126 1564 1658 592 3354 179 
792 642 3442 5344 2122 3779 965 1116 1573 
329 574 5858 1413 2553 1191 918 5798 3038 
1204 2196 3995 5631 5551 4207 2549 3638 5777 
1232 2678 25 427 5167 1507 5445 3830 3257 
141 2793 3243 6026 4625 340 4000 1290 5562 
404 4423 774 3418 950 1951 5442 5479 3157 
5997 4455 5962 654 1252 4150 5998 4013 4140 
1801 4380 2532 1009 77 6014 5364 3128 261 
3019 5450 5463 1217 2489 512 1602 4133 3036 
3989 5495 3810 173 875 2626 2944 5720 1143 
3813 957 2078 4024 3206 227 3003 1198 4928 
64 1605 5310 2096 248 4364 533 2737 2161 
6027 1004 1151 3285 1044 257 3375 208 5305 
930 2759 6039 1230 4299 3887 5061 4749 2294 
1045 200 1505 4390 2275 5279 719 292 509 
4158 5159 1592 3975 3299 4520 3984 19 5872 
5008 5966 2305 3016 5812 874 2867 406 3366 
5696 1620 3027 929 5523 5669 1737 1436 4434 
1366 3218 4262 2041 5396 3061 2484 4727 4034 
42 3613 2552 3483 5757 26 4536 5686 4624 
1746 5695 4135 2286 4074 5949 1328 27 4488 
2327 1101 3768 2848 5614 1396 4344 5360 4162 
4574 3703 2024 3858 3564 1660 5352 4495 2392 
3769 4327 4668 280 899 5845 3205 3747 5873 
1569 4548 4271 4517 1872 5999 4562 1298 4766 
3707 591 2172 4196 2525 1677 559 1851 1190 
1924 1452 3948 3364 5589 5709 5921 4126 5754 
3404 4161 1175 3063 16 5245 516 4119 5825 
2863 1050 1398 5053 809 3228 1786 2533 2916 
595 834 4139 3943 3879 3850 2606 2491 4826 
5987 1568 3675 4194 5760 2576 4594 3727 3592 
2365 1959 3935 1425 2756 2141 2691 531 5838 
5890 5336 4695 2061 4227 1611 3165 813 4411 
2347 735 1941 5748 5653 3581 5227 6034 3562 
2485 1855 3033 3698 5042 1542 4960 1936 2216 
720 2069 4197 4057 4081 562 374 4250 2907 
6052 529 494 3430 4943 1511 199 1983 2400 
5092 177 4681 1998 30 2750 2197 1657 4389 
2859 2361 3292 1976 337 4839 2279 5070 4648 
1679 5967 2732 5598 1039 5790 4880 5433 5672 
2428 3634 3045 4212 3994 5052 2470 3386 2376 
2331 3444 833 6058 5350 3648 5062 1134 238 
2647 6038 2804 2761 3493 297 1876 5734 2940 
4902 1895 2362 434 926 1521 1147 2283 3900 
3311 2710 2292 1002 821 5064 3340 3487 5301 
573 1922 143 317 2682 5861 4991 6002 5183 
3118 5829 3333 782 1093 3871 2340 5833 1815 
4781 2787 5284 634 2668 2751 3440 3409 3968 
2174 1141 1906 2418 1083 5646 5493 5817 867 
2272 2664 1100 3916 1130 3870 5802 3976 906 
1165 1790 5454 3950 522 111 1930 2442 3262 
3831 2814 3264 3940 4500 2290 685 5006 4874 
2324 3075 846 3525 251 1630 1127 4818 4365 
1965 3856 1233 6062 3312 668 2612 3695 3839 
3178 1638 2522 2413 344 3928 1779 692 3272 
5436 4240 1218 885 1830 982 17 1584 2020 
1874 3426 3736 4615 2256 780 1504 490 4822 
2657 3510 2028 3104 4 2396 5549 3303 1242 
4609 4467 1333 1741 5901 5499 459 4031 4301 
542 188 5800 4501 1608 414 1803 3224 74 
6033 2775 270 5282 4685 3636 2403 4566 332 
4871 4694 5278 5243 5723 2402 676 5161 2964 
4863 3446 4539 510 4422 5146 3310 2992 4066 
2422 1037 1208 966 3094 327 1426 3962 3106 
2632 1496 328 5972 836 3679 2175 2866 3951 
4552 5839 4996 5046 848 1603 1807 4147 4499 
3620 3607 2177 203 1709 402 4583 2131 660 
3933 319 423 1848 55 5550 4405 2999 2634 
755 2321 946 5837 804 3896 1778 5718 4041 
3326 4303 225 2504 5626 5736 5457 1791 2460 
3795 1427 2904 2236 3114 2782 3049 4022 5250 
277 4339 558 5389 1422 4666 4065 4531 2452 
2176 96 3706 2950 3815 3820 1545 968 3307 
4095 4922 436 2619 3392 5381 3560 1442 5769 
5649 1439 5362 4741 5369 5610 400 1294 2872 
3223 498 4373 2733 1547 2930 15 2404 135 
2435 22 2913 1097 810 1068 3847 4458 4689 
5071 4129 2988 4849 2839 1122 358 5291 5367 
4332 3419 4442 2135 1441 6040 525 1882 4189 
4485 2437 3528 954 1467 4821 2640 3390 1024 
2602 6008 5849 2503 1515 486 2614 986 5975 
1964 1062 4443 5004 1519 4671 2563 3619 2210 
5387 1747 1447 1738 933 648 2860 3979 4321 
5320 3859 1264 264 3245 4245 3826 4265 5471 
1587 1459 3248 5744 4415 1700 5977 1966 3963 
2607 3482 2919 2721 5577 5266 3731 4070 4753 
826 5139 952 283 1144 2060 1600 1991 2639 
275 868 3616 5856 5196 1944 1481 3680 1919 
2662 1572 2103 1013 82 741 5380 2987 5158 
4523 3563 1579 3410 670 3649 570 3782 4439 
539 3417 463 3006 5231 370 4452 46 799 
4856 1716 571 5487 5928 1992 2111 5413 6035 
1216 3837 2895 1598 3898 1571 307 3938 1132 
1161 3490 3113 606 2240 3093 4549 2856 4410 
748 5951 3663 4646 5448 1 2180 293 887 
4385 2107 4202 1957 1189 267 3606 763 5795 
221 5443 619 5996 4972 2897 4403 4569 779 
4159 747 5607 3210 3343 908 5171 5398 1662 
2390 3719 2395 90 4427 2947 1767 1979 3441 
2054 1972 5806 420 4653 4042 5385 3362 1051 
229 2055 3834 563 3784 491 194 341 4700 
1211 6003 2110 304 1889 140 4663 1492 4226 
1701 2886 4882 5944 905 2269 4449 3934 3097 
575 4068 2117 2475 2382 3897 4005 2101 5599 
3261 2065 4021 1167 5335 2245 1248 3163 1788 
5986 628 3788 1554 83 5737 980 4204 2983 
3379 1900 723 361 4052 4450 128 92 2739 
796 1935 1903 4191 2277 1910 3252 608 1785 
3599 89 5791 3977 1513 4787 4730 840 2488 
999 4451 928 1883 3654 415 1877 1503 4955 
3737 5717 5823 3337 2725 3478 4938 4761 4124 
2367 1693 2828 5886 3290 5584 4929 2630 4377 
3214 1765 1978 1635 5611 5268 4429 3708 2423 
5198 1353 320 1383 289 698 4937 713 2206 
58 3317 4936 2653 5133 3704 3591 2658 3643 
2414 4946 4598 1493 4558 2406 5799 3694 5015 
1240 2519 2566 3660 5927 4968 1378 2242 5216 
915 2330 4103 3200 5435 4473 1026 1714 5393 
3057 4876 643 1525 5321 2833 1059 4367 4290 
2835 1534 5150 2319 2303 3632 1773 632 4593 
5908 5843 4231 2744 4215 6024 80 3455 1384 
5716 4193 2821 4348 5724 1372 2297 3647 3630 
3651 701 669 4579 996 2561 4851 5087 2659 
841 2044 5836 1766 4515 1676 884 693 3773 
5179 2399 5513 5784 3814 2285 985 2477 5923 
1241 584 2966 3931 2770 4717 3169 988 4496 
3780 4393 5283 3930 3231 1489 1451 3569 3445 
3486 2120 5140 5440 1729 1597 550 4237 2981 
4145 5251 1220 5779 2124 2142 4610 3937 4588 
1095 5147 1438 4369 2398 3454 3149 63 70 
4256 1407 5961 728 4130 5132 5441 5794 5152 
1289 207 2545 1367 367 3952 1272 2912 6057 
2313 5288 321 4342 4055 3728 2100 4802 189 
2879 4054 825 4652 269 3352 4328 4498 2799 
5644 174 630 5710 1760 2515 5148 1491 5009 
2937 2332 97 5758 4940 511 3480 2311 5892 
2446 5664 5166 2677 4670 3969 2976 5412 5446 
3137 2638 4289 898 218 5340 5181 5989 3518 
4465 3958 5195 694 2014 3589 5563 5044 5437 
789 1509 3568 3273 5074 246 5629 1065 3069 
519 2792 941 195 4236 3665 2058 416 4899 
2378 3004 117 4457 4699 4769 1557 4859 5826 
2134 2208 2514 4252 2011 2666 1260 2057 176 
5909 1473 5023 3085 936 5223 1937 5749 2520 
3732 871 3556 2742 3225 1960 3615 3002 2299 
2045 3431 1279 1873 1278 3507 4640 5467 656 
3462 860 4540 3796 3672 2218 2394 5566 3067 
3809 3798 1146 5727 429 955 2650 639 5375 
4361 3240 5935 3064 1508 1421 3944 1846 81 
424 18 4253 2882 5778 322 1974 749 1797 
4414 5877 3972 4007 5964 5675 5539 948 5317 
4986 1215 3304 2959 243 2954 5379 2425 129 
5714 2696 3222 2433 3047 1171 5656 3351 3524 
1269 4446 4841 98 4273 5850 517 3633 3052 
4675 1793 3953 2 2137 1340 4059 2951 1927 
1994 2019 1958 235 924 2416 1811 160 974 
3580 4980 1251 2326 661 4118 5034 3734 2546 
1430 650 3659 1744 5410 2560 1187 1695 4285 
5117 5079 2955 3725 556 3451 4056 4270 1916 
2757 2556 66 3028 3395 5129 440 465 5484 
5746 5114 2735 5208 5322 3542 442 2748 5229 
1612 5096 3921 1471 2574 4155 2315 2270 3862 
5425 50 5759 3740 5645 2129 3220 3492 3127 
862 1842 4643 214 1742 5532 1046 963 5902 
3256 1300 1644 795 3671 4345 3134 3062 233 
3760 5520 2783 830 5349 4187 3901 4266 5099 
5108 260 5281 3475 184 569 5879 756 3761 
4791 4538 4706 5641 568 5297 2016 1808 689 
301 5481 4525 989 4281 1227 2463 1953 5732 
1263 800 2337 5013 1501 4626 3153 4508 1829 
5585 3822 2151 714 2997 3860 2523 3691 4688 
1337 2676 365 6060 513 2471 1884 1908 3640 
1092 1993 5324 1880 4438 3919 5542 5773 4198 
1907 2211 3284 252 987 4179 4723 1033 1702 
4779 5289 5399 5705 1316 3278 2454 1575 5765 
1388 2841 5875 4264 811 1090 5868 3973 994 
4985 4633 3789 4093 3471 1120 4982 4131 2507 
3396 5374 2169 2711 1633 1892 4910 2261 5643 
169 185 3848 1717 4370 2409 5652 2906 4033 
3358 2000 3424 4190 2304 2478 4045 224 3999 
3547 6011 1309 1990 3678 4837 5639 2339 3402 
3700 131 4463 1341 441 850 4123 5842 1681 
3816 478 913 4504 4811 1783 4655 300 6048 
2952 2548 2084 788 879 4461 2501 4510 2034 
4471 2853 5516 1472 3992 5859 2583 2699 3012 
4674 4772 3158 1942 1871 3096 2697 1401 983 
1705 762 3523 1164 2567 271 3623 2360 1854 
3505 4963 4834 3164 5261 2586 3348 4889 3148 
2341 2887 5907 3818 3961 178 3162 3624 4715 
1844 1656 5647 4961 2258 3044 2918 4595 2113 
23 2772 1697 1607 3717 3072 5316 4844 4221 
5529 2911 5492 3368 3371 3832 2665 1330 3885 
2490 363 4857 3546 4337 3330 2925 4744 4432 
5743 5309 5821 49 1418 3997 2401 2963 3692 
2890 881 3718 893 3315 617 585 6036 2565 
48 2738 845 1763 2467 515 1070 5534 526 
5104 5597 2021 663 172 4205 2473 2457 1347 
310 3436 609 2222 202 5764 2139 5247 4712 
2719 3723 3504 3955 1295 2108 5586 1614 9 
3722 4315 2901 2706 4919 485 2170 5078 84 
5318 5660 4268 1685 521 4677 2310 5257 4355 
5554 4009 5693 561 3173 6042 1544 4296 1487 
2517 2052 3891 4199 3145 939 2818 5363 3801 
2291 4651 1414 3403 5107 3271 3095 5820 3101 
5713 2445 60 5016 5083 1711 2991 5134 2720 
5840 5575 4679 2136 2766 2941 4149 1102 3516 
5946 3433 3775 3676 3861 2694 3112 1066 3534 
4276 5576 4696 4261 5298 71 4260 5885 5001 
2811 3509 3167 380 2642 2224 4476 2458 2702 
4324 2050 856 5804 3865 112 3296 3946 2679 
3107 3190 1694 1377 2328 706 418 2929 6005 
5512 979 5955 992 3823 2613 1743 5085 1596 
1255 3588 4453 5296 1437 1030 5124 426 3594 
1566 69 611 5899 2671 3517 2293 4662 91 
2071 2312 1970 2335 1155 4134 3506 171 7 
5060 1952 3908 375 263 4576 4599 683 6015 
2891 1819 1393 1301 2239 5095 1317 2289 3681 
4092 6059 4083 4334 3099 3947 6004 5100 5477 
2251 240 3385 544 1329 2596 3466 3242 892 
3355 3687 2498 2791 3835 3199 2641 255 5170 
3039 3855 4363 2840 4044 4751 1457 5131 1891 
1516 2348 3359 4622 1604 904 5687 5958 3601 
5895 3857 1423 411 2380 2357 3470 4817 2085 
998 3189 1339 1551 2628 4217 1925 3025 5397 
2138 1424 5583 3212 4941 1756 1585 3910 2254 
623 3367 4672 3331 3817 432 1364 5025 2620 
393 1550 216 115 2153 4305 2559 2958 3982 
350 410 3842 1553 4563 5519 3724 2953 4064 
1556 5976 1291 294 1666 5035 1479 1639 4639 
2535 674 847 5741 703 412 2033 6001 4573 
10 67 4039 5426 4578 2740 2527 1115 3811 
5483 3656 399 3082 2502 4897 1599 2093 1548 
4302 4825 3846 5102 4845 1315 3432 3828 2617 
1663 3710 3133 1209 4958 36 1623 5776 1474 
5 5612 1735 3484 564 615 4930 5707 35 
873 514 5841 2508 3920 4267 6064 854 3802 
837 2990 3428 2232 6049 5407 2873 1365 2249 
2048 3739 3406 4128 4137 2038 5506 4184 4676 
4861 4257 388 4788 4398 2935 3491 5462 1348 
4310 4309 1469 4304 4280 2220 3513 3452 5969 
2537 3350 3819 94 3990 5874 1288 2125 4546 
356 3662 3587 1395 3774 583 4069 493 2684 
2027 1549 3246 5010 4412 5031 880 1334 3388 
5940 2185 4482 5674 3344 1768 855 4939 2209 
1214 2166 1769 935 1865 1450 2760 2377 5939 
3765 3266 4464 3434 5192 743 4771 823 3716 
1988 3688 5796 5733 5347 2892 4012 1023 5993 
4188 2192 5503 3771 2948 268 2701 4570 256 
5852 3244 3147 877 3776 2534 121 5903 3068 
1342 4933 1719 1076 1133 4136 32 476 2736 
3394 3270 552 3996 480 3186 3084 2079 2600 
4073 2386 870 4316 5065 4853 4890 1087 3683 
3463 1277 2749 2363 3868 2568 4248 5325 309 
2631 5272 5480 1890 5185 5255 5884 5222 3365 
5931 3892 2432 1527 5590 204 2817 5793 2440 
3881 4988 3237 557 6068 5862 5937 4918 1581 
87 102 3853 4148 1181 3748 4371 5056 2494 
1847 633 1431 5378 1014 3429 5832 4858 3800 
5368 5357 3399 3752 4669 95 1736 1624 3334 
1311 4739 4323 1523 342 5827 3275 640 5421 
2575 4047 2595 4975 3612 3135 5168 4397 296 
2262 2453 2273 4586 2765 1934 5188 2712 4796 
3808 1231 130 1354 6022 1755 2705 5667 2881 
869 2298 5828 4532 5353 3494 2820 2288 62 
6018 2221 540 29 4176 1305 971 2472 5973 
711 3730 764 5752 1281 483 1995 4319 1157 
2807 1370 4654 3674 4592 3872 3258 1555 2633 
5922 2431 3653 1338 5767 5510 308 4580 1047 
4169 323 3274 1759 2550 4743 1152 2812 688 
4269 4209 5308 4564 4746 119 907 2066 1574 
3022 2704 5189 4527 4454 1561 5947 1088 5177 
4528 1483 827 1182 1055 3583 2847 5366 278 
1886 3988 2781 1084 502 4734 1385 1590 2008 
4051 577 2466 6069 2984 2228 298 772 1012 
1003 3639 196 3791 445 4971 1035 3024 1985 
3485 4121 2722 1194 1938 1789 579 903 5125 
1963 407 1406 1072 156 4416 2538 734 932 
5332 2150 995 3316 1332 1911 2584 4298 389 
890 3035 5233 1027 2771 5919 3974 3413 616 
2130 1336 110 597 4807 4421 2391 4437 1432 
5202 888 5358 5580 495 614 3570 4724 900 
1015 2116 265 5930 5029 3346 922 4756 520 
1022 2088 38 3194 2468 3790 5219 2846 894 
3911 4224 3531 5600 4916 5603 2040 5960 5395 
3080 3883 4709 5582 3268 3391 2112 1314 3259 
5521 1810 5157 6017 145 346 4806 4587 3297 
4046 4634 3565 288 4557 518 1730 3234 2329 
1532 5091 5552 2006 151 1498 1307 11 4765 
220 1613 2178 3046 5072 1494 5149 1114 3927 
5691 279 1862 458 291 2364 5073 1470 5263 
3709 1138 2173 5619 2557 4254 3614 1480 4553 
2644 5482 4493 4795 5857 1016 5447 2717 2092 
4891 5689 105 5685 3598 5271 4061 1814 3293 
2412 1126 5142 1926 5957 4720 2518 2388 1692 
5326 1500 5334 1417 3845 5048 2072 4698 3217 
4783 4391 5527 5155 5464 1881 2593 4058 3971 
4063 4372 3479 1325 4794 1594 4608 1169 1981 
3110 4830 392 4649 1172 5701 88 3603 687 
2978 4359 290 2424 5022 3527 5608 4547 1440 
6066 241 4738 4740 5491 4307 5739 1394 541 
3291 1591 2803 1032 4959 5451 5663 192 2118 
4395 2727 4010 3770 5943 1651 4778 3170 2384 
4513 3239 4326 3941 3895 1669 2393 801 1576 
3159 1956 2419 2898 5047 5630 5236 1064 2264 
3574 3533 2309 3078 5860 4660 3661 3557 4777 
2253 1343 2212 604 5043 3219 1201 947 3232 
242 5567 3697 1455 4312 4974 4008 3502 4200 
5844 3741 2099 5307 1619 891 4606 5536 3108 
3041 5698 4582 4356 230 1174 725 4386 1212 
3686 5774 4665 5981 3138 5655 4152 187 746 
3109 3618 4079 2790 4494 1368 2800 4983 5130 
5290 5197 5143 5725 2972 600 2755 1787 2758 
4219 2592 5537 2493 530 5824 2877 6000 4877 
2979 5373 790 1732 4099 2003 700 5178 3009 
4185 2385 4931 655 5918 390 695 1229 4229 
4374 4514 5811 4628 3998 133 2250 3193 3655 
5592 4678 3609 2777 6067 1962 3561 2656 1408 
5392 5974 717 5771 5191 4603 721 4829 4977 
3595 3577 1299 1820 144 5098 4630 5415 3689 