# vtk DataFile Version 4.2
Generated by LIGGGHTS
ASCII
DATASET POLYDATA
POINTS 5997 float
-0.0159523 -0.017381 0.0126296 -0.00929393 -0.0219692 0.0127459 -0.0137848 -0.0194349 0.0126813 
-0.0103397 -0.0181289 0.0129317 -0.0123506 -0.0180459 0.012816 -0.00855333 -0.0190302 0.0128333 
-0.0116616 -0.0199271 0.0126932 -0.00580406 -0.0205452 0.0126666 -0.00649341 -0.023039 0.0125884 
-0.00222321 -0.0195234 0.0125683 -0.00316739 -0.0176196 0.0127219 -0.0026009 -0.0227397 0.0127103 
-0.00397537 -0.0213165 0.0124179 -0.00603002 -0.0185422 0.0129649 -0.00451129 -0.0233707 0.0126719 
-0.0042101 -0.0193384 0.0127107 -0.00127626 -0.0212453 0.012969 -0.000993796 -0.0239412 0.012675 
-0.000346985 -0.0188281 0.0126298 -0.00127829 -0.0169607 0.0128579 0.000569655 -0.0227027 0.0125171 
0.00641396 -0.0176824 0.0127932 0.00234007 -0.0217298 0.0125597 0.00356357 -0.0195143 0.0127238 
0.00164685 -0.0189125 0.0127738 0.00609099 -0.0221037 0.0126451 0.000723421 -0.0171007 0.0128253 
0.00274015 -0.0172333 0.0127429 0.00560647 -0.0197691 0.0128851 0.00461974 -0.0234719 0.0125598 
0.00246344 -0.023681 0.0130053 0.000649568 -0.0206537 0.0127356 0.00805879 -0.0225192 0.0124989 
0.0080837 -0.0205347 0.0127474 0.0133144 -0.0183125 0.0128549 0.0087438 -0.0186244 0.0128486 
0.0106203 -0.0208468 0.0127475 0.0154444 -0.0182293 0.0130069 -0.0197809 -0.0131977 0.0125881 
-0.0176139 -0.0136356 0.0124616 -0.0218118 -0.00960201 0.012425 -0.0208851 -0.011465 0.0128276 
-0.0158889 -0.0153764 0.0124907 -0.0155904 -0.0133035 0.0124338 -0.0103655 -0.0137476 0.0126445 
-0.0133519 -0.0162832 0.012712 -0.0121482 -0.0146519 0.0127751 -0.0129476 -0.012785 0.0126881 
-0.0119657 -0.0102548 0.0126637 -0.0105554 -0.0117277 0.0128036 -0.00873148 -0.0125894 0.0127603 
-0.00985693 -0.00984465 0.0126077 -0.0138286 -0.0109951 0.0125475 -0.00788421 -0.0106146 0.0124717 
-0.00317422 -0.0147826 0.0125867 -0.00625578 -0.012297 0.0130656 -0.00154827 -0.0136035 0.0127754 
-0.00513463 -0.0143317 0.012673 -0.00432847 -0.0124869 0.0125418 -0.00558656 -0.00990293 0.012785 
-0.00372428 -0.0105581 0.0124011 -0.000482729 -0.0114741 0.0129573 -0.00182675 -0.00998436 0.0128833 
-0.000228808 -0.0151758 0.0125163 -0.00324144 -0.00852044 0.0124884 -0.0071895 -0.00857451 0.012692 
0.00468525 -0.0166614 0.0128371 6.05771e-06 -0.0091981 0.0130432 0.0018292 -0.0154363 0.0129973 
0.00417433 -0.0147224 0.0127051 0.0064286 -0.0156602 0.0126472 0.00168837 -0.0104119 0.0129145 
0.000446989 -0.0132408 0.0126609 0.00297618 -0.0120436 0.0128665 0.00515206 -0.0115903 0.0127478 
0.00608147 -0.0135941 0.0128494 0.00370727 -0.0101691 0.0129774 0.00560389 -0.009508 0.0130291 
0.00818182 -0.0147378 0.0130223 0.00895623 -0.0166321 0.0129393 0.0118504 -0.0118167 0.0127142 
0.0130251 -0.0140962 0.0127697 0.0149994 -0.0143957 0.0128817 0.0110623 -0.0136714 0.0127584 
0.0134858 -0.0105649 0.0126105 0.0160477 -0.0127118 0.0125471 0.0110647 -0.00881138 0.0129754 
0.0154752 -0.0107609 0.0124937 0.0130889 -0.00861284 0.0127894 0.0165119 -0.0157221 0.0126165 
0.0183089 -0.014448 0.0125076 0.0174763 -0.0105791 0.0127208 0.0180877 -0.0124613 0.0124092 
0.0205047 -0.0124394 0.0125782 0.0214669 -0.0106317 0.012362 0.0194575 -0.0103316 0.0125228 
0.0222302 -0.00877366 0.0122295 -0.0227543 -0.00756662 0.0125167 -0.0230924 -0.00553768 0.0125958 
-0.0236143 -0.00356276 0.0124183 -0.0216924 -0.00411782 0.0123181 -0.0189514 -0.00744532 0.0125946 
-0.0209227 -0.00673209 0.0124427 -0.0199149 -0.0049549 0.0127048 -0.0178771 -0.00152735 0.0128902 
-0.0200296 -0.00295566 0.0127834 -0.0238483 -0.00154188 0.0125315 -0.0219546 -0.00214312 0.0127707 
-0.0215754 -0.000131432 0.0123809 -0.0165934 -0.00680266 0.0125912 -0.013414 -0.00563202 0.0126336 
-0.00916102 -0.00797308 0.0124705 -0.014656 -0.00734786 0.0127631 -0.0114438 -0.00801739 0.0127444 
-0.0125819 -0.00370959 0.0128655 -0.0111255 -0.00232701 0.0129382 -0.0163926 -0.00484002 0.0129694 
-0.0145847 -0.0039863 0.0128658 -0.0111034 -0.00511977 0.0127059 -0.0163549 -0.00283196 0.0128854 
-0.00864865 -0.001591 0.0129718 -0.00944093 -0.00342061 0.0126093 -0.0108376 -0.000345246 0.0128941 
-0.00821924 -0.00605919 0.0124105 -0.0027868 -0.00589338 0.0129428 -0.00757371 -0.00415379 0.0126318 
-0.00180254 -0.000309895 0.0127066 -0.00576506 -0.00273082 0.0125815 -0.00517271 -0.00793984 0.0128499 
-0.00380531 -0.00374133 0.0126394 -0.000301615 -0.00161174 0.0129741 -0.0005827 -0.00578615 0.0129461 
-0.00592659 -0.000504263 0.0125376 -0.00135376 -0.00765827 0.0124708 -0.00418976 -0.00142453 0.0129835 
-0.00542846 -0.00492847 0.012436 -0.0022678 -0.00224744 0.0129991 0.00706347 -0.00813079 0.0129951 
0.00282073 -0.00823307 0.0128756 0.00479929 -0.00762641 0.0129486 0.00615669 -0.00615762 0.0127224 
0.00249671 -0.0011688 0.0130273 0.00393989 -0.00257306 0.0129024 0.00591273 -0.00316615 0.0128614 
0.00450249 -0.00469717 0.0128888 0.00105975 -0.00707716 0.0129149 0.00906047 -0.00785125 0.0129729 
0.015019 -0.00807439 0.0126494 0.0089562 -0.00503441 0.0129136 0.0107816 -0.00679042 0.0129479 
0.0109621 -0.0047947 0.0128428 0.0149695 -0.00499966 0.0127884 0.0112949 -0.00152325 0.0129315 
0.0127585 -0.00659323 0.012713 0.00977659 -0.00318093 0.0128619 0.0158886 -0.00245272 0.0126187 
0.0130559 -0.00255991 0.0128986 0.0129941 -0.00459744 0.0126935 0.00927494 -0.00117489 0.0129751 
0.016606 -0.00620608 0.0127326 0.0128865 -0.000104709 0.012961 0.0175282 -0.00827783 0.0125772 
0.0195419 -0.0083084 0.01236 0.0229074 -0.00689194 0.0124146 0.0233542 -0.00493717 0.0123445 
0.020046 -0.00229848 0.01253 0.0203163 -0.00554441 0.012329 0.0185711 -0.00656521 0.0125619 
0.0215821 -0.00396978 0.0124073 0.0237693 -0.00302333 0.0127659 0.0237931 -0.00102609 0.0125627 
0.0174472 -0.000926894 0.0126355 0.0220268 -0.00204267 0.0127181 0.0181082 -0.00279346 0.013027 
0.019384 -0.000409929 0.0127858 0.0220244 -4.97549e-05 0.0125428 -0.0237563 0.000527518 0.0126055 
-0.0235732 0.00383972 0.0126764 -0.0187644 0.00257993 0.0126078 -0.0203831 0.00140123 0.0128729 
-0.0203083 0.00391499 0.0125591 -0.0180929 0.00455935 0.0125431 -0.0206234 0.00595265 0.0126332 
-0.0231269 0.00580716 0.0126069 -0.017184 0.0073207 0.0127862 -0.0191997 0.00754444 0.0125639 
-0.022513 0.00774074 0.0126836 -0.0164873 0.00016246 0.0128721 -0.00926876 0.00236303 0.0129921 
-0.0135765 0.00531546 0.01269 -0.0107961 0.00753004 0.0126283 -0.0131504 0.0017115 0.0130212 
-0.0163144 0.00553336 0.0125489 -0.01045 0.00397234 0.0128294 -0.0128509 0.00723781 0.0126795 
-0.0111506 0.00166902 0.0130034 -0.0162558 0.0035475 0.0129128 -0.00970783 0.0058347 0.0127583 
-0.00842448 0.00423849 0.0127309 -0.00368311 0.000468959 0.0125615 -0.00542448 0.00144754 0.0126974 
-0.00289339 0.00687764 0.012693 -0.0063321 0.00348761 0.0128513 -0.00752334 0.00635464 0.0128076 
-0.00508303 0.00609895 0.0127713 -0.00806165 0.00828998 0.0127654 0.000458207 0.00475421 0.0129835 
0.00675963 0.000388075 0.0130632 0.00193989 0.000973417 0.012898 0.00645045 0.00407836 0.0125259 
0.00452475 0.00359665 0.0130396 0.00740338 0.00652464 0.0128186 0.00184795 0.00617565 0.0125272 
0.000770145 0.00276332 0.012985 0.00274594 0.0079364 0.0128743 0.000651639 0.00810234 0.012655 
0.00906575 0.00293792 0.0128145 0.014877 0.000148751 0.0130499 0.0162271 0.00174614 0.0127794 
0.01424 0.00445978 0.0129181 0.0124993 0.00548075 0.0129651 0.0152758 0.00617217 0.0130231 
0.0124901 0.00344407 0.0129523 0.0106467 0.000377134 0.0129311 0.0117132 0.00731477 0.0127896 
0.0155472 0.00814186 0.0127891 0.0135142 0.00821245 0.0128072 0.0172641 0.0056575 0.0129127 
0.0175101 0.00366738 0.0129009 0.0238525 0.00102264 0.0124879 0.0231086 0.0060142 0.0125359 
0.0183529 0.00184205 0.0128751 0.0237746 0.00307614 0.01257 0.021034 0.00571261 0.0125478 
0.01868 0.00733038 0.0126734 0.0220877 0.00195246 0.0126827 0.0217742 0.00390335 0.0130184 
0.0224744 0.00795181 0.012577 -0.0184883 0.0127867 0.0126256 -0.0179895 0.00915128 0.012497 
-0.0192539 0.0108584 0.0127703 -0.0212153 0.0109539 0.0123331 -0.0181906 0.0154274 0.0126649 
-0.0167246 0.0137778 0.0127472 -0.00989618 0.00937612 0.0128183 -0.00925657 0.0120504 0.0127435 
-0.0155798 0.00866719 0.0126364 -0.0120315 0.00942502 0.0129085 -0.0140368 0.0101059 0.0126984 
-0.0125494 0.0114347 0.0130546 -0.0145873 0.0132754 0.0127347 -0.0119389 0.0133588 0.0128511 
-0.00997357 0.0140266 0.0127151 -0.0151003 0.015401 0.0130391 -0.0112743 0.0157159 0.012747 
-0.00416961 0.00843937 0.0127182 -0.00762506 0.0133846 0.0124095 -7.24077e-05 0.00998026 0.0125845 
-0.00094312 0.0136241 0.0122206 -0.000293147 0.0156499 0.0124771 -0.00599471 0.0118373 0.0125868 
-0.00569063 0.0153212 0.0126886 -0.00410396 0.0141056 0.0124345 -0.00151882 0.00849434 0.0126202 
-0.00232116 0.0148943 0.0129945 -0.00742844 0.0166019 0.0127081 0.000155224 0.0119628 0.0124496 
0.00461335 0.0087053 0.0126561 0.00214494 0.0117713 0.0122385 0.00383307 0.010542 0.0128588 
0.00315903 0.0137879 0.0120838 0.0051503 0.012165 0.0124502 0.00702909 0.0136955 0.0126394 
0.00693065 0.00855116 0.0126583 0.00192363 0.00977498 0.0123719 0.00351137 0.0159372 0.0123738 
0.00794423 0.0104832 0.012774 0.00496371 0.0141528 0.0128659 0.00563966 0.016379 0.0119646 
0.00159773 0.01476 0.0130314 0.00859713 0.0151101 0.012185 0.00858073 0.0123961 0.0128022 
0.0148971 0.013793 0.0127339 0.0150427 0.0100794 0.012717 0.0164568 0.0120137 0.0124178 
0.0124753 0.0146691 0.0125008 0.0117768 0.00931557 0.0128439 0.0131808 0.0108071 0.0127943 
0.00991843 0.0108901 0.0127919 0.0130106 0.0128003 0.0129704 0.0110033 0.0126472 0.0128036 
0.0145218 0.0161356 0.0124527 0.0168825 0.0140412 0.0126456 0.0170408 0.0100385 0.0126419 
0.0197401 0.00901048 0.012439 0.0216364 0.00978094 0.0125418 0.0188924 0.0108648 0.0124442 
0.0207875 0.0115997 0.012454 0.0197967 0.0133608 0.0123534 0.0186235 0.0150184 0.0124067 
0.0171369 0.0163913 0.0126572 -0.0137608 0.0169532 0.0128383 -0.0134318 0.0197308 0.0127953 
-0.0113683 0.0208084 0.012313 -0.00934494 0.0201708 0.0124257 -0.0121111 0.0181641 0.0126266 
[...]
POINT_DATA 5997
FIELD FieldData 7
id 1 5997 int
72 1217 489 687 453 366 689 20 756 
16 970 1007 69 186 158 626 580 812 
1141 899 479 565 388 379 83 493 472 
14 1499 48 154 230 61 160 637 1073 
364 550 219 433 246 963 1163 558 1096 
285 223 145 568 761 369 34 2070 226 
98 546 1375 1400 718 269 709 107 1664 
1692 243 456 100 913 108 661 213 1772 
87 543 1540 1675 1094 905 206 122 1815 
711 480 1360 1126 728 794 988 1205 1614 
261 1430 68 854 1121 71 799 295 1389 
1538 392 1402 1390 606 1829 126 2330 2338 
497 1066 581 464 1089 991 15 1172 211 
719 599 2212 804 805 2258 554 759 592 
2016 824 184 1062 1604 1492 1493 1369 1505 
142 1768 228 1757 92 347 1088 124 1900 
1842 2 340 491 712 598 1570 109 396 
1 870 779 469 1755 1426 1769 695 820 
110 488 457 171 420 690 751 861 796 
391 577 974 367 950 1379 3565 878 1329 
1253 137 2240 36 414 1322 1267 1237 1197 
643 200 684 882 318 1058 966 1122 1124 
2451 3151 2116 1899 2187 1808 713 5 833 
390 2143 1666 1332 2313 817 316 2440 1077 
1295 371 38 359 2133 771 926 393 94 
1020 1033 73 132 1041 1222 254 328 281 
1523 35 361 325 879 912 2403 1159 180 
1190 1230 727 352 939 270 1658 544 887 
467 330 844 1619 1636 1419 1415 2037 2208 
677 1104 301 801 651 1227 348 1881 1035 
1527 1589 444 1225 1398 841 128 1229 1607 
168 2114 2681 76 766 205 1958 202 741 
745 1272 25 291 1680 1350 681 277 227 
377 660 113 89 1249 931 506 601 173 
610 1265 79 47 857 292 450 1735 175 
784 1582 1848 29 1263 1858 509 1751 275 
2757 146 1182 2036 985 458 1443 74 2229 
2198 471 1264 423 683 2173 161 1642 3032 
1411 2296 676 210 259 463 65 1649 1501 
332 212 397 86 518 1502 3584 2423 781 
1586 2234 1064 2304 419 1150 587 1866 447 
3217 1404 1383 1136 1972 1580 2025 1304 473 
3221 649 31 403 614 1119 949 1305 3166 
162 166 671 983 1008 764 611 621 808 
151 2049 64 13 641 2398 729 644 1221 
1875 1670 1840 3022 749 2091 1337 1067 1449 
2339 1284 2740 3400 1968 1016 2388 618 1694 
2593 2727 2482 2669 176 1039 2242 1129 4480 
1111 37 2342 1810 4475 3790 1901 2981 1241 
624 849 1543 1857 1399 578 23 102 597 
773 2298 702 640 625 342 631 920 973 
1554 733 2103 1555 1100 1738 875 1722 179 
1747 85 706 595 570 916 1729 2595 46 
2845 1051 1776 2072 3273 2836 1070 1528 1571 
409 1513 302 1995 3188 2138 4549 286 1013 
484 856 224 425 1811 633 657 1406 215 
443 1186 714 760 757 602 1254 1302 496 
11 1338 962 338 1226 1639 1193 378 720 
1320 791 1307 560 1760 2454 2364 3544 462 
3085 2424 2507 2576 1983 2190 336 1940 3010 
2230 81 2843 2073 3146 1461 4057 2819 3486 
2603 3751 2788 1671 2464 2376 1854 1343 503 
1474 884 769 2226 1378 1059 241 863 1856 
917 2453 3225 2408 1766 1711 1114 2135 1787 
2805 1215 1635 3029 3078 2560 2833 2804 2598 
2372 163 2417 3401 3376 2899 2134 279 1745 
2493 3945 1773 2868 656 2416 1532 3327 2374 
2159 3455 2761 3090 1301 3874 3256 1262 237 
218 1473 452 770 326 3 2552 704 648 
1176 1074 2115 1269 511 1838 1930 1546 3109 
1019 2716 50 2629 1339 2040 504 1681 2655 
1698 802 1353 1021 2193 3777 3396 131 2954 
675 2558 1534 3002 2253 2946 3200 519 3937 
3202 2300 3614 2017 181 880 1783 395 1733 
2354 1921 1218 1695 2228 344 1110 278 1509 
1906 902 274 1318 2499 1165 252 2420 2856 
1824 1068 910 3397 3352 1347 1001 2457 1372 
3331 1880 1648 1209 2748 380 1567 2521 1228 
1526 2429 1942 1891 2456 1893 1730 4129 2892 
105 138 408 475 540 273 848 731 30 
636 155 732 943 442 439 957 437 737 
91 894 1289 17 693 816 368 1584 1521 
2626 296 1506 1605 1053 1286 305 1489 862 
3127 1235 99 45 1720 1723 2200 2096 967 
67 432 782 440 95 2855 492 1661 3822 
2289 1598 3183 663 4 56 62 1071 995 
627 818 647 692 172 232 193 298 70 
723 148 115 582 1177 609 77 1048 908 
404 584 527 1319 10 1285 1297 1151 1539 
446 904 1002 691 1112 1602 1178 930 201 
346 2471 889 2409 1299 2290 830 2067 2530 
461 2152 2285 1482 1691 1718 600 980 1421 
2792 1118 1779 3813 2383 2509 982 2245 562 
2345 2387 2944 4101 3678 1950 2151 3796 3093 
1507 1638 3025 2455 3080 4961 1363 1924 4637 
4440 3519 3422 2186 3733 2233 4077 3445 2432 
3998 3966 449 4216 2949 3665 1412 2231 2910 
3064 3429 3888 3182 1469 4186 3453 3259 3951 
2126 97 708 174 1261 2085 2005 1511 797 
2337 971 3075 860 2331 1457 2999 3053 936 
2876 2893 1628 1207 2299 2778 2480 1354 2975 
1790 2312 3366 2496 2850 2790 3564 3698 1326 
3451 3615 3410 2394 2734 2579 2155 58 427 
553 2513 1425 2127 1525 2039 103 2100 1655 
564 2567 1300 1703 2264 1651 363 1220 3553 
1308 478 1633 1954 789 864 530 1748 1158 
2670 2385 2495 650 3077 3873 3466 2254 1189 
1797 2014 1998 3059 3802 3279 2832 3232 3372 
3133 2303 3750 413 445 1042 251 1146 2084 
32 2255 1294 2724 1084 2693 63 1594 1581 
1742 2149 752 1630 1535 3229 1195 529 1183 
1777 2532 2222 1468 2369 247 1938 9 1520 
1453 195 482 508 2915 2344 312 4258 1309 
2191 2439 2527 1770 981 668 1550 1202 2317 
455 2288 1054 557 169 573 2612 1047 1043 
1028 1078 1364 1015 866 952 740 964 953 
104 2176 1149 785 847 1131 207 1830 1408 
300 705 317 474 583 2318 758 2021 1310 
1612 127 1429 1955 260 585 1731 354 754 
156 1248 214 383 890 619 238 531 586 
268 362 57 1049 1351 783 748 935 1486 
851 123 541 1572 588 1843 1223 495 470 
147 1004 549 679 373 881 240 310 287 
1095 1169 750 290 235 136 522 1382 1359 
673 1244 1563 1075 263 685 998 1771 1673 
436 1367 2367 567 765 1632 1113 1056 1758 
792 867 412 738 1097 1494 2842 1010 1199 
2541 2028 1250 407 1885 686 940 3034 3556 
3234 3148 3001 2906 2023 3378 2450 2707 4130 
3199 4493 3192 2467 3488 3033 3855 2378 3341 
2270 1970 3437 4316 2730 2351 4418 3799 3893 
3689 2959 2618 4419 3529 3399 3949 4134 2721 
3286 3393 3982 3710 2359 3974 2570 5741 3154 
2588 2644 3257 2947 3106 3833 3458 2988 2867 
3092 4405 3456 3379 3947 183 1801 1483 1765 
1283 375 3037 2533 2697 1627 3548 3100 537 
852 2998 2512 2421 2916 2389 1919 1384 2744 
1518 2018 3391 2771 2615 2483 937 1609 3067 
2215 2346 1786 5467 2702 3480 3027 2294 2786 
3745 3030 2678 3297 1366 3007 1441 2064 3942 
3602 3265 2148 2972 2336 1894 2575 3006 3364 
3409 2835 1672 234 994 244 1637 777 1103 
2762 825 1933 1032 1969 2043 2293 3159 2341 
2846 2904 955 191 2658 2592 117 1036 2687 
3462 2287 3383 3348 3523 3518 1817 1807 2602 
1476 3287 66 1920 2764 2902 2088 1145 3329 
3118 2333 4252 2053 2000 2465 3060 3389 2261 
716 1629 18 1491 2401 1006 1331 2474 313 
2958 788 255 1152 1325 1668 2701 960 2986 
1678 3831 1717 2158 299 1792 3521 513 2129 
2206 3300 3569 2534 2865 3315 2808 2136 2544 
3079 965 3501 3398 2329 3332 1663 144 2890 
743 248 1662 370 1578 2273 1394 1667 909 
1752 593 111 1887 8 52 2080 701 2485 
822 1978 1093 1888 1273 1185 1585 827 658 
753 1825 2306 535 616 992 1883 831 1405 
2411 1031 961 798 630 1432 112 898 199 
1017 526 999 1256 978 1587 662 297 1132 
1579 1548 372 343 846 604 1724 242 525 
329 101 262 178 51 744 945 93 75 
1120 257 655 821 357 984 815 384 707 
1116 551 1140 88 774 710 337 638 188 
177 139 1715 190 591 1821 490 1895 512 
153 225 358 198 43 39 434 1536 1323 
250 959 271 1564 2076 2470 2320 2706 2183 
2719 1588 2992 3155 3263 3469 2591 3547 3091 
2252 1929 1208 3089 1953 284 1362 3039 2961 
1956 1868 3956 2170 1741 1268 118 1276 22 
2112 1376 921 253 2581 2677 672 2007 424 
182 1030 1753 1952 356 327 2851 401 2178 
2060 1424 3303 2079 1701 2763 143 2436 2858 
1155 2461 2459 635 2400 1243 2446 1280 1063 
2577 2766 426 670 282 3147 1618 2587 934 
1608 924 2343 1490 552 1168 1187 778 334 
1440 21 694 1646 1676 1679 807 699 938 
1370 566 1316 2360 742 1653 3000 2903 2081 
3728 2433 947 2427 1510 1819 1836 2794 2630 
258 49 3014 350 1157 2501 2711 698 3572 
2249 2650 1529 1143 1652 2162 2720 1624 2069 
1481 2648 2399 823 1275 2065 1907 355 1669 
2823 1979 1781 1545 2113 2613 2753 351 2327 
2930 1576 1990 1365 1079 2780 220 2696 283 
2583 1928 1849 1472 1936 2139 1451 1932 2756 
4273 1761 2537 3238 2645 617 2171 2732 2550 
3394 2263 3193 2274 2869 4229 265 2875 2661 
3049 2332 2539 2498 2803 3444 3540 4084 2051 
3277 1336 579 1944 150 1641 1386 315 1278 
2169 2167 1137 2083 622 1603 907 1279 2130 
1850 96 399 810 2031 1029 116 498 2019 
422 2555 2348 141 843 1282 1496 1813 1700 
734 3374 2818 466 2659 2237 1139 1976 2543 
1939 1569 3358 726 539 1198 320 249 976 
1065 735 793 2825 276 1845 885 987 389 
900 1203 868 755 400 968 231 78 321 
1948 460 608 2315 1517 1024 2948 1156 2236 
874 135 645 1403 376 1905 1831 3054 2619 
505 1106 1314 140 494 877 922 402 189 
2463 951 669 646 40 623 1281 819 1101 
1428 365 2098 659 27 1240 1175 516 1566 
836 813 476 3213 2900 1721 607 2213 1686 
1439 2841 845 507 534 944 1475 1565 730 
1025 1288 1912 1333 353 2422 1410 1213 1173 
1544 1161 2192 1427 2244 3124 1026 763 2239 
1107 2625 2452 2508 2224 800 2776 2353 55 
3119 2102 2561 2695 1626 1947 197 2050 4557 
2059 2905 3531 2319 3558 3559 3103 883 891 
1595 4225 2063 928 4024 3452 3906 3153 536 
1746 1744 1108 1592 2605 483 517 7 2503 
787 481 989 1562 502 28 3746 1330 1105 
1812 1368 2350 1610 4202 979 2030 3762 4234 
3184 3340 2631 333 4141 1991 3748 1645 3494 
3219 2849 4406 3215 972 1444 428 832 747 
2597 309 1200 1080 969 666 239 2390 256 
620 2692 1904 152 2154 1167 1153 1072 1435 
1559 33 2221 2646 946 1098 2223 1937 2038 
1045 3381 2048 3412 2074 2877 2652 4166 4829 
4968 2271 5704 1500 4446 4935 4717 3274 5224 
5447 4610 3789 4631 4127 5135 3968 2466 5420 
4389 5376 4431 3725 4457 3664 4789 5015 4650 
4981 5223 2058 3570 4112 2458 4868 2444 157 
4348 5195 2824 3339 3632 3770 5074 3930 1714 
2997 2414 4237 2520 4598 4286 4320 4905 3324 
3472 3758 4466 3708 4809 5605 2854 3596 3712 
5106 5789 4200 4351 4944 1631 2384 2243 2911 
2275 1504 3668 2301 3371 1913 3495 3390 2673 
2609 3012 837 2770 3476 3207 1690 4306 3637 
2728 2741 2703 2633 2442 3807 3977 2739 2799 
3821 1699 3697 4305 5383 2281 3308 2121 4655 
3272 4514 1599 185 1754 208 545 1728 1037 
416 1552 1346 975 2278 293 59 1484 129 
1138 1290 1464 229 918 2772 2874 3535 2641 
3700 3524 3211 3702 2181 2026 2638 2700 2082 
3736 4287 3829 1455 1980 2406 4087 1234 2714 
4499 5558 4634 5032 3861 3915 2996 5054 5301 
4709 5877 4135 4618 4019 2515 2131 3760 4254 
3041 3431 2717 3426 4892 2510 4152 3475 3031 
4652 1401 5372 5068 3368 3507 4712 5105 4025 
4071 3780 4076 3843 3591 5034 4788 4678 5228 
5019 4504 5043 4906 5094 4784 5340 4982 5459 
5682 4823 2519 3096 3395 5235 5641 5488 5241 
5749 5533 5347 4235 5004 5374 5075 5916 4498 
2708 1784 790 3073 3052 3189 3457 2203 2366 
2095 3851 2853 3732 2572 2925 3683 2815 3212 
4179 2847 2358 4292 2410 2566 4886 4578 4017 
3505 3162 4702 4660 5221 4952 4527 5751 4691 
5613 3720 4947 3317 5306 4772 5733 5002 3019 
2927 5539 4836 4843 5516 1224 4161 3606 4967 
2664 5097 5524 5766 6012 1191 2062 2545 3158 
1767 3164 3160 3794 2684 2637 3970 3436 3623 
5215 2001 3862 3577 2297 2980 1775 3513 3275 
3074 2078 4136 3246 3402 3603 4456 5065 3743 
2817 2908 2371 4293 4969 5454 3817 5117 4563 
4586 4777 3038 528 3828 5086 5475 3902 1982 
5354 4450 4461 4435 5811 4687 4798 1902 628 
133 130 1903 1846 2657 1465 1391 2006 2662 
2077 222 2008 3143 1865 1232 2413 339 1987 
233 806 2797 12 294 1334 1046 3418 1257 
2022 1179 2651 2745 1945 3811 3690 2412 2531 
1233 1381 2118 2108 2589 2492 2032 1463 3925 
4686 2502 703 454 776 717 307 1659 639 
314 556 680 1805 1236 2089 853 896 612 
575 786 1327 925 1643 267 1593 576 80 
1782 2688 667 1344 1292 2106 2195 1091 1560 
1466 1470 1897 2663 911 2146 615 1247 3392 
2991 4160 4483 2898 3137 2751 4128 4056 3105 
3671 4045 3612 4043 2393 2636 4290 4962 3045 
5172 3715 3099 5394 4865 5259 4627 4455 5732 
5958 3356 5081 5910 5721 5767 3242 4061 4122 
4366 5776 3598 5271 4114 5878 4239 4278 4282 
4910 5138 3050 3641 4214 2090 5171 2816 4165 
4337 2966 3972 3961 4275 4465 5284 3072 2477 
1984 4983 4963 4046 3468 2953 3571 2362 2489 
3899 5492 4779 4640 3957 5966 3044 4185 5305 
3562 2887 3675 2445 4863 5567 4780 4156 1853 
2610 4941 5851 5639 4000 4481 4050 5688 2848 
5234 4059 5699 2793 5572 2569 4502 4893 3812 
5405 4550 3667 4554 6024 4385 1454 2976 5939 
3545 4414 4822 5057 4227 3950 1996 3599 3330 
3176 4443 4325 3647 5069 5640 3810 3848 3849 
5229 4139 5225 4991 4003 3180 3658 5830 2426 
3013 3424 5909 5906 335 5329 4684 3917 5287 
4012 5294 3442 5430 2535 2145 2971 3467 2165 
1315 1090 3912 3065 3749 2861 4270 3432 2807 
3377 2667 3853 3726 1086 4267 3918 3203 1393 
4425 4265 2003 4672 4151 4720 4801 4539 2857 
1514 3473 4911 3847 3481 3051 3247 4922 5457 
4662 2935 2660 1994 2963 4245 3492 2523 1967 
1910 1601 1044 2682 548 1478 1557 1005 2443 
1352 1927 1684 2340 2559 3206 3023 2710 2128 
2675 1844 1061 2473 82 865 2368 1926 3035 
1252 345 3786 2211 3450 574 3973 1409 2219 
835 1874 2042 2866 2933 3709 3717 1689 1388 
2111 1038 2428 2475 3487 2977 2831 2984 3354 
1184 245 1164 1115 410 1644 2033 1460 809 
435 923 997 216 1660 289 204 167 221 
1356 1556 1739 1479 411 1437 1806 1260 429 
1542 1962 1416 387 1778 430 303 1613 2034 
1727 1989 780 1303 26 1040 406 1863 441 
572 948 459 1245 1196 1082 629 1445 374 
1707 515 1142 1516 264 1911 2105 1615 795 
187 192 3336 1561 194 1917 2216 90 4301 
2620 3979 3920 4615 4794 3631 3003 1873 3375 
5792 3834 5047 5650 3965 3685 4082 3782 4379 
5918 3135 4224 5988 4611 3869 3904 4757 5250 
3948 5336 3097 3798 4874 3087 3342 3321 4060 
2156 5636 3931 4138 5712 3742 3534 3676 4279 
2514 3126 2606 3871 4677 4117 4469 3255 3656 
1803 2488 3805 2262 2862 3605 4485 2715 5452 
4428 4781 3484 3061 1434 4689 4625 5009 2885 
2784 4434 3305 3846 3707 3803 2002 3101 2918 
5216 3198 3430 3787 2679 4257 4448 4360 3541 
3933 3775 3174 3296 3536 4651 5026 3797 4421 
2607 2722 3761 4902 4633 3205 3056 4048 3669 
3131 2557 3095 3443 1512 2232 3021 2768 3280 
3474 3325 2802 3704 3046 2897 2052 3016 4303 
4038 2061 3284 3138 1702 2478 1130 3581 2666 
3459 3514 1965 1092 2923 1450 3740 3415 3338 
4089 2712 2328 3008 3403 2829 3773 4696 3270 
2635 3763 5073 3048 2168 3464 3449 2491 3361 
3337 3839 4013 3423 5246 3385 3414 4345 4154 
3808 2547 1802 4250 3508 3806 2782 1057 5344 
3604 2506 2926 2196 2837 5302 5040 3057 3654 
3047 4680 4914 3997 4708 3262 3633 3975 3872 
3679 1340 2628 2617 2292 2046 1763 4391 1583 
2937 3573 2434 3136 2251 3578 3955 2164 2931 
828 3335 3916 3209 5404 1418 3645 3611 3108 
2686 2791 4459 4436 2767 4080 4399 2759 4820 
4255 5552 2718 4314 4194 1685 3055 4787 2185 
2798 3149 559 2586 1317 3343 1433 1246 697 
1170 1795 1898 1324 3114 2010 121 2197 1647 
1212 986 308 1625 1941 323 1447 106 2642 
555 1725 1704 700 1674 1800 341 1553 1480 
2500 915 696 2614 1076 2896 1377 1828 1422 
3769 1462 1342 590 1287 41 2153 1852 1870 
1785 2035 2773 1682 1181 4018 1750 2418 1877 
4588 3434 2150 2377 811 1914 767 417 1780 
1621 1413 1387 876 958 1683 1373 1255 1180 
520 839 1135 688 1341 1966 664 196 768 
1083 170 1963 850 164 1497 1023 1014 119 
1018 1448 954 1034 1749 1573 1144 1574 521 
524 500 418 1597 1188 1957 331 203 1495 
1985 217 569 1123 772 1590 1515 1734 605 
1052 1485 919 933 762 2749 486 2277 3062 
2094 873 2027 2395 990 3110 2024 3204 2872 
2175 2634 2396 2402 165 2041 2314 4508 1837 
1436 1568 1298 60 3952 2621 2901 394 2227 
652 2335 2004 2970 2690 589 1442 855 2624 
2438 1487 1867 2382 1713 2310 1737 1242 2204 
1206 1774 2769 1909 2604 2305 3144 2627 84 
3190 2985 3801 1371 3145 1361 1452 1194 2548 
3125 149 2680 1677 2141 510 2447 1541 3503 
2562 1622 3627 1791 2087 2524 2184 2309 1623 
2086 2676 3463 4644 3446 1192 3836 2826 1709 
4091 3941 3538 4198 3842 941 2859 1922 3298 
4313 3380 3427 2907 3082 4026 2554 4726 3554 
3555 3294 3416 3194 3040 3727 2246 3071 3004 
381 2125 4044 2490 4310 4896 715 3252 3360 
2468 3752 3322 3638 3502 3629 4805 3996 3261 
5005 2785 3724 5260 2795 4030 3643 3741 4204 
1973 4817 2880 3883 2307 3058 3694 3903 4411 
3681 3894 4317 4623 2965 1876 2755 3934 3170 
4870 5207 2774 613 2511 2830 2957 3734 2839 
2924 3958 4521 1214 3178 501 3239 2736 3224 
3624 4172 2256 1127 3478 3594 4022 4015 1488 
2665 3960 3266 3104 2775 3986 3897 3672 4561 
4468 2691 3823 4937 2978 3771 3644 2942 2968 
4762 4217 4023 2967 2962 3928 3932 2806 1210 
322 4531 2919 2995 4063 4715 2107 2238 2075 
1611 721 1925 1423 3527 1872 893 1687 1133 
1321 2828 319 3731 2207 1835 1992 1577 4336 
1154 892 594 829 2989 1456 859 603 2448 
4839 1266 2738 3510 2863 5168 2932 1087 523 
1974 2199 2656 448 2844 2704 1277 1923 4251 
4371 3081 1174 4753 1827 1558 2302 1011 2404 
1851 1975 1864 2522 4792 1822 2546 1258 2356 
1293 1522 1960 2886 869 1726 2441 2563 2479 
1022 2123 386 3919 1211 1860 1085 2864 2611 
1620 451 2481 2484 2357 514 360 2257 1971 
2119 2536 4415 1349 4808 1498 4732 1407 6 
3721 2584 2709 2487 438 2247 2286 3636 547 
2012 2214 1531 2571 929 2117 2029 1756 2202 
2266 3094 2334 2101 3601 4001 2054 2827 3271 
2683 2913 3560 3788 2647 4641 1162 3759 3657 
1993 4120 2322 3609 2365 1606 4230 2425 3283 
4308 1986 4433 2201 4970 4062 4231 3489 2884 
3592 2698 3985 4581 4103 3512 3670 2879 3333 
2929 3289 4381 4104 3693 4363 4654 4524 3526 
4473 2009 4731 3984 3490 5735 5393 4958 5243 
3552 5911 3539 5550 4307 4671 5642 2979 3909 
4533 5014 3140 5357 5165 4959 4272 3781 4065 
4361 5282 5275 4490 5847 4764 5481 4053 5390 
2983 4919 1889 2811 3306 2912 4090 4495 2735 
3313 2777 3163 4679 5573 3367 4582 3253 4478 
4068 4860 4785 3837 3776 5042 3648 2594 4646 
4700 5810 5278 3069 5202 5174 4816 4396 3795 
3963 4551 3901 5082 4223 4369 3009 4883 5876 
3086 5711 5176 532 4519 3585 4955 5288 2071 
3355 1549 2280 2600 1204 3610 634 382 3989 
306 1640 159 2210 2779 2713 1027 2622 1820 
4119 4920 3276 1946 3590 1839 4451 4344 3607 
2157 5896 2209 3347 4938 4985 3940 3482 1147 
4965 5419 5485 3625 5768 5857 4745 5927 5496 
5113 4765 5269 4510 3852 2109 4378 5211 3756 
5714 4403 4907 5627 4393 5279 4526 4984 5157 
5755 4663 2124 6046 5348 4995 5608 5506 4875 
5277 5592 4786 5146 4199 5370 6053 4825 5571 
5263 5133 5100 5781 5632 4793 5540 5189 5609 
6041 5705 5536 4424 5841 5561 5959 5697 4738 
5960 5490 4621 2529 5799 4673 5099 4855 4760 
5120 5520 3999 5201 5701 6009 6027 5790 4987 
5743 5957 5451 5630 5304 4596 4283 2952 5647 
3783 5629 3889 5310 5986 5950 5181 5595 5603 
5989 4211 5915 3498 5734 4724 4840 4409 5255 
4934 4094 3659 5476 5796 5427 3546 5998 4387 
3227 5809 5125 5006 2987 5551 5899 3491 5180 
4683 5143 5036 5423 5111 3779 5155 5392 5897 
3292 4744 4665 5300 4137 5507 5184 4321 4346 
4140 6023 5326 2528 1716 2518 304 2283 674 
3652 2276 5500 4452 2928 3856 2765 1069 2956 
4197 4873 3309 4074 2723 2099 3201 1977 542 
5283 5199 4116 5969 5239 5484 4953 3991 2325 
6062 4727 5596 5943 3566 5089 5607 5938 5025 
5013 4770 3357 5887 5892 6061 4541 4722 3954 
4149 5586 4335 5262 5122 4824 4558 5774 4506 
5079 4602 3885 4799 4711 5848 6070 5926 5855 
5844 5582 4491 4693 5253 5628 5991 5434 4509 
5178 5818 4956 5514 5843 5935 5156 5182 3214 
4763 4876 4649 5258 4530 4692 5824 5365 5531 
4218 3574 3115 5408 5649 5505 5084 4913 5804 
4312 5528 5619 5680 5814 5805 4999 5238 5023 
3240 4688 5965 6030 5360 3969 5351 5377 5784 
4993 5261 5860 5167 4996 5563 4319 5727 5474 
5611 5778 5600 4853 5406 4331 5442 6032 3825 
5569 3691 5817 5381 5541 5114 5806 4042 4928 
4215 4986 3525 5373 4647 4168 4285 5947 4939 
2568 4326 4342 4543 4150 5519 4859 3723 5397 
3995 5045 4184 3983 3542 4075 4743 5631 5280 
2166 5963 2917 2834 5615 3927 1438 3729 3774 
3699 3439 2920 2057 2601 3719 3304 4064 3291 
4568 3120 3373 3580 4636 2386 3417 3579 4106 
4885 2922 3365 2921 3944 3435 3818 2699 3800 
6016 5299 1705 3036 2814 3302 2225 4276 1884 
1708 3767 1915 4384 3640 4917 2194 3171 1981 
858 1688 1003 3646 1055 1861 1148 654 4105 
2787 134 1859 2783 1816 2820 1239 1710 977 
2248 2161 3735 2013 1291 288 2590 2674 533 
3528 4193 3935 5653 5001 5213 5132 4463 5616 
3772 3191 4288 5907 4847 5723 5995 5389 3922 
3630 5375 4078 1916 4940 6066 4949 2758 5428 
3134 5891 5791 5578 2822 2746 5055 5252 4699 
5150 6025 3816 4192 5684 5762 3738 3197 2218 
3563 5183 3285 6015 5869 4830 5415 4328 5247 
5027 4375 4848 5724 4417 5888 5058 5777 4538 
5521 4400 5453 5725 5437 5169 4626 5059 4560 
4439 5407 5625 4545 4951 4438 5871 4142 4998 
4426 3978 3608 5076 2355 5052 5108 3649 6010 