# vtk DataFile Version 4.2
Generated by LIGGGHTS
ASCII
DATASET POLYDATA
POINTS 5997 float
-0.013817 -0.018966 0.00272163 -0.0118933 -0.0203457 0.00236897 -0.0118189 -0.0183935 0.00299154 
-0.00970989 -0.0169193 0.00350223 -0.00916534 -0.0217089 0.00261648 -0.00127928 -0.0174554 0.00340186 
-0.0079296 -0.0198636 0.00223319 -0.00545091 -0.0192879 0.00332021 -0.00244616 -0.0215553 0.00337665 
-0.00655559 -0.0225913 0.00316755 0.00630878 -0.0211237 0.00277025 0.00231468 -0.0179404 0.00350459 
0.00228112 -0.0211453 0.00324299 0.0040933 -0.0197283 0.00323961 0.00527201 -0.0229445 0.00262867 
0.00927848 -0.0220373 0.00304027 -0.0175354 -0.0157099 0.00285717 -0.0225119 -0.00804504 0.00351607 
-0.0184409 -0.0132139 0.00280342 -0.0187539 -0.0100863 0.00338067 -0.0125898 -0.0145227 0.00356442 
-0.0123072 -0.0120559 0.00342603 -0.0055212 -0.0123648 0.00365202 -0.00182202 -0.0113099 0.00327493 
0.00828992 -0.0148964 0.00357548 0.00572295 -0.0145819 0.00307434 0.0115973 -0.0136851 0.00359805 
0.0183252 -0.0122885 0.00359998 0.0157975 0.0153171 0.00314292 0.0170711 0.0138158 0.00350992 
0.0204227 0.0122881 0.00355693 -0.00772877 0.0188222 0.00291966 0.0018734 0.0214965 0.00266524 
0.000537527 0.0170502 0.00359536 0.00273714 0.0233878 0.00322316 -0.0170764 -0.0165997 0.00580437 
-0.0138255 -0.0168561 0.00409351 -0.0160272 -0.0172679 0.00387171 -0.0144435 -0.0187393 0.00460641 
-0.0125843 -0.0202021 0.00431154 -0.00993597 -0.0190089 0.00403037 -0.01063 -0.021079 0.00460539 
-0.012209 -0.0183554 0.00565603 -0.0140066 -0.0192865 0.00651404 -0.0104186 -0.0177084 0.00635894 
-0.0134112 -0.0171276 0.00698545 -0.0123574 -0.0204131 0.00630637 -0.0159492 -0.0177532 0.00707528 
-0.00994124 -0.0217161 0.0065482 -0.00955273 -0.0195311 0.00644603 -0.0141716 -0.0192085 0.00879407 
-0.0116836 -0.0184455 0.00799794 -0.0100876 -0.0167883 0.00821122 -0.0119878 -0.0204024 0.00835284 
-0.0162441 -0.0173425 0.00923838 -0.0138311 -0.0170418 0.00894115 -0.00969867 -0.0217812 0.00861083 
-0.00991798 -0.0195712 0.00844576 -0.00839563 -0.0177308 0.00577774 -0.0147129 -0.0187577 0.0107351 
-0.0105805 -0.01807 0.0100561 -0.0109636 -0.0211718 0.0101067 -0.0128479 -0.0177253 0.0106767 
-0.0126281 -0.0198246 0.0108545 -0.016406 -0.0173019 0.0113112 -0.00375716 -0.0167583 0.00372829 
-0.000177274 -0.0220056 0.00415969 -0.00684139 -0.016844 0.00404469 -0.00159561 -0.0237856 0.00393977 
-0.00769511 -0.0187592 0.00402426 -0.00453135 -0.02319 0.00357086 -0.0028433 -0.0189832 0.00472747 
-0.00410966 -0.0207988 0.00448596 -0.00125153 -0.0203945 0.00482356 -0.00786244 -0.0208119 0.00399739 
-0.00578466 -0.0225132 0.00519993 -0.00125063 -0.0239088 0.00602106 -0.00543442 -0.0183972 0.00556308 
-0.000276423 -0.0220397 0.00640714 -0.00222665 -0.0197782 0.00679603 -0.00235831 -0.0221678 0.0054666 
-0.00764508 -0.0224461 0.00600352 -0.00600605 -0.0208509 0.00638734 -0.000358138 -0.0187328 0.00720249 
-0.000933177 -0.0206289 0.00825415 -0.00204079 -0.0178376 0.00884087 -0.00386429 -0.0185619 0.00766301 
-0.00677146 -0.0180229 0.00714925 -0.00155149 -0.0237981 0.00815082 -0.00306223 -0.0220783 0.0075121 
-0.00552782 -0.0231917 0.00709586 -0.00777302 -0.0170447 0.00873281 -0.00293509 -0.020153 0.00875908 
-0.00771098 -0.0200281 0.00732632 -0.00355827 -0.0235798 0.00894778 -0.00471317 -0.0205619 0.00790247 
-0.00764705 -0.0226306 0.0080915 3.21792e-05 -0.0189723 0.0093344 -0.00155674 -0.0221729 0.00941564 
-0.0047304 -0.0176726 0.00928874 -0.000160041 -0.0238333 0.00983651 -0.0014206 -0.0201291 0.010141 
-0.00320698 -0.0186117 0.0103161 -0.00572944 -0.0231824 0.00908996 -0.00350637 -0.0214604 0.0101757 
-0.00212032 -0.0238166 0.0104293 -0.004474 -0.0232574 0.0107535 -0.00272664 -0.0200154 0.0116604 
-0.00145506 -0.0216688 0.0114575 0.000982501 -0.0197046 0.00500839 0.00586788 -0.0171346 0.00365017 
0.00485835 -0.0213767 0.00417865 0.0027305 -0.023152 0.0036027 0.00656163 -0.0199304 0.0043808 
0.00105127 -0.0238296 0.00511246 0.00127245 -0.0177043 0.00562653 0.00380116 -0.0185252 0.00500557 
0.00721644 -0.0218275 0.00460476 0.00534244 -0.0230971 0.00522492 0.00167685 -0.0216431 0.00546961 
0.00656604 -0.0177296 0.0054856 0.00312839 -0.023554 0.00590028 0.00557177 -0.0209892 0.00611365 
0.00736279 -0.0197415 0.00628333 0.00719073 -0.0227131 0.00649144 0.00269944 -0.0197858 0.00619708 
0.00834369 -0.017809 0.00665658 0.00476805 -0.0233444 0.00713587 0.00466849 -0.0183436 0.00699452 
0.000765813 -0.0218008 0.00872287 0.000779102 -0.0170602 0.00853124 0.00107204 -0.0238186 0.00793715 
0.0014319 -0.0195948 0.00788085 0.00246719 -0.016965 0.00730599 0.00276455 -0.0220917 0.00740129 
0.00645733 -0.0180457 0.00789835 0.00408404 -0.0204158 0.00750819 0.00692932 -0.020944 0.00793225 
0.00626099 -0.02298 0.00860852 0.00416137 -0.0169003 0.00838072 0.00426261 -0.0225488 0.00903899 
0.000506515 -0.0196358 0.0114266 0.000798764 -0.0219459 0.0107761 0.00231239 -0.018434 0.00925566 
0.00223541 -0.0206159 0.00962965 0.00679742 -0.0195284 0.00934337 0.0080292 -0.0178372 0.00934704 
0.00820389 -0.0223365 0.00992449 0.000741728 -0.0173755 0.0105477 0.00432439 -0.0185936 0.0100493 
0.00515873 -0.0208033 0.00945196 0.00756556 -0.0203459 0.0110332 0.00551989 -0.0231956 0.0104847 
0.00779864 -0.0173919 0.0113201 0.00625354 -0.0186716 0.0111111 0.00311125 -0.0236983 0.0102516 
0.00269646 -0.0175769 0.0111904 0.00856633 -0.019433 0.00394289 0.00866556 -0.022329 0.00785184 
0.0157382 -0.0179932 0.00418254 0.0111929 -0.0186766 0.00480388 0.0109968 -0.0207349 0.00439054 
0.013652 -0.0194043 0.00457303 0.0130186 -0.0173349 0.00443387 0.00936618 -0.0195982 0.00585933 
0.00940221 -0.0219985 0.00536547 0.0149015 -0.0187083 0.006021 0.0101493 -0.0167034 0.00590442 
0.0109199 -0.0192097 0.00737503 0.0123202 -0.0204655 0.00632118 0.0128464 -0.0183947 0.00617569 
0.0140586 -0.0170237 0.00704298 0.016422 -0.0172271 0.00666903 0.0120441 -0.0165098 0.00693144 
0.0104734 -0.0213442 0.00728655 0.0100357 -0.0176568 0.00859014 0.0137807 -0.0196002 0.00752128 
0.012116 -0.0205485 0.00833001 0.0126451 -0.0180402 0.00852472 0.0152932 -0.0183663 0.00805737 
0.00870823 -0.0203344 0.00937595 0.00939562 -0.0187087 0.0107161 0.0104747 -0.0213238 0.0093045 
0.011196 -0.0189299 0.00976786 0.0164407 -0.017288 0.00946578 0.0136667 -0.0196839 0.00972161 
0.0143092 -0.0174255 0.00953423 0.0121085 -0.0204934 0.0106961 0.00988376 -0.0216436 0.0112449 
0.013291 -0.0182739 0.0112304 0.0155057 -0.0178699 0.0111698 -0.0214111 -0.0104321 0.00368171 
-0.020284 -0.00870458 0.00414305 -0.0200406 -0.0123421 0.00366777 -0.0190091 -0.0144838 0.00448169 
-0.0212087 -0.0109167 0.00582444 -0.0220837 -0.00920613 0.00522215 -0.01868 -0.00853167 0.00554683 
-0.0186407 -0.0110302 0.00529405 -0.0180173 -0.0146044 0.00667664 -0.0198692 -0.0130797 0.00571935 
-0.0218876 -0.00965757 0.00724733 -0.0196632 -0.00989821 0.00677696 -0.0174091 -0.0102545 0.0067238 
-0.0173593 -0.0126227 0.00645975 -0.0196388 -0.0135967 0.00775064 -0.0207456 -0.0116677 0.00764256 
-0.022092 -0.00915066 0.00924188 -0.0202903 -0.0085385 0.00842585 -0.01872 -0.0115858 0.00754518 
-0.0175562 -0.00950759 0.00862246 -0.0171745 -0.0157026 0.00812804 -0.0172035 -0.012148 0.00904511 
-0.0173069 -0.0157679 0.0103274 -0.0187365 -0.0143594 0.009432 -0.0211961 -0.0109232 0.00952682 
-0.0220737 -0.00924818 0.0112572 -0.0200438 -0.00937585 0.0113217 -0.0193513 -0.0100916 0.00942088 
-0.0192435 -0.0122264 0.00938937 -0.021137 -0.0110909 0.0115227 -0.020102 -0.0127798 0.0112501 
-0.0189741 -0.0144955 0.0114485 -0.017674 -0.0101702 0.010538 -0.0178828 -0.0127112 0.0109603 
-0.0149887 -0.0164804 0.00576157 -0.0110781 -0.0160979 0.00480325 -0.0147845 -0.0150584 0.00377856 
-0.0095314 -0.0142335 0.00372681 -0.0141861 -0.0107767 0.00422446 -0.016599 -0.0119105 0.00450597 
-0.0118078 -0.00931578 0.00431478 -0.0104356 -0.0110922 0.00411125 -0.0144639 -0.0130292 0.00432417 
-0.0161863 -0.0144644 0.0051385 -0.0104086 -0.0128827 0.00546737 -0.0165936 -0.00910442 0.00529494 
-0.00982721 -0.00885822 0.00555983 -0.0124184 -0.0121599 0.00559369 -0.0127021 -0.0144804 0.00558658 
-0.0149054 -0.0113851 0.00617205 -0.0145777 -0.0136912 0.00630493 -0.0103682 -0.0136546 0.00735189 
-0.0128479 -0.0091693 0.00606517 -0.00949892 -0.0113722 0.00641452 -0.015225 -0.0159344 0.00774826 
-0.0113448 -0.0157952 0.00676022 -0.0134586 -0.0150363 0.00889341 -0.0157738 -0.00900564 0.00765476 
-0.0103903 -0.00827258 0.0074842 -0.0157971 -0.0131215 0.00780807 -0.0125265 -0.0134718 0.00736701 
-0.0113123 -0.0112151 0.0073473 -0.0157916 -0.0111279 0.00798 -0.0137374 -0.0102019 0.00851969 
-0.0120095 -0.00907238 0.00867415 -0.0141664 -0.012189 0.00851192 -0.0122338 -0.0119167 0.00906124 
-0.00922603 -0.00983591 0.00801494 -0.00887286 -0.0127359 0.00833859 -0.0085299 -0.0157737 0.00510659 
-0.0084213 -0.015493 0.00718497 -0.00843398 -0.0133692 0.00629825 -0.00843625 -0.0146386 0.00923952 
-0.00916212 -0.0163995 0.0101673 -0.011722 -0.0162484 0.00923344 -0.0151033 -0.0160368 0.0104254 
-0.0159148 -0.0143441 0.00961915 -0.0108421 -0.0139295 0.00939854 -0.0156277 -0.00967591 0.00955445 
-0.016685 -0.00809105 0.0104414 -0.0134375 -0.0130414 0.0103542 -0.0102505 -0.00888703 0.00965727 
-0.0100503 -0.0112565 0.00926176 -0.0111788 -0.0123689 0.0107418 -0.0157179 -0.0118332 0.0103935 
-0.00981611 -0.0109087 0.0113217 -0.00902467 -0.00886027 0.011587 -0.0120373 -0.0151483 0.0109213 
-0.0101541 -0.0142897 0.0113671 -0.0089338 -0.0129803 0.0103973 -0.000744991 -0.0164449 0.00720297 
-0.000366652 -0.016233 0.00500211 -0.00173997 -0.0149804 0.00417082 -0.00732811 -0.0142795 0.00397538 
-0.00408541 -0.0109144 0.00472783 -0.00812615 -0.00942707 0.0045863 -0.00606985 -0.0099539 0.00529054 
-0.00231211 -0.00923251 0.00543267 -0.00742583 -0.0119358 0.00521563 -0.000377212 -0.00970003 0.00628448 
-0.00445239 -0.00996239 0.00648558 -0.00148837 -0.0116499 0.00624058 -4.23329e-05 -0.0140445 0.00640912 
-0.00775554 -0.0102169 0.00642452 -0.00238929 -0.0105253 0.00769616 -0.000243153 -0.0148758 0.0086503 
[...]
POINT_DATA 5997
FIELD FieldData 7
id 1 5997 int
210 332 86 366 1586 403 689 212 1217 
676 983 69 611 151 812 479 1320 246 
1163 2464 223 503 2226 98 83 624 1073 
637 1200 907 660 857 146 1264 1744 1501 
489 72 419 587 65 3217 3584 2025 1304 
2877 2038 1136 1045 2342 2652 4166 5224 4829 
3789 3274 4348 2048 1150 5135 4717 5447 4378 
5768 5857 626 756 649 31 2234 397 166 
1284 1649 1972 1810 671 1067 13 614 1968 
4968 1111 3166 1016 1008 3570 1449 1129 644 
4480 2458 2727 4868 2824 4112 2444 1670 4475 
2740 157 2981 3632 3770 3339 2997 2414 4905 
4237 20 580 1007 158 64 808 641 16 
23 1555 162 3022 176 37 1100 570 1221 
1738 302 1875 2593 764 729 618 2049 2398 
85 2482 409 2072 2836 1901 3637 2911 1840 
2669 1528 595 1631 1913 706 4306 2243 2275 
4549 2728 3476 3273 230 3371 493 597 388 
48 1241 920 2103 578 973 179 154 773 
1254 702 1722 46 1729 962 875 1051 215 
2845 1571 1513 2595 11 3188 1639 916 2741 
185 1346 791 963 1760 3032 2364 1307 3544 
2424 2074 2304 1983 1411 2376 1114 4446 3412 
1580 2230 2271 2190 5420 3725 4789 4389 1500 
2223 2131 3874 2466 3968 4981 5269 2510 5927 
1064 259 285 453 145 1856 769 1096 1474 
2296 884 1059 2408 917 447 2805 1866 1787 
2135 2453 4935 3381 4610 1711 3078 473 2417 
1215 3327 1383 163 3664 3221 2374 1404 518 
2423 463 5223 4631 5068 4127 5376 1502 3401 
2899 4025 1534 2717 5043 5235 2847 2708 5015 
4431 3708 1119 186 1400 687 718 226 369 
709 781 770 546 1838 218 2804 511 1337 
1262 237 1019 50 279 802 3400 5195 1694 
3930 1353 2558 1339 1681 2655 1021 2040 3200 
3937 3002 2193 2242 5074 849 1141 14 1692 
87 970 472 100 899 452 1305 107 102 
1375 2017 181 1921 640 949 704 1857 1473 
131 1176 1824 2091 2354 733 1747 621 3109 
2552 342 1930 274 625 1269 278 1906 1039 
2856 1110 1372 2339 1228 2388 2716 749 3397 
1880 252 1165 504 1648 2420 1001 3396 1526 
4129 1730 565 379 61 364 1499 160 213 
138 2298 1733 1399 480 1013 1811 475 1554 
425 631 1070 1509 1776 1543 155 1338 1302 
1347 439 122 848 443 224 2748 731 2626 
3331 208 437 1584 737 757 1506 957 296 
1521 2429 856 1406 105 261 286 550 1430 
1121 1614 68 378 633 657 732 484 854 
432 71 760 1226 172 1186 298 4 56 
627 62 496 1193 273 67 17 693 714 
193 609 77 782 647 70 232 908 720 
2576 433 2454 219 1402 295 1066 1390 1089 
1299 211 1389 606 1511 2409 2073 81 830 
2792 2067 1482 462 2507 560 2509 2290 562 
461 1718 2530 797 3486 2819 3535 3010 1461 
3085 4057 2843 2387 4101 982 1118 1779 600 
3813 2245 2944 1940 3225 2598 558 2070 761 
568 991 2868 719 581 1343 2372 708 1172 
805 15 599 1766 241 863 656 971 2331 
2085 1261 174 2513 860 3029 3945 2134 2560 
1532 2416 2893 3053 1457 3075 936 2761 1635 
1854 1745 3376 2876 2159 2480 1628 2126 1207 
3564 1354 2299 3366 1378 326 3 2833 34 
243 269 184 464 142 554 1369 1505 1493 
824 2127 592 1062 1768 759 456 58 1074 
2100 427 2039 2005 1425 2567 97 1637 553 
2115 1318 1655 363 2337 2264 564 1698 2629 
1703 1525 1308 1651 789 864 3553 478 3287 
1664 880 395 108 1772 913 543 1492 2 
445 1757 92 1900 124 1842 1546 648 1094 
2228 103 32 2724 902 1218 1695 1195 1084 
1294 344 1742 1783 2499 1068 1630 1535 752 
1189 1468 251 1594 1183 1777 2222 206 540 
1360 988 661 711 408 1540 1769 109 1755 
779 442 1126 870 1 491 712 1570 974 
905 91 1675 1815 943 228 1205 1248 2255 
598 573 1028 636 816 347 340 668 794 
455 1550 981 557 894 95 30 1146 1289 
1015 952 1770 1054 866 847 1071 115 728 
818 156 1002 799 110 751 577 754 488 
820 690 354 57 367 171 420 861 457 
995 1043 619 890 904 582 586 238 268 
748 214 383 362 1351 692 964 783 723 
1177 123 531 541 1429 1049 1223 235 935 
1572 1843 368 1202 404 148 1319 1486 953 
1169 881 851 1113 147 290 287 588 310 
240 2471 2212 1691 392 126 2338 1829 497 
3565 137 1267 414 2330 1010 878 2842 882 
1322 1421 889 183 2541 1379 352 1329 2240 
940 959 1538 1412 980 1199 2432 686 1885 
2028 3234 1250 1253 36 3001 3192 2906 2345 
2285 2151 2152 2383 449 3665 3378 2467 407 
2023 3033 2707 2450 3341 3034 4130 3556 2378 
3148 2351 804 2258 1237 1483 1627 684 966 
1801 643 318 1808 1124 1197 1058 200 3548 
1283 1672 1765 5 537 1441 2998 2697 1122 
2155 1786 2533 3391 3037 777 852 1969 375 
2778 2341 3100 2421 2916 955 2018 2744 1919 
2043 2389 3297 937 1220 1300 3151 2451 994 
1419 2016 2116 2187 1077 1398 234 1899 713 
2440 244 1103 2293 2762 1529 1668 825 1619 
833 1933 3569 1032 2592 3462 2287 1717 2613 
2846 2764 2687 2904 299 3159 4273 3518 2658 
1476 2696 2732 1604 316 817 348 1481 1589 
2401 1088 413 1624 390 2143 1629 1666 2313 
2474 1225 1042 2084 1331 1491 1152 2701 351 
1275 1332 1006 482 508 960 788 1325 313 
2158 1143 2986 2958 1678 2930 1936 2534 2129 
3348 513 3831 1792 3300 3521 1472 265 469 
63 1426 391 371 144 695 393 359 2133 
743 94 1652 38 771 73 169 396 1295 
1033 1662 1578 926 2890 1386 202 2288 740 
2273 2612 1047 593 18 8 1394 1667 2083 
111 1887 1752 909 1020 2317 2176 2693 1408 
52 255 701 1888 822 372 498 796 373 
343 950 798 361 1041 254 961 132 281 
1222 1132 35 1350 328 1523 325 1432 1367 
199 999 112 978 662 1065 2167 630 1587 
898 1579 249 549 998 679 1017 526 178 
525 846 945 93 1256 976 755 900 885 
257 1004 495 263 1359 262 127 101 984 
815 774 1724 297 242 1203 384 329 604 
139 744 1895 1159 1564 270 1190 505 2403 
271 544 1265 931 180 912 2470 879 330 
877 2320 2076 284 494 2446 2570 2706 2183 
1956 623 182 2098 1490 1440 1249 939 1276 
1230 173 844 1658 727 601 1314 677 887 
467 1636 1582 1263 651 2208 507 353 1268 
118 1376 2112 1106 334 189 22 426 1187 
450 21 1676 140 694 2677 921 424 2463 
2581 1424 1333 258 836 1646 1168 356 40 
253 1753 1101 552 819 672 566 2239 2007 
1679 1427 2583 2343 301 2720 2069 1104 2037 
517 2399 2263 2823 29 1227 1858 1415 944 
168 1527 841 801 2625 1746 2756 283 2648 
2327 778 1669 1545 763 2113 2503 823 1576 
3540 2794 2249 3266 2498 3394 699 2645 2274 
3193 2650 3444 128 2631 2681 2114 1607 444 
1365 1958 1035 355 1881 2780 1279 579 4521 
1229 2173 2162 1282 1979 1907 4084 972 1610 
2803 1079 1761 1928 2065 2171 1080 220 1932 
2537 4229 3958 2753 2869 2600 2539 3277 3960 
3478 1781 161 1990 1451 2830 2332 2736 4022 
2051 2550 2839 2594 2983 4068 5896 3239 3178 
2555 766 741 666 2169 2713 76 150 315 
745 734 399 2130 622 1642 2692 1278 1603 
1153 96 25 291 152 2659 1321 2031 1137 
1272 3358 3374 4336 2738 2348 1850 1813 1641 
810 1834 3527 1939 2207 1174 681 735 793 
277 113 309 227 205 377 1680 466 89 
620 539 2825 320 1198 276 239 843 987 
116 400 1845 1435 1204 874 608 868 1517 
1147 1029 726 951 506 784 1735 1848 79 
610 1213 1565 1288 292 3124 2244 1161 922 
669 2192 1544 1025 402 1410 4557 1026 845 
2508 1281 659 2452 813 1107 2776 800 55 
534 175 2422 275 730 481 2605 2229 47 
28 989 1108 1912 1173 3746 509 1592 1751 
1475 2224 3153 1105 2030 1330 333 4202 4141 
458 3184 979 3340 1991 4919 1368 3103 3762 
3367 1595 4234 4062 2350 2811 4406 5573 4495 
4478 3253 2912 1944 536 1559 7 2036 1562 
428 832 985 74 471 2757 1443 969 1182 
787 502 33 3748 2735 1812 4762 2198 1072 
2646 4015 2777 3776 483 5202 1098 2597 3610 
2390 1167 2154 423 2221 747 3989 1444 683 
2950 1640 382 1820 3590 4119 634 1946 159 
256 2838 4451 5386 1904 946 3355 2071 3068 
4985 5146 4745 5632 2109 4393 6053 4907 4526 
5755 5818 4403 5419 5627 5099 5283 5122 5333 
5824 5277 4602 5156 5608 5301 5485 5262 3324 
3758 2854 4351 4724 4944 4320 5370 4286 5189 
4825 5571 4793 5960 4809 4621 5120 5959 5540 
5211 3621 6027 5697 6041 4424 5799 4187 3596 
5609 5986 4760 6036 5310 5630 5157 5841 6046 
4980 4199 5444 5451 5520 6009 4241 3999 2520 
3668 3390 3495 4596 2633 3697 5536 4934 4200 
5201 5705 2703 4387 4409 5427 5561 5143 5180 
4683 3472 4346 5790 5255 3593 2529 6023 5879 
4888 4916 5957 3292 5706 4321 4496 2673 5326 
3207 2301 2384 1690 975 59 1552 3821 3807 
1995 2799 1599 1699 3272 2772 5509 2770 3498 
4094 3977 4305 4840 3659 5476 2160 4705 5618 
5155 3652 5809 5006 5125 3779 3227 5383 129 
4652 2515 2124 5704 2181 3736 4618 1937 5241 
4765 1980 2714 4892 5105 3475 4712 5434 5488 
4634 4287 2406 5034 5032 4784 5496 4823 4722 
1455 3829 4499 5558 4983 4135 3915 5138 4114 
4463 5628 5094 5848 3625 5279 4650 5228 4457 
5714 5113 1401 5106 4984 4875 3852 3780 4510 
4788 3591 3368 5749 5340 4506 3885 4982 6070 
3756 5582 3843 3031 4071 4906 5459 5533 4711 
5374 5694 5781 5348 5075 4824 4076 5774 5641 
5253 5347 4799 5926 3214 5238 4235 4956 5182 
3777 2946 3790 519 2203 2366 3712 3073 3202 
3851 1714 2058 3732 2572 3683 4527 4660 4598 
2410 5023 4738 5789 4017 3505 3317 5965 4161 
3019 4999 5605 4952 5002 4283 5914 4772 5701 
5100 5097 5989 5629 5860 2952 5874 5475 2442 
1891 675 2062 2138 3164 3012 2684 3970 3623 
1191 3794 2609 1893 3513 3158 1775 2637 3308 
3275 2297 4211 4136 3162 2664 3160 5065 4466 
3603 3606 5915 4456 3074 5086 5490 3402 5806 
4215 3546 5539 5454 3817 4450 5734 4744 4168 
4647 4655 1767 2456 338 2096 1723 1037 528 
3183 1754 416 1504 3862 1720 2001 628 3822 
2278 2657 2121 3038 5215 3436 1232 2739 837 
1902 1391 2006 1465 3690 2412 1046 2797 2371 
2281 2817 3491 5551 2008 12 4042 2078 4798 
3925 1945 3811 4636 5947 2057 2662 545 602 
1048 1151 1297 1728 703 1285 680 2289 346 
930 3418 1484 1865 1138 1290 1233 2108 1257 
1464 229 293 1438 918 294 556 1987 925 
1593 2641 3700 3211 3524 2788 336 1507 1924 
3093 3678 1638 3025 3445 2603 3146 3519 4961 
3702 1671 4019 4216 4186 2455 3422 2186 3733 
1773 3080 1950 2026 3096 1247 2231 2910 3888 
2082 2700 3751 2519 2996 4483 3392 3453 2949 
4087 5625 2638 3671 4056 2610 3137 2991 4962 
3612 4045 3182 4152 3457 2975 1301 1326 2312 
3802 2493 3614 2579 3455 1363 2790 2734 2999 
3641 3698 3972 3256 2816 2496 3090 3059 3426 
4254 1790 2966 2394 4165 3760 3431 2426 1454 
3041 5492 4947 5372 3395 2358 4678 2477 4465 
4779 4046 3961 4448 4640 4414 5682 4218 3115 
4504 3812 5688 5004 4156 3507 1984 5305 2953 
3571 3899 5699 5073 4179 2954 2566 1784 3052 
2253 1633 2014 530 1797 3873 3232 2495 2832 
1748 2385 3077 3466 3189 1158 3279 2303 2095 
4292 2976 2300 3133 2853 4691 4578 5221 2925 
790 3750 5057 3013 4886 6030 5751 3599 5516 
4843 5306 4325 3212 5613 3050 4822 4227 335 
4702 2457 3352 2254 1581 2149 2915 247 650 
1520 2369 195 3229 1567 529 2532 1938 2670 
3079 3372 1315 380 910 2521 1942 2892 4258 
2191 9 1309 2344 3545 3577 2971 312 2439 
3467 3749 1090 2145 3912 2815 4969 2545 5117 
4836 3918 3828 3065 3481 1086 4801 2861 4720 
2667 3950 2807 305 3127 1605 1078 1364 104 
207 1131 1053 862 785 705 440 2200 45 
1209 1235 99 2318 585 2855 1598 1661 130 
492 583 133 260 1352 2077 1955 4064 2745 
1334 2980 1903 1846 2413 233 548 2589 2682 
2443 1557 1005 2710 1252 1463 3023 2651 967 
663 454 584 527 446 1178 1539 436 1286 
470 673 136 750 1244 691 1095 1563 10 
1115 314 867 201 1489 1602 639 765 567 
435 1771 307 1112 717 222 776 896 667 
1758 1644 1460 612 792 576 1805 1327 339 
1659 1236 853 1643 2492 1292 615 1466 167 
1479 2111 1344 1091 2233 1469 3429 4440 4637 
5467 3796 3966 1518 3488 4493 2959 3199 2730 
3799 3855 1970 2270 3030 2644 3154 4418 3689 
3893 4316 2618 4077 3998 2988 2588 3437 3263 
4419 3529 3949 3399 3710 2148 4134 3393 3064 
1873 3259 3951 4502 3257 5741 2867 3920 3982 
2721 3242 4160 4043 5171 3375 3003 5792 4082 
3979 4301 3685 3833 3106 3092 3974 5650 4794 
2620 4405 3456 2850 2336 3410 2512 1954 3067 
1609 2215 3007 2771 2483 2346 1653 742 3027 
1384 3451 2294 2786 3286 191 3383 2064 3523 
2615 3745 3459 3942 3006 1894 2575 3060 2702 
2678 2569 2793 3072 3615 4689 3602 143 2972 
4337 4963 2947 5284 3773 3707 4625 3364 3265 
2837 4252 3138 2053 716 2088 1998 117 1920 
2902 1817 2602 1036 1807 1370 1510 3118 3049 
3284 2433 66 2465 3389 1145 2000 2261 1130 
2923 2617 3514 3427 2666 3415 1702 1965 3403 
1819 2478 3338 941 1092 3048 3337 3423 3740 
2712 3449 2829 4089 3808 3008 3581 2196 1802 
4561 3872 3763 2527 1453 2535 2660 3329 1849 
2206 501 3734 3501 2661 248 2808 1127 3398 
2942 1663 2865 3315 617 2329 2544 2434 2628 
2136 2256 1994 1763 2937 3679 2511 3136 3332 
1340 2292 3573 4270 2963 2165 4151 2164 3955 
1418 2251 2759 3209 3149 2046 4459 2931 2340 
4391 3916 2021 1830 370 300 1978 2080 2485 
1185 753 1093 474 658 1825 2543 758 1310 
1585 616 965 2306 3343 1133 1910 1612 1405 
1976 2586 1433 2411 992 1883 1170 697 3114 
2473 865 1601 1478 1844 2219 1927 1496 2559 
559 121 1898 831 522 1075 738 685 1149 
1056 1673 1382 655 357 75 1120 1140 707 
231 88 51 827 821 1116 337 321 317 
412 289 1632 710 591 1715 1821 551 1548 
1739 997 2367 1044 923 1164 1731 1494 512 
638 190 177 225 358 1031 1536 1780 198 
1556 2368 2033 221 410 1806 345 809 1660 
1097 153 1445 188 490 1413 1588 2992 3155 
1953 1063 1428 516 2591 2252 3303 2719 3547 
2858 27 2459 2619 2359 3469 2961 3091 1929 
2851 1208 2900 1280 1686 3458 3039 2395 1868 
1362 2461 3089 2577 547 327 1952 1157 2079 
635 365 1030 1316 670 2353 938 2400 807 
3728 2102 2695 2427 1243 3000 2178 2333 2763 
49 2213 2060 2903 1701 3298 3480 2436 1155 
924 401 1922 381 2841 934 3752 2554 1366 
2766 1439 3040 1721 2587 2859 4524 2125 1162 
2087 4726 3555 4103 1836 2360 1986 2630 2957 
2501 947 2319 2907 3494 3238 1973 3014 3082 
2924 2711 3572 4090 3932 2201 5735 4519 3004 
2968 4313 4396 3624 3512 2081 3322 350 3554 
1214 4817 3903 3294 3629 5005 2979 3741 3633 
3071 3360 2490 698 3823 4896 4411 4097 3739 
3380 3724 2965 2926 3502 4805 4026 3416 4104 
3194 1876 4310 3058 2806 3694 4065 3883 2774 
4623 5260 4553 2795 3268 4172 3224 2875 2139 
2665 4785 1488 1336 2828 4955 3672 5168 3594 
4454 613 3520 2691 4792 3595 4468 2107 2775 
2733 2718 3771 4703 3086 2962 5409 4070 3897 
2967 4715 3586 3986 2978 5868 2880 4023 2179 
532 2781 4512 3471 3900 3244 3226 4063 2608 
5746 3152 3104 1273 422 141 2818 1700 1569 
2019 4753 3081 3316 3510 1219 1992 448 603 
1139 3661 3607 3561 892 1925 1423 3386 2404 
2448 2075 2989 3731 3677 2238 4839 2370 4937 
4592 594 3482 1872 1577 859 2397 2199 3319 
4871 5187 4768 5077 2779 2522 1277 829 2840 
3251 4251 1827 2553 2580 1948 2237 460 968 
389 1024 1611 135 2210 893 306 3054 319 
78 1687 2479 4344 1839 2948 2536 1960 1156 
1403 1022 2315 3919 1456 2932 2844 2622 535 
2236 1726 1835 376 4920 645 2563 4371 1240 
1175 476 3119 646 2561 2059 1626 4225 1947 
3531 1566 3558 3289 197 2050 4433 883 2905 
928 2425 2012 4230 3213 891 4024 4308 3283 
4581 2698 2063 3636 2929 3489 4958 3670 3693 
4231 4970 3559 3219 3452 3906 4369 3215 5042 
1645 3313 4679 4582 3648 5174 4816 3837 5082 
5357 3984 3909 4671 4473 4860 5278 3963 4381 
4272 5393 4731 4307 2879 5642 3985 5810 4883 
5481 4223 4190 5390 4490 4361 5550 3781 3539 
4053 4835 5282 5589 4909 4559 4315 5288 3311 
3306 2849 3901 1889 3009 4646 4700 4124 3163 
4191 4551 3784 2883 1027 1549 3069 2280 3585 
4086 2689 5176 4248 3795 1081 2269 4011 3479 
4537 4971 4819 4565 5711 4795 4437 4580 3913 
2812 4372 2584 3347 4737 5772 4458 5876 6007 
3940 4858 5098 5739 5930 1794 2430 4300 3413 
4664 2870 1459 2437 2725 2157 3276 1961 4449 
4746 5919 2373 4033 4938 5019 1234 5892 5616 
5969 4965 4312 5506 4995 5183 5013 5054 5887 
4729 4923 5935 4460 5507 5654 4666 4673 5603 
4266 4987 5592 5263 5893 4855 5331 5514 5316 
5133 5956 5844 5391 5955 5743 5687 4487 5497 
4913 5486 6057 5950 5933 5683 3566 5677 5268 
5808 5770 4748 4410 5297 5727 6031 5446 2325 
5166 4570 5107 4201 5595 5036 5953 5304 5796 
5392 5038 4864 5029 5615 4326 5131 4445 5788 
4350 4721 4522 3017 4333 5836 6022 4706 5621 
5759 3783 4402 2987 5470 4365 6055 2956 1934 
4657 2259 6008 3353 3682 5519 4259 5450 4530 
3084 5882 3454 2518 5300 5998 4733 4514 5423 
2765 2250 2528 2928 4137 5111 1069 6006 3655 
4197 3987 4140 3856 4873 4004 4628 5153 2056 
542 5256 5670 5932 5889 1916 3772 5375 3715 
5877 6066 2758 2636 5076 5762 3191 5108 4438 
4940 4498 5991 5132 5258 5521 5382 4491 5365 
4545 3630 5619 5778 5725 4693 5505 4830 3825 
4649 5563 4688 5524 5239 5777 4996 5981 6032 
5178 4876 4558 5843 5218 5726 4319 5198 4699 
4541 5181 5647 5784 5377 4846 3240 4967 4853 
5474 5643 5261 5512 5680 5698 4398 3969 4701 
5863 5206 5114 4600 4513 5996 3465 3285 5997 
5899 5541 3299 4692 4661 4770 4730 5569 5530 
4786 5607 3743 5373 4687 4075 3525 4563 4665 
5045 4543 4285 2568 4542 3293 4859 4150 4750 
3995 5299 4976 4861 4638 2922 2723 5440 1879 
3549 3992 1951 4885 5597 5964 5542 3827 6016 
3122 4813 3515 5611 5795 5585 5041 5837 1732 
5248 3587 4754 4806 3988 3246 2118 3699 3774 
4461 4939 2601 4917 3120 2917 5184 5379 3723 
2386 2194 3171 3201 3028 4106 2276 4074 3460 
1818 3859 5897 5842 5820 5500 5339 3650 3983 
3800 4118 2878 1634 4790 1003 674 267 2531 
3729 304 1470 2502 1977 1716 134 2874 3735 
1148 4452 1239 1816 5645 5017 4915 4208 4926 
1274 5172 4709 4214 5247 3861 3957 2898 2751 
3099 3468 2393 3045 5394 4627 5966 4061 4128 
4275 3948 5851 4941 4185 5567 3105 4290 2090 
4417 5271 5767 3667 4865 5058 4455 4239 5169 
5878 4282 4863 5001 4485 5995 5776 4626 4243 
6010 4949 5407 5721 5232 3356 5907 3922 4175 
4238 5079 5437 4400 5939 5639 3562 4780 1853 
5916 5888 4550 5453 5027 4951 1224 5327 6024 
4595 3608 5535 5287 5405 5384 3978 5528 4481 
3917 4375 5881 5329 3442 5116 5442 5294 5859 
3911 5273 4054 5839 3663 6012 5814 5354 3848 
3330 3176 3647 1996 4443 5167 5229 5766 5733 
4139 5909 5322 5020 5225 5689 5963 4111 5906 
4684 5504 4695 5308 5738 4012 3927 5149 4973 
5061 5511 5805 4758 5760 5898 5756 5044 5398 
4008 5954 4698 6020 5431 3921 2407 3744 5251 
4767 5780 2927 3853 4425 3432 4267 5069 3720 
1514 4265 4003 4777 5811 4586 4435 4911 4342 
4500 4143 3247 4922 3473 3492 4986 4928 4184 
5903 4719 5631 5710 5186 4157 4838 5028 4989 
3926 2908 2857 5397 3304 3719 3143 2003 806 
3203 3902 3786 1982 4672 3439 3417 4293 2022 
4686 1884 3291 2814 4568 3542 5674 3579 642 
4380 4743 3818 3944 4271 3646 2672 2032 1688 
2099 2283 1897 1179 575 1381 2089 786 2195 
1962 1782 1560 1861 3580 80 2783 2920 1708 
2688 1981 858 1859 1551 2663 2225 1291 3036 
654 3528 2820 288 2653 1055 1395 533 2787 
2674 2449 977 2011 3530 1710 1788 4138 5081 
2887 4998 5259 4122 5918 3135 3965 4615 3379 
3834 4379 5047 3631 1803 5216 3782 3342 4224 
4366 2362 4611 5988 5250 3798 5578 4385 5336 
5712 3097 3869 4651 3904 2156 4757 5389 5723 
4059 3534 5213 5636 3656 4874 2514 3087 5452 
4439 5821 4142 5976 4117 3676 4050 2489 3385 
5040 4677 3305 2445 4345 2784 4469 3409 2835 
3846 4696 2885 2184 2002 3803 2168 2328 5009 
5194 3675 3541 1487 2679 4434 3296 3361 5640 
4554 4257 3044 4421 5572 3424 3787 3508 2547 
3404 5493 5430 4000 3849 4303 3775 2918 3430 
3198 5349 3174 2802 5026 3933 5234 5656 4538 
2848 3210 4902 4467 4360 3474 3536 2722 4240 
4991 4783 3810 3658 5830 3180 5033 3414 5246 
4154 3839 3270 3047 1450 2506 3727 3262 3464 
4680 4013 4250 4356 2635 2491 5344 3654 3997 
3830 4841 3108 3057 3604 1057 5473 4196 5826 
4914 4302 2871 5479 3582 1706 4364 3622 3806 
4708 4587 5231 5598 5011 4997 5051 4778 5513 
3905 4503 4358 4194 3726 3377 1393 5302 3450 
3578 5404 3611 1583 2767 4436 4820 2791 4399 
2686 4787 2755 3847 3051 5552 3005 2798 4245 
828 4080 3890 4539 4662 2185 3504 2935 1685 
3258 3335 5890 3141 5457 4314 2418 4029 2153 
2523 1870 1967 4126 3055 2211 1689 3206 3973 
1246 721 1317 1324 1795 986 1674 1480 323 
1684 2614 3035 1874 1625 2675 82 1926 3769 
308 1941 2933 3709 2010 1212 2896 2197 1038 
3434 1553 3157 2428 1508 2042 1828 3717 5548 
2831 1409 2475 3487 1447 3354 555 1725 1061 
1303 911 2161 678 26 2106 1260 1416 2128 
204 216 1142 1437 434 1621 1914 1323 1683 
767 1180 1727 417 1356 264 876 387 2013 
3336 1778 574 411 1542 1387 1373 2034 664 
2146 563 2248 2729 1911 303 430 780 1083 
1082 1358 993 2352 2092 895 192 1516 1989 
1196 406 515 1867 2606 3931 3947 3871 3255 
3062 1618 3147 3956 2277 2310 2170 1741 3110 
990 438 2027 2872 2024 3204 652 2094 607 
1242 3321 2488 2041 2402 2769 873 165 3126 
4279 4060 4645 3605 3144 2175 2335 1512 1206 
282 2286 1361 2785 2214 2246 3592 3261 1194 
2884 3446 2204 4044 2141 2524 4363 3842 2468 
3252 3145 2309 2382 2604 3627 2447 3101 1608 
3669 2607 4048 3131 2504 3463 3761 1452 3190 
4031 2052 3325 1371 4180 2305 3021 3280 1909 
3801 1737 3503 715 4204 3196 3928 3643 3908 