# vtk DataFile Version 4.2
Generated by LIGGGHTS
ASCII
DATASET POLYDATA
POINTS 5997 float
-0.0166858 -0.0170574 0.012265 -0.0108103 -0.0213297 0.0104977 -0.0123278 -0.0182587 0.0108665 
-0.0105241 -0.0170445 0.0108104 -0.0157128 -0.0172654 0.0104728 -0.0137818 -0.016851 0.0108046 
-0.0146734 -0.0188712 0.0111486 -0.00883636 -0.0201032 0.0111467 -0.00883187 -0.0181029 0.0114273 
-0.0107245 -0.0194144 0.0112763 -0.0128681 -0.0200822 0.0115408 -0.00894179 -0.0221002 0.0114011 
-0.0134558 -0.0180952 0.0125437 -0.00719481 -0.0227463 0.0106677 -0.00526547 -0.0232933 0.0106158 
-0.00131578 -0.0216592 0.0109723 -0.0034279 -0.0216037 0.0113275 -0.00685481 -0.0206399 0.0111632 
-0.00695593 -0.0186975 0.0118637 -0.00494272 -0.0201442 0.0117226 -0.00186125 -0.0238592 0.0110713 
-0.00245776 -0.0197787 0.0117119 -0.000487806 -0.0194214 0.0112217 -0.00374463 -0.0235393 0.0119005 
-0.00567092 -0.0219562 0.0121571 -0.000493292 -0.017476 0.0125877 0.000114334 -0.0231094 0.0109713 
0.00192707 -0.0237719 0.0104032 0.000599227 -0.0174859 0.0108312 0.000608077 -0.0210552 0.0103699 
0.00164334 -0.0192435 0.0102792 0.00484855 -0.0217991 0.0106659 0.00664848 -0.0183663 0.0106487 
0.00262435 -0.0217789 0.0105668 0.00306286 -0.0178387 0.011037 0.00393767 -0.0236002 0.0108536 
0.00541492 -0.0199038 0.0110743 0.00707565 -0.0210099 0.0108774 0.00650052 -0.0229156 0.0112773 
0.00340887 -0.0199291 0.0110593 0.00488031 -0.0180977 0.0120079 0.00162555 -0.0206074 0.012054 
0.00363506 -0.0220176 0.01243 0.00257435 -0.0237305 0.0123538 0.0103368 -0.0214919 0.0108252 
0.00852409 -0.0223851 0.0107714 0.0157577 -0.0180467 0.0110657 0.0139039 -0.0171965 0.0111478 
0.0107906 -0.0196171 0.0117475 0.0102817 -0.0176948 0.0114527 0.0122698 -0.0182565 0.0116244 
0.0088839 -0.0199814 0.0110937 0.0141658 -0.0193222 0.0112565 0.00828512 -0.0181382 0.0118057 
-0.0174042 -0.0161011 0.0105686 -0.0174596 -0.0120802 0.0109053 -0.0205498 -0.0118178 0.011353 
-0.0195582 -0.0136485 0.0114644 -0.0176356 -0.0142584 0.0113558 -0.0216502 -0.0101647 0.0117485 
-0.0203146 -0.008663 0.0116779 -0.0187149 -0.0116139 0.0124999 -0.0184637 -0.00965818 0.0119229 
-0.0139417 -0.0128148 0.0108232 -0.0149808 -0.0152306 0.0110227 -0.011947 -0.0155015 0.0105533 
-0.015816 -0.0134196 0.0112012 -0.0120673 -0.0137174 0.0117009 -0.0122665 -0.01152 0.0116411 
-0.00849213 -0.016104 0.0114477 -0.0101326 -0.014874 0.0115459 -0.0102411 -0.0129354 0.0120463 
-0.00840308 -0.0138419 0.0117968 -0.00857788 -0.0118337 0.0118802 -0.0103531 -0.0108989 0.0119472 
-0.0118386 -0.00954631 0.0121785 -0.0144293 -0.0140306 0.0125275 -0.0131019 -0.015523 0.0121991 
-0.009018 -0.00880753 0.0124074 -0.00502934 -0.0138568 0.0114057 -0.00664774 -0.0125739 0.0115236 
-0.00292051 -0.0144789 0.0116924 -0.00213249 -0.0125896 0.0115578 -0.00162896 -0.0161843 0.0113244 
-0.00563141 -0.0105599 0.0117358 -0.000215772 -0.0134989 0.0117238 -0.00660825 -0.0150589 0.0116788 
-0.00376941 -0.00980182 0.0120292 -0.00754224 -0.010139 0.0121614 -0.001868 -0.0105216 0.0120867 
-0.000388883 -0.0089259 0.0126085 -0.00427216 -0.0119746 0.0121676 -0.00523568 -0.0084648 0.01229 
-0.00226463 -0.0084641 0.0118613 0.00566167 -0.0133576 0.0108613 0.00833954 -0.0106833 0.011386 
0.00739855 -0.0126154 0.0115697 0.00322362 -0.0124018 0.0112105 0.0050157 -0.0116285 0.0116901 
0.000335629 -0.0154237 0.011439 0.00236872 -0.0159826 0.0113877 0.00121228 -0.012144 0.0113538 
0.00438474 -0.016284 0.011293 0.00396244 -0.0143252 0.0113439 0.00240018 -0.0105382 0.0111801 
0.00631154 -0.010028 0.0116663 0.00188716 -0.0140237 0.0114378 0.00237595 -0.0084975 0.0111971 
0.000117915 -0.0108541 0.0124236 0.00629792 -0.0165444 0.011909 0.00709053 -0.0147058 0.0119244 
0.00427667 -0.00971485 0.0117874 0.011953 -0.0164293 0.010709 0.0122248 -0.0130378 0.0110873 
0.0155007 -0.0143112 0.0106732 0.0101748 -0.0156322 0.0115028 0.0148106 -0.010714 0.0114861 
0.0142121 -0.0126844 0.011608 0.0136655 -0.0146158 0.0116533 0.012689 -0.010982 0.0112582 
0.0161942 -0.0122034 0.0117996 0.014161 -0.0088128 0.0113285 0.00834943 -0.0162122 0.0124204 
0.0118996 -0.0148736 0.0125972 0.00907666 -0.0141559 0.0124348 0.0109044 -0.0111809 0.0121488 
0.0152245 -0.0159915 0.0122206 0.0118792 -0.00924439 0.0121707 0.0195237 -0.012268 0.00926593 
0.0173388 -0.0134395 0.0104913 0.0183488 -0.0153789 0.0104698 0.0194022 -0.0136293 0.0107506 
0.0167374 -0.0101226 0.0108591 0.0195084 -0.0106007 0.0110036 0.0214986 -0.0105959 0.0107096 
0.0171111 -0.0166107 0.0117039 0.0182519 -0.0119251 0.0118477 0.0183319 -0.00902554 0.011371 
0.0202984 -0.00874389 0.0111188 0.0206137 -0.0121945 0.0117998 0.0220983 -0.00910764 0.0119113 
-0.0185228 -0.00338483 0.0111059 -0.0238421 -0.00124963 0.011109 -0.0188247 -0.000949139 0.011009 
-0.0214601 -0.000917959 0.0110175 -0.0175834 -0.00583253 0.011613 -0.0211443 -0.00647688 0.0113548 
-0.0196078 -0.00508116 0.0115163 -0.0169394 -0.00192447 0.0113185 -0.0231069 -0.00591436 0.0117782 
-0.0174077 -0.00784733 0.0118034 -0.0223599 -0.00269851 0.0114692 -0.0203339 -0.00266052 0.0116776 
-0.0224455 -0.00826539 0.0118111 -0.01941 -0.00692713 0.0122655 -0.0215842 -0.00458872 0.011877 
-0.0235371 -0.00400339 0.0124354 -0.0172621 -0.000328589 0.0125836 -0.016325 -0.00414074 0.0112982 
-0.0119101 -0.00635919 0.0113523 -0.0121238 -0.00436235 0.0113732 -0.0110402 -0.00237646 0.0114973 
-0.0107398 -0.00790353 0.0118545 -0.0144561 -0.00540392 0.0116956 -0.00991741 -0.00412888 0.0114504 
-0.00903839 -0.00232606 0.0115389 -0.0136155 -0.00746696 0.0116499 -0.0100691 -0.00603542 0.0121038 
-0.0156214 -0.00698662 0.0121172 -0.00964055 -0.000458626 0.0119202 -0.00387475 -0.00757547 0.0110657 
-0.0026918 -0.000775659 0.0111529 -0.00438554 -0.00283121 0.0114558 -0.00649618 -0.00235178 0.0113745 
-0.00511739 -0.000816444 0.0113069 -0.0056356 -0.00662695 0.0115952 -0.00652146 -0.00433321 0.0117061 
-0.00461298 -0.00483436 0.0112782 -0.00072528 -0.00144929 0.0117208 -0.00712885 -0.000348862 0.011675 
-0.00817833 -0.00534721 0.0122169 -0.0071614 -0.00792931 0.0121431 -0.00217578 -0.00567887 0.0119305 
-0.0022456 -0.00290325 0.0120828 -0.00069006 -0.00705635 0.0119458 0.00427578 -0.000791976 0.0112303 
0.00781975 -0.0044964 0.0116348 0.00128009 -0.00679585 0.011383 0.00782704 -0.00653729 0.0117704 
0.0031693 -0.00596114 0.0118564 0.00644367 -0.00802078 0.0118272 0.00538965 -0.00273339 0.0116918 
0.00166395 -0.00127561 0.0116946 0.00660901 -0.000977782 0.0114213 0.00414238 -0.00424335 0.0121902 
0.00456361 -0.00738172 0.0121567 0.00328408 -0.00242624 0.0119327 0.006014 -0.00539029 0.0124609 
0.00844361 -0.00258717 0.0118905 0.0154271 -0.00237441 0.0110386 0.0145221 -0.000572852 0.0111436 
0.0161554 -0.00434946 0.0112206 0.0141713 -0.00389931 0.0113552 0.014546 -0.00657874 0.0113393 
0.0159981 -0.00798007 0.0116428 0.0085765 -0.000575618 0.0117708 0.0126433 -0.000509145 0.0118412 
0.0105892 -0.000446438 0.0116414 0.00938084 -0.00550947 0.0125557 0.0129229 -0.00543051 0.0119148 
0.0129594 -0.00751906 0.0122717 0.0110739 -0.00442737 0.012498 0.0124995 -0.00306832 0.0120806 
0.0105901 -0.00246988 0.0121469 0.0162172 -0.00603769 0.0123377 0.0219193 -0.00721585 0.0110263 
0.0203553 -0.00504799 0.0111032 0.0237478 -0.00296796 0.0111259 0.0223175 -0.000784309 0.0107312 
0.0188865 -0.002786 0.0111871 0.0177462 -0.00703582 0.01138 0.019722 -0.00686963 0.0116458 
0.0183371 -0.00513335 0.0111889 0.0221597 -0.00417605 0.0114084 0.0172785 -0.00155453 0.0110299 
0.020631 -0.00177174 0.0112351 0.0231748 -0.00597122 0.0120171 0.0176086 -0.00371607 0.0124412 
0.0204065 -0.00344945 0.0123074 0.0222447 -0.00238108 0.0123791 0.0238137 -0.00117373 0.0120968 
-0.0237215 0.000824072 0.0107717 -0.0186717 0.00208434 0.0111638 -0.0203173 0.00353204 0.0107944 
-0.0185704 0.00476879 0.0110006 -0.0170284 0.00334516 0.0108775 -0.0218912 0.00157852 0.0110941 
-0.0208712 0.00733747 0.0108562 -0.016858 0.00636906 0.0111315 -0.020129 0.000635123 0.0112224 
-0.0235712 0.0027745 0.0113092 -0.0214764 0.00545778 0.0111979 -0.0228471 0.00693199 0.0111014 
-0.0187179 0.00813719 0.0108596 -0.0232965 0.0051082 0.0119672 -0.020291 0.00221199 0.0125293 
-0.0219062 0.00365892 0.0120136 -0.0170126 0.00165139 0.0123006 -0.0153825 0.00220783 0.010961 
-0.01116 0.00365333 0.0111982 -0.0135264 0.00322257 0.0109973 -0.0152552 0.00428487 0.0110599 
-0.0144994 0.00616062 0.0112131 -0.0157525 0.000250923 0.0113135 -0.0116965 -0.000105282 0.011644 
-0.0121014 0.00184737 0.0113542 -0.0091882 0.00303484 0.0115144 -0.0126983 0.0050483 0.01136 
-0.0111786 0.00640547 0.0115874 -0.0096306 0.00510843 0.0111489 -0.0123241 0.00812569 0.0112261 
-0.0101595 0.00820293 0.0113827 -0.0102868 0.00144534 0.012103 -0.0139832 0.00134103 0.0121375 
-0.0166311 0.00483815 0.0124548 -0.0130763 0.00679829 0.0125955 -0.00870197 0.00655761 0.0124589 
-0.00299251 0.00498622 0.0105437 -0.000855986 0.00645057 0.0108595 -0.00385632 0.00681286 0.011048 
-0.000539073 0.000735976 0.0117847 -0.00503506 0.00512997 0.0112415 -0.00722363 0.00513515 0.0111708 
-0.00716532 0.00316808 0.0117102 -0.00635943 0.00698364 0.0116278 -0.00816492 0.00811634 0.0111906 
-0.00806736 0.00139506 0.0119995 -0.000946909 0.00467399 0.0122955 -0.00232388 0.00615839 0.01221 
0.00758888 0.0062222 0.0106867 0.00599271 0.00766202 0.0104168 0.00676167 0.00410695 0.0112574 
0.00369343 0.00381088 0.0117923 0.00137146 0.00428162 0.0112725 0.00626393 0.00108184 0.0112503 
0.001435 0.000702108 0.0112904 0.0029163 0.00561457 0.0111295 0.00543934 0.00577696 0.0110815 
0.000244832 0.00263936 0.0109939 0.00824787 0.00140909 0.0113237 0.00406173 0.00117069 0.0117359 
0.00212295 0.00743406 0.010849 0.00535935 0.0026939 0.0121093 0.00246124 0.00227526 0.0124114 
0.00103014 0.00600006 0.0123237 0.00418167 0.0070472 0.0119826 0.000311033 0.00817821 0.0118843 
0.00865941 0.00336422 0.01097 0.0134766 0.0032574 0.0118269 0.0162998 0.000345818 0.0113582 
0.0124413 0.00153567 0.0118236 0.0143785 0.00148903 0.0113054 0.0164272 0.00234565 0.0114291 
[...]
POINT_DATA 5997
FIELD FieldData 7
id 1 5997 int
2364 210 285 223 1760 1163 1320 86 453 
489 72 332 2296 676 1217 20 403 689 
687 649 756 186 626 31 212 218 611 
158 970 69 16 479 379 1007 1141 812 
230 388 154 580 83 151 983 1555 493 
48 550 637 61 160 364 1241 286 1499 
791 219 1402 246 963 295 1390 2409 1066 
558 2464 503 433 145 2070 1096 769 761 
226 34 568 1343 1059 1856 2868 546 369 
718 709 1400 456 452 2226 184 464 243 
913 269 142 1369 108 1675 661 87 543 
98 899 107 472 1692 1772 1540 1375 1757 
1664 14 100 1094 1013 711 732 1073 988 
480 105 408 728 1126 565 138 213 1360 
1614 1815 1121 68 261 854 1430 818 799 
378 71 110 754 627 156 1829 2330 1010 
497 211 606 2471 1237 392 1089 2338 889 
1389 1299 126 1538 183 2212 581 15 2258 
991 719 1172 804 708 599 1511 1627 759 
2016 1505 1493 3151 592 824 2127 1604 2116 
805 554 1062 1768 1492 1042 712 2 228 
445 905 1900 1088 413 1842 92 124 347 
870 1248 779 1769 109 491 442 1426 469 
396 340 1 1205 598 1755 1570 1043 488 
420 861 577 354 820 619 690 751 974 
171 457 238 383 586 362 1379 878 137 
414 882 2842 2403 352 1329 3565 1322 1159 
912 1267 1253 2240 1122 643 1124 1483 1058 
939 684 966 318 2451 200 5 1808 1230 
1490 1197 1801 1283 1276 1440 234 2440 1077 
994 1899 244 713 1619 2343 2187 833 1668 
743 1225 1666 1332 817 390 2143 2401 2313 
316 144 1629 348 1491 2474 2701 1331 1481 
1295 1662 391 695 371 38 359 1578 2890 
73 2133 771 111 926 393 796 798 1041 
328 361 281 1222 132 367 254 950 57 
35 961 1367 1432 978 931 271 505 180 
1190 1265 879 544 2470 330 494 877 601 
467 887 1636 844 1314 1263 1582 173 677 
1658 727 1249 2208 450 270 22 1376 651 
189 353 1881 2037 1527 1104 1415 1419 301 
1398 29 1858 944 1746 168 2069 801 1227 
2720 1676 778 823 2263 2327 2422 444 25 
128 841 1958 1229 1035 1589 2681 745 2114 
1607 150 1143 2162 1652 1624 2399 355 2065 
1979 579 220 741 205 1272 1680 76 202 
94 2169 766 1020 1033 315 1603 1386 1137 
1198 1278 810 1641 2167 539 2083 622 399 
466 320 1350 660 1523 227 681 277 1132 
377 325 2825 276 784 79 1735 610 292 
1848 506 1288 1106 1025 1565 402 845 922 
1410 2244 1544 47 175 857 2757 1751 534 
275 146 2605 3153 507 1213 1592 1475 730 
536 1912 1173 1108 3124 3746 481 28 458 
2229 483 1182 471 161 1279 2173 509 1443 
2036 1744 985 1264 517 1944 2130 7 1444 
428 2198 74 972 1562 502 2390 683 832 
1642 291 423 2597 907 1200 747 89 309 
666 256 113 1845 3412 3032 259 1064 419 
587 884 1501 3584 447 3217 2025 1787 1866 
1136 2038 1045 2074 4166 2877 2652 4829 1304 
4935 2304 5224 473 3381 4610 1114 1502 4348 
4446 1474 917 2048 3725 3789 5420 2271 3274 
5068 2466 65 2342 1586 4968 463 366 1649 
671 641 3166 166 397 13 1284 518 1972 
2234 614 1016 1067 1968 2458 2423 1337 618 
1008 644 1670 1150 2593 1810 3400 2669 2727 
1129 4480 2740 1111 4475 2444 3570 4868 1449 
3790 1353 2398 5223 1694 2981 4112 157 1901 
3770 3632 2824 3339 3930 23 920 1119 162 
949 1305 849 64 808 640 102 773 624 
2552 764 1221 2049 621 3022 2103 1100 1738 
176 570 85 631 729 1875 875 2482 1840 
37 1729 46 2845 2836 302 706 1528 2072 
409 1631 2243 3371 733 595 1747 2595 2339 
749 597 1722 973 1228 1913 1513 3188 625 
1372 1571 2384 2298 1857 4306 2275 916 2741 
1399 856 224 578 702 425 657 1543 1406 
1554 179 1051 1776 215 1254 962 1338 11 
760 1302 1186 1193 338 484 602 1226 714 
496 1639 757 208 545 720 1307 2454 2576 
560 2073 462 1983 2507 3085 3010 2819 1580 
3535 336 1671 1461 1500 3524 2603 4057 3146 
2843 81 1924 4186 2509 3751 2223 2231 2290 
3093 1507 2641 2788 1247 2181 3096 2230 3544 
1940 3486 1773 2424 241 1766 2453 3225 2408 
863 2372 2376 2135 2805 1711 3029 2560 1411 
3874 2190 1215 1635 3078 2417 2134 3327 2598 
3945 163 1383 2899 2374 1534 3221 1854 1745 
3401 3664 1532 3376 656 2493 2416 1301 2131 
2761 3455 2876 2717 2510 3614 3256 2515 4019 
3090 1378 1262 770 326 3 1838 1074 781 
2833 2804 237 2115 511 1546 3109 1404 3200 
279 1019 2716 50 1339 1681 1698 2655 1021 
2040 802 2954 3777 2629 2253 1318 1655 58 
3232 2193 3937 3059 1158 1651 2558 2242 2946 
3002 3189 648 1176 395 1921 2017 181 880 
1733 704 1473 131 2228 1218 1695 1930 1039 
342 2091 2354 1906 902 274 1824 1269 278 
1110 1165 2856 1001 504 1880 1648 2457 1526 
3331 252 3397 3352 2499 1347 910 2429 1509 
1068 1070 2456 1195 380 2420 4129 1891 2521 
1893 475 206 122 439 633 1811 848 731 
155 2626 540 636 273 437 443 957 2748 
67 1584 17 296 1521 1506 2096 737 3127 
305 1053 967 1720 368 1209 172 45 298 
693 894 862 1071 404 816 91 1723 782 
723 1235 3822 1661 432 193 1489 492 663 
130 56 4 647 62 692 232 77 908 
70 609 1151 1297 703 1285 1048 930 2289 
584 527 148 1178 1319 115 995 446 201 
1539 1602 1002 1177 1112 691 1486 436 346 
717 639 612 454 776 896 2067 830 1482 
600 2792 461 2530 1718 1691 2285 2152 1421 
1118 982 2245 562 1779 2387 1412 4101 3678 
1638 3025 3080 3519 3422 3733 3813 2944 2345 
2455 4216 2233 2186 3445 4440 4961 4637 2151 
4077 3154 5467 2383 449 980 2432 3796 3998 
3966 1199 407 4418 1518 3064 2988 3665 3378 
2910 3453 3429 3257 2541 2467 3488 3799 3893 
3689 1469 2949 3259 3951 1950 797 97 2085 
1261 174 860 2337 971 2331 1457 3548 2126 
3075 3053 936 2893 2155 1363 1207 2480 2999 
1628 3564 1790 2159 2975 2312 1326 3366 3802 
2778 1354 2850 2299 1954 2579 2496 3451 2790 
3641 2336 3383 3100 3067 2294 2786 3698 2394 
3459 3942 1894 3410 2734 3972 2569 2005 427 
2513 553 1425 2039 2100 2293 1637 2567 1525 
2264 564 363 1300 1703 1308 1633 3553 864 
478 789 530 3873 1797 1748 650 3077 2495 
2385 2254 1998 2014 2088 1220 3287 2465 2341 
1103 117 4252 66 2592 2846 716 2670 3079 
2832 3348 3389 2303 3466 3279 1702 2426 3514 
1189 103 344 1146 32 2255 1084 1742 1294 
63 2724 251 1783 1581 1630 1183 1594 2149 
752 785 1468 1567 529 1777 2532 3229 247 
1938 195 9 2344 3372 2200 1520 4258 2369 
2915 2222 1535 1453 2084 2693 960 2129 583 
312 2191 2527 2439 2892 1309 2535 794 981 
943 30 1202 1770 964 668 1054 557 1015 
455 1289 95 1286 1078 847 1364 104 1605 
1131 207 99 440 2318 2855 705 1550 2288 
573 866 953 2021 2176 1028 2317 1830 317 
1612 952 474 585 260 169 495 1149 133 
1352 1557 222 1044 890 904 783 582 748 
531 935 214 588 851 1429 147 470 541 
123 1095 1169 10 792 314 1758 673 1771 
1115 881 1460 290 1644 1113 867 567 1244 
240 235 750 435 997 1049 1572 310 1563 
2367 765 738 1739 1843 1004 136 287 522 
1164 410 923 1351 1223 1075 412 221 167 
1556 809 268 1382 1632 1056 1660 2033 387 
216 1806 2028 1885 1250 3234 686 36 940 
3001 2707 2023 3341 3034 3556 3192 3148 2450 
4493 3033 2270 1970 3399 2378 4130 3855 3437 
2618 2959 3199 2730 3393 3710 2906 4316 2644 
2351 3263 3286 2148 2570 1588 1564 959 3030 
2719 3949 4134 5741 2320 2961 3529 4419 3974 
2359 3469 2591 3091 3982 3106 2867 2721 3379 
2766 2998 1765 2697 537 852 2533 3037 1969 
1441 1672 375 2916 3391 2421 1919 955 1786 
2744 2018 2771 2483 1609 2215 2346 3007 3745 
2615 2512 2389 937 2702 3027 3297 3006 2678 
191 2677 1384 2064 143 2762 1268 921 327 
1653 1952 2043 694 356 2436 2575 3480 3523 
2178 3602 2972 3060 777 2112 3265 1366 1157 
1933 825 1032 2904 3462 3159 1036 2687 1476 
3518 2602 1920 1717 299 1817 1807 2764 2902 
2053 2658 2287 1370 1510 742 2534 2000 3118 
1145 3329 2433 3569 4273 2696 1836 2808 2613 
1819 3284 2261 2501 2957 1130 2478 2666 2617 
350 2986 2958 18 313 1325 482 508 1006 
788 1152 1678 2158 753 1888 2080 1792 513 
3831 248 3521 3300 2865 3501 2206 616 2930 
1849 1472 3315 965 2661 3049 1663 2511 351 
2544 2628 2136 1275 1936 2434 3332 3398 2329 
3734 255 1093 1047 740 2273 2612 1394 593 
1667 1887 898 1752 127 370 52 2485 1408 
300 701 758 827 1978 1310 1825 658 1585 
1883 822 909 744 2306 1731 992 1405 2586 
1185 1031 2411 535 697 3343 1927 831 559 
1170 1795 2559 1246 1724 198 1256 1548 984 
199 329 343 373 549 1017 112 999 526 
225 1715 998 101 679 1359 178 262 525 
945 685 263 1673 88 358 1494 655 357 
821 774 591 289 1097 1821 707 815 384 
638 846 1587 630 93 51 551 1116 188 
490 1140 75 1120 512 1579 604 153 1142 
434 1536 43 662 297 242 337 710 1445 
1914 1621 1413 1780 1323 1180 250 2076 2706 
284 2992 3155 2183 1953 3547 2252 2619 1956 
1063 182 3303 2446 623 27 1428 2098 2858 
2851 1929 1155 1280 1208 3089 2900 924 118 
426 334 1187 2581 253 552 1424 258 1646 
672 2007 1030 1753 1243 2400 1679 635 1316 
938 424 819 401 2060 2079 670 365 1427 
40 21 2427 2463 2239 2353 807 140 1333 
2903 566 3000 1101 1701 2333 2459 516 2763 
2213 1168 49 2630 2102 2587 3298 2841 1529 
2648 2625 1669 2823 699 2794 2113 1576 2583 
2360 2249 2650 1545 3728 2756 2645 2081 947 
3238 3014 2274 2732 3540 763 2319 3444 3193 
2498 3494 2711 2839 3394 698 3572 3380 2907 
3082 3239 1986 4313 3294 1214 2924 1973 3266 
3932 2201 1907 1781 2753 1990 1365 1079 2780 
1336 283 1451 1932 1282 1928 2139 1761 2171 
3374 2550 2818 2332 2875 617 2659 2869 2539 
4084 2830 1610 4229 2803 2503 2537 734 3277 
3958 265 2051 613 2828 2736 3178 3960 4521 
4172 501 1127 4022 1488 3478 2631 2665 3594 
603 4753 1976 1813 8 2019 1139 1850 96 
2031 885 116 900 372 498 1273 422 843 
231 389 141 2348 1496 2237 1700 1569 1024 
1029 1611 1939 1925 2543 3527 1423 2075 1872 
1133 1687 3731 1960 319 726 893 2207 892 
1022 1835 594 1456 4839 1992 78 2236 177 
987 249 257 608 793 1065 976 735 2315 
755 1203 868 321 1895 139 1948 190 460 
1156 1403 968 2948 1517 3054 400 645 39 
376 1831 1726 2441 1905 2563 3919 951 836 
669 646 1281 659 813 55 1161 1175 3119 
1240 1566 197 1107 800 2192 2561 1626 2776 
2050 476 2905 3531 3213 883 3558 4024 2508 
891 2425 2452 1947 928 2012 2063 4308 3985 
4230 1026 787 2224 4557 2350 4202 1105 979 
1368 2695 3184 3762 2059 4234 3340 3559 1595 
4225 2811 4141 333 3215 3103 3906 1991 3219 
4406 4090 1645 4919 4495 3313 3306 989 3452 
4062 4433 4582 4381 3367 4478 5573 2777 4679 
3289 4731 3909 3253 4860 3648 5278 1080 969 
2555 1330 1812 1072 2030 2646 3748 2849 2600 
1098 946 2983 2735 1549 1889 2912 2280 3081 
4068 4762 159 3837 3163 5202 4015 3776 2594 
2071 3069 4785 5042 3795 4700 3009 5896 3989 
2713 1559 2692 3358 3610 1167 620 239 33 
152 1904 2154 1435 2221 1153 1174 1147 1321 
1204 382 1640 4336 634 2738 306 1820 2210 
1946 4119 3510 2157 2779 2536 2622 874 135 
2479 5704 5488 4981 5447 4631 4765 4389 4717 
5376 4127 5135 4789 5768 5015 4650 4431 5857 
4745 3625 2109 5146 4378 4907 5632 5269 5279 
2124 5927 5113 4510 4025 5496 3852 3756 5235 
5749 4984 4875 5211 4393 6053 5781 5074 5195 
2414 2997 4237 1714 5106 2520 4320 3324 3758 
4351 4724 5571 5189 5370 4793 2854 4621 5120 
4286 4944 5789 4809 4905 5960 4825 4200 3596 
2058 5959 5540 4738 5965 2911 3476 4549 3668 
3273 2388 2728 3637 1690 2301 2799 2138 3495 
3207 2633 3807 3390 4094 2609 2684 2442 2703 
2673 4934 3697 5326 5536 3977 5006 3498 3308 
4211 1504 2770 1599 5490 4596 675 5509 5427 
4409 5476 5915 5561 4387 185 1995 1346 1552 
1699 3272 59 1754 3821 4305 4655 2772 129 
416 2281 4840 3659 5551 2518 3491 3652 975 
1484 2121 1037 2739 1728 1464 837 293 5809 
1138 304 3702 3700 2700 3968 3736 4618 3211 
2026 2638 2082 2996 1937 2714 5105 1980 4087 
4634 4287 5034 2406 2519 4709 5558 3715 4056 
2393 3861 4214 5172 3671 4483 3392 3105 4499 
5032 4892 4457 4823 5241 4712 3475 4652 5043 
4152 3431 3426 3780 5228 1401 5714 3041 3031 
4678 4788 3591 5340 4711 3843 4071 4504 3507 
5459 3395 5372 5688 3760 4254 5492 1984 2477 
4640 2610 5916 4983 2816 4156 4906 5138 4076 
4824 5774 5682 5004 3812 5247 2847 3368 3457 
519 1784 3052 2708 3708 3202 3073 2366 3851 
3732 2572 3683 2203 2095 2925 2853 790 2545 
4886 3750 3712 4292 4017 4578 3505 4660 4527 
4598 4702 4179 5306 5023 2410 5751 4952 3019 
5605 4161 4691 2566 2358 5221 3317 5516 5613 
3599 5069 2300 3212 3720 4325 4443 2976 3162 
4772 4843 3396 3164 1767 3012 1730 2062 3970 
3623 3160 3794 5215 2297 1775 3513 3275 3158 
3577 2637 3038 1942 3828 1191 3606 3074 4136 
3402 3603 4456 5065 4466 3246 4836 5454 4969 
4450 5539 5086 5117 5397 3743 3817 4586 4777 
4425 5811 4168 4461 4293 4267 3862 2817 2857 
2371 4911 3065 4563 4928 1598 1902 528 2001 
3183 628 2006 2657 3436 2278 1465 1391 3690 
2980 1903 1334 1232 1046 2008 2078 2797 1257 
1982 4798 4042 2412 1945 2118 4686 3811 2651 
3925 1179 3418 12 3439 2662 2745 229 1846 
3143 339 1865 2531 3902 3699 3719 1290 2022 
2057 1438 3729 2920 2108 680 556 307 1805 
1233 1236 925 1327 267 575 1987 576 918 
294 1593 1470 80 2032 1897 1782 2663 853 
2089 1381 1643 1560 1708 1659 667 615 1861 
1291 1055 2502 1292 2688 3888 2898 3182 2991 
4962 3612 5171 4045 4160 4043 3242 3137 3045 
2751 4128 4275 3099 2362 3957 2636 2090 4290 
5394 4455 5721 4865 5259 4627 4061 5767 3948 
1873 4502 4122 3375 5918 3135 4366 4138 4651 
3003 4224 3097 5712 4059 2588 3979 5792 5988 
5026 5732 5966 4301 3685 3965 4082 4611 4257 
4863 5878 5336 5081 4485 5452 4165 3961 2966 
4465 3571 4779 4414 4337 2793 3072 3615 4689 
3305 2712 4046 3899 4963 2953 2489 5284 4448 
4185 4780 1853 5851 5305 3468 2887 4050 5027 
5639 3044 3562 3675 5699 3424 5572 2445 3707 
5216 3198 3430 3541 5040 4625 5405 3337 3773 
4421 5567 4941 4554 5430 2848 3849 4303 3133 
3138 1454 3050 2815 4822 5057 3013 3415 4227 
335 1996 3176 5225 3330 3647 5229 3810 5640 
3848 5073 5830 3180 4003 3658 3048 3385 5302 
2829 3423 3108 1763 2923 3449 5246 3414 5493 
4196 3047 4720 2963 4154 4991 5194 5404 4139 
4302 4364 5033 3545 3467 1090 2145 2971 3912 
2861 3749 548 3918 1315 4270 1994 3950 2807 
3377 2667 3726 3853 1086 3432 2908 4265 2003 
4922 3973 1514 3473 3481 4539 3847 5457 1393 
3051 4662 4801 2165 3450 2660 4151 2935 3492 
3247 2523 4314 4349 2211 1689 1478 2077 1955 
233 2589 2682 2492 3023 2413 806 1463 3206 
2710 1005 2128 2443 2473 3203 3786 1926 865 
1252 1874 3035 4672 2933 2042 3709 2977 2219 
2475 2866 3717 345 1844 2675 1601 574 1910 
82 1061 2614 1038 2418 1684 2642 2984 3487 
2368 835 1466 1091 1479 2111 1260 786 2195 
1344 1962 2106 264 1416 1727 1778 26 411 
1989 430 1409 1303 911 1911 1040 2146 2013 
2248 895 192 3336 563 1259 303 459 1196 
2216 780 948 1437 1356 429 1613 629 1863 
1245 406 572 1615 1388 1542 441 1082 795 
2105 521 1448 1034 1707 1516 194 204 2034 
374 1590 954 187 245 2729 1814 90 3833 
3092 2947 3920 4794 4615 2620 4405 3458 3456 
3834 5650 3631 3782 5047 3869 3904 3798 4874 
5636 4117 5250 3342 4379 3087 2514 4060 4757 
1803 2606 2156 3871 3321 3656 3101 3255 3947 
3062 3204 2402 3605 1867 2872 1618 4469 4360 
3039 652 1242 3144 3126 2488 3669 2041 3742 
3931 4633 2232 2395 3956 2027 3676 3805 4279 
4781 2262 3364 4677 2784 3846 3409 2002 2835 
3740 2837 2885 5009 4434 2328 3803 1487 3296 
3933 4902 3474 2679 3174 3787 3536 3797 3775 
2918 4345 1206 1512 2722 2547 3404 2168 2184 
2607 2491 3361 3508 3761 3280 715 4696 1361 
4048 4467 3704 3205 2052 4708 3021 2782 1909 
3040 2802 3131 4083 5349 3443 2627 1092 1965 
1450 3338 3403 3581 3008 4089 941 2635 3464 
3872 3270 3763 3808 4013 3839 4250 3916 2196 
1802 2506 3604 5552 4680 4436 3806 3654 3057 
4587 1057 3262 2926 5344 3727 3427 4561 3643 
2307 4356 3997 4026 4914 3622 1706 2994 2755 
3554 3582 5473 3830 3908 3975 4997 5826 5479 
3905 3679 2292 2340 2251 121 2046 1340 1433 
2937 3578 3955 3573 1583 2164 828 4391 4245 
3611 2931 3335 2896 1418 3209 2759 2686 2185 
2767 2791 4459 3136 2153 4820 4399 4080 3645 
3224 1685 4787 2798 4723 2256 4255 1210 4110 
3055 3533 4339 4841 2974 4583 3149 3150 3005 
3890 2750 3838 1941 1324 2010 2197 308 3114 
1317 1898 1480 1870 1447 986 1625 1674 1212 
3769 555 696 1725 1553 1076 1704 1647 1828 
341 1422 41 1682 2773 1181 4018 1800 106 
1342 1462 1377 1287 323 2150 590 1785 1558 
1877 3434 4588 2377 1852 3258 2743 1918 2538 
721 1231 1533 2180 2205 4125 1949 1697 1966 
2500 767 700 1683 1597 417 1373 1387 768 
688 876 520 664 1515 515 1135 1083 170 
1573 1341 1023 1014 119 500 331 524 1963 
1574 418 839 850 1144 164 958 1018 1749 
1255 1985 1188 1497 1123 569 196 217 933 
1957 1495 772 2484 919 811 203 1407 2611 
2357 1750 1052 1734 605 762 1841 486 2749 
4978 1868 1362 2277 2170 1741 2175 2024 3110 
990 2335 165 2094 3147 607 873 2577 1686 
1608 438 1713 1531 2461 282 2310 2286 547 
1774 1721 2769 2029 2634 84 1791 2571 1837 
60 4508 934 2859 2087 2604 2305 2204 1194 
4726 2382 2214 3145 3190 3801 1737 2141 2468 
3446 1452 2524 1922 2246 4044 2884 1439 1162 
3555 4363 2554 3252 3638 2785 3592 929 4103 
2117 3627 1622 1371 149 2447 2562 4204 3842 
3503 3836 3788 2125 381 3601 2548 2309 4091 
3463 2504 4167 3194 3903 3071 2490 3360 4896 
3416 3004 3624 3752 4310 3502 3629 4805 3322 
3672 5005 3261 3724 2795 5260 3633 3058 2965 
2880 3823 3996 3741 3694 2968 5735 4817 3268 
3512 3894 1876 3928 2806 4104 2979 3681 3196 
4617 4553 2774 4065 3883 2962 5868 4317 3493 
5207 4756 4870 4644 4108 3537 2608 4464 5483 
2940 4030 4368 4189 4623 2596 5165 4908 2107 
3897 2942 3104 4468 2238 2718 2775 2691 2978 
3986 3771 3644 4063 2967 2919 4937 5168 3244 
4217 3448 4792 4715 4531 4023 322 5746 3857 
2179 3661 532 3319 4176 2405 4332 2995 2733 
3152 5477 3251 3595 3990 2989 1827 4251 2863 
1277 2199 829 1577 915 859 1974 1822 1087 
2656 2522 523 1923 1975 1134 1011 2302 2404 
2932 448 2844 2448 2704 2546 1397 2685 2580 
3840 1258 4311 1834 3607 3561 2370 2938 4323 
1712 4670 3290 1851 1154 1266 1864 2356 4732 
1293 2257 2864 2123 1211 1620 869 1085 386 
1860 451 2886 2481 514 360 1971 1522 2119 
4415 1349 4371 6 2709 1498 3276 405 4808 
2487 4920 2373 3721 4957 2584 3636 1756 2202 
4231 2913 3283 3489 3670 3560 3333 3094 2054 
2266 3526 4654 2009 3490 2698 3693 4524 3552 
2929 5014 2827 5911 3657 3271 4581 2101 2334 
2647 5847 4641 3759 2365 3609 3312 2147 4970 
2879 5393 3984 4473 4958 4396 3539 5550 4816 
4272 5243 4307 5642 5282 4411 5357 3140 5481 
4223 4671 5174 5810 5082 3963 5390 5275 3086 
4883 4097 4959 4490 4519 4533 4053 5589 4795 
4835 2683 4361 3781 5115 4764 4190 4909 4315 
4256 4646 4370 3018 2578 4559 5254 3066 5564 
1606 4966 3520 1027 3355 3901 4551 5288 5711 
4955 4369 4191 3311 3585 4580 5176 2950 4703 
4086 3586 1081 5409 4124 4454 4248 3739 4249 
5359 4011 4512 5884 5410 2838 5876 3590 4451 
1219 4985 1839 4344 3347 4938 3482 3940 2209 
1794 5386 4458 4737 3316 3784 5772 2430 4592 
2883 3068 5301 4526 5755 5419 5157 5333 5582 
5818 5627 4403 5654 5485 5156 5608 5262 5283 
5122 5514 5848 5824 3885 5533 4506 4602 6070 
4799 5277 6046 4487 5444 4673 5099 5348 4424 
6041 5986 6027 5697 5799 4187 5841 5592 5694 
5609 5630 3621 4956 5914 6009 4760 3999 5743 
4199 2529 5520 4241 6036 4460 4666 5100 5263 
5451 5316 4987 5893 3472 2952 5603 4266 5391 
4496 4283 5874 5687 5933 4855 5705 5989 4980 
4683 5201 5790 4346 3593 6023 5255 3292 5618 
5180 3783 5957 5879 5706 5143 4916 5595 5038 
5310 5953 5796 4321 4705 5304 4888 4864 5955 
2987 5615 5788 6022 3779 3546 4721 5029 5131 
5507 3227 5392 4445 5734 5036 3293 2568 5373 
5155 5300 5383 5125 4137 5998 5111 5423 2765 
2160 2528 4140 3856 4873 4733 4350 1716 5184 
5500 1069 2928 5897 3460 3800 1003 3309 2276 
4514 3988 4452 1455 3829 3915 4135 1234 5054 
4114 5877 4722 4940 5892 4463 5616 5375 6066 
4288 3191 4830 5777 5649 5724 4847 5653 5791 
3134 5132 5019 5434 3630 3772 4784 5641 5094 
4218 5075 4982 5253 5374 5939 5347 5926 5365 
4235 4498 5079 4491 3214 4693 5628 4400 5258 
3115 5505 5725 5991 5437 5625 5382 6024 4951 
5888 4595 5407 5287 5453 5521 4550 4545 4947 
5528 5881 5619 5002 5097 4999 5733 5814 5167 
6012 5701 6030 5766 1224 2664 5238 5860 4967 
5629 5647 4846 5114 5784 5524 5805 4853 5327 
5863 5778 3969 5261 4973 4701 3825 5384 5909 
5308 5020 5431 5817 3917 4111 5898 4719 5329 
6032 4684 4758 5738 5756 5906 5101 5583 5563 
3663 5377 5181 2927 4435 3525 5806 4744 4647 
4986 5322 5354 4342 5475 4687 4500 4665 4859 
4543 4215 4075 5963 5512 5299 4150 4184 5045 
3995 4976 5631 5674 3926 4285 4838 4143 3542 
4861 5947 5028 4174 4803 5710 2922 3944 4939 
3774 4636 3120 2601 3304 2099 4064 1977 3723 
2917 4106 2386 3291 3417 6016 3201 5315 3579 
4972 5379 2921 3365 2225 2814 3580 4276 4291 
2283 1705 2982 2449 3373 3767 2874 1981 1688 
3646 858 1859 134 1816 2787 674 1148 1239 
654 2783 1710 533 3528 6048 977 3735 2161 
3036 2820 1884 2674 2590 2672 4193 3935 2653 