# vtk DataFile Version 4.2
Generated by LIGGGHTS
ASCII
DATASET POLYDATA
POINTS 5997 float
-0.0114339 -0.0206104 0.00304419 -0.00197032 -0.0180556 0.00339554 -8.69136e-05 -0.0238342 0.00209528 
-0.00578231 -0.0228244 0.00314872 -0.00221943 -0.0235074 0.00311192 -0.0162589 -0.0120391 0.00334096 
-0.017402 -0.00785265 0.00307886 -0.0168163 -0.0166163 0.0059309 -0.0154597 -0.017572 0.00396636 
-0.00881315 -0.0220252 0.00433003 -0.0103247 -0.0179482 0.00422766 -0.0135776 -0.0194557 0.00398346 
-0.0102861 -0.0203374 0.00506083 -0.00835427 -0.0185102 0.00522112 -0.0116854 -0.0171136 0.00547854 
-0.0123969 -0.0203021 0.0058115 -0.00964742 -0.0217656 0.0063285 -0.0102467 -0.0186426 0.0062437 
-0.0151705 -0.0184485 0.00603295 -0.0132333 -0.017347 0.00694251 -0.00861332 -0.0172371 0.00675861 
-0.0114463 -0.0210114 0.00768089 -0.016354 -0.0174077 0.00780381 -0.00926298 -0.0199757 0.00747675 
-0.014019 -0.019041 0.00786771 -0.0116702 -0.0190185 0.00779359 -0.00959064 -0.0216504 0.00870879 
-0.0156073 -0.0180373 0.00966581 -0.0103465 -0.0174572 0.00824897 -0.0126717 -0.0202098 0.00909513 
-0.0131401 -0.0182061 0.00979694 -0.0104658 -0.0194371 0.00933503 -0.00843128 -0.0200466 0.00934287 
-0.0143017 -0.0167228 0.0105084 -0.0112121 -0.0211548 0.0101788 -0.0112351 -0.0176514 0.0100831 
-0.00923223 -0.0177814 0.00999189 -0.0129394 -0.0198378 0.0110874 -0.00928621 -0.0218743 0.0107213 
-0.00779088 -0.0169 0.00382366 -0.000388517 -0.0166867 0.0045326 -0.00665988 -0.0207519 0.00386683 
-0.00283386 -0.0207267 0.00343331 -0.000940413 -0.0197353 0.00416647 -0.00599679 -0.018203 0.00345103 
-0.0040712 -0.0169374 0.00445007 -0.00692423 -0.0228697 0.00495459 -0.00306103 -0.0188545 0.0057734 
-0.00361623 -0.0231546 0.00485823 -0.00482036 -0.0209917 0.00475487 -0.000392464 -0.0237134 0.00576324 
-0.00215239 -0.0168871 0.00547006 -0.00672882 -0.0172362 0.00573914 -0.00167635 -0.0218213 0.00483522 
-0.00778317 -0.0209803 0.00606026 -0.00531678 -0.0232117 0.00618024 -0.000516095 -0.0219612 0.00710368 
-0.000823448 -0.0200767 0.00639095 -0.00116904 -0.0179312 0.00718072 -0.00515795 -0.0186172 0.00625724 
-0.00290755 -0.0209975 0.00635849 -0.00207993 -0.0231649 0.00676935 -0.0071714 -0.0228152 0.00696124 
-0.00769681 -0.02236 0.00893006 -0.00699174 -0.0206937 0.00790933 -0.0075893 -0.0184259 0.00832489 
-0.00490951 -0.0211003 0.0070396 -0.00613237 -0.0167532 0.00759558 -0.0036004 -0.0171817 0.00766682 
-0.00124684 -0.0198009 0.0083267 0.000172876 -0.0219626 0.00930108 -0.00332966 -0.0191948 0.00800212 
-0.000375315 -0.023779 0.00837182 -0.00328157 -0.0215149 0.00829167 -0.00550783 -0.0232347 0.00820803 
-0.00196312 -0.0177631 0.00902854 -0.00562815 -0.0191794 0.00834257 -0.00540128 -0.0214033 0.00904994 
-0.00618857 -0.0174284 0.0095164 -0.00340242 -0.0235029 0.00855308 -0.000295649 -0.0238699 0.0104282 
-0.0016689 -0.0204611 0.0101806 -0.00380911 -0.0171231 0.00977026 -0.00251607 -0.0186965 0.0107316 
-0.00455609 -0.0198186 0.0100072 -0.00264224 -0.0237318 0.0106341 -0.00354323 -0.0218843 0.0102698 
-0.00714124 -0.0186105 0.0109722 -0.00517972 -0.0233124 0.0104605 -0.00612547 -0.0209838 0.0110647 
-0.00536922 -0.0173593 0.0113937 -0.00744417 -0.0227109 0.0109581 0.000549935 -0.0219592 0.00451387 
0.000435764 -0.0180285 0.00597813 0.001375 -0.0199319 0.0041935 0.00180597 -0.0233934 0.00379311 
0.00526274 -0.0230825 0.00368059 0.00393363 -0.0174427 0.00418487 0.00581959 -0.0166434 0.00449532 
0.00267147 -0.0216735 0.00477562 0.00463246 -0.0199333 0.00438992 0.0067536 -0.0207763 0.00462825 
0.00639872 -0.0187692 0.00442688 0.00484725 -0.0217383 0.00535282 0.00685004 -0.0228446 0.0052062 
0.00848203 -0.0183068 0.00597484 0.00301261 -0.0190031 0.00564928 0.00374546 -0.023547 0.00497432 
0.00520576 -0.0179944 0.0062747 0.00830459 -0.0205165 0.00621177 0.00137338 -0.0237412 0.00697219 
0.00129378 -0.0198488 0.00625256 0.00197239 -0.0217199 0.00668075 0.00341051 -0.0235945 0.00722326 
0.00698713 -0.0168953 0.00640338 0.006785 -0.0191956 0.00659125 0.0045174 -0.0199495 0.00666309 
0.0053897 -0.0232581 0.00653485 0.00813469 -0.0224723 0.00684237 0.00635502 -0.0213985 0.00694869 
0.00137194 -0.0206354 0.00830138 0.00148174 -0.0237313 0.00930783 0.0028557 -0.0222972 0.00879248 
0.0037289 -0.0204615 0.00909357 0.00441919 -0.0218552 0.00760114 0.00842741 -0.0192115 0.0078439 
0.00708901 -0.0177792 0.00831115 0.00472907 -0.023333 0.00895196 0.00553667 -0.0213597 0.00921964 
0.00591694 -0.0195101 0.00845384 0.00775412 -0.0210588 0.00835601 0.00661059 -0.0228395 0.00835734 
0.00830158 -0.0187731 0.010085 0.0080709 -0.0223182 0.00995353 0.000349695 -0.0199482 0.00989149 
0.00061503 -0.0219062 0.01142 0.00160715 -0.0238027 0.0113985 0.00212532 -0.020958 0.010254 
0.00342179 -0.0236999 0.0104649 0.00350487 -0.0199352 0.011419 0.00448795 -0.0219419 0.0111203 
0.0051629 -0.0196336 0.0103411 0.00711173 -0.0204272 0.0102518 0.00643241 -0.0180896 0.0103844 
0.0061992 -0.0229488 0.0103177 0.00873347 -0.0222206 0.00477529 0.0158415 -0.0178806 0.00516619 
0.0122206 -0.018555 0.00504298 0.0106546 -0.0213466 0.00571006 0.0102157 -0.0188447 0.00513616 
0.0139243 -0.0195165 0.00551598 0.0139848 -0.0174995 0.00584976 0.0102202 -0.0200545 0.00730981 
0.0122181 -0.020483 0.00682036 0.0138118 -0.0195342 0.0075814 0.0154584 -0.0182782 0.00722609 
0.00966285 -0.021789 0.00821498 0.00986449 -0.0200217 0.0095328 0.0115404 -0.0208185 0.00871322 
0.0130958 -0.0199701 0.00969536 0.0148178 -0.0185992 0.00916257 0.0164714 -0.017316 0.00877347 
0.0149937 -0.0165085 0.00987099 0.00876728 -0.0203748 0.0114679 0.0103639 -0.0190909 0.0114679 
0.00991633 -0.0217426 0.0105668 0.0124292 -0.0189346 0.0114921 0.0144423 -0.0191197 0.0110667 
0.015992 -0.017778 0.011095 0.0169734 -0.0167796 0.00683934 -0.0195794 -0.0122532 0.00400769 
-0.0184944 -0.0101388 0.0044023 -0.0204188 -0.00871424 0.00467962 -0.0215346 -0.0103968 0.00481376 
-0.018064 -0.0151643 0.00427364 -0.0186128 -0.00850554 0.00607256 -0.0184144 -0.0119859 0.00621331 
-0.0194319 -0.0139051 0.0052844 -0.0204787 -0.0121067 0.00626022 -0.0195852 -0.0103091 0.00632347 
-0.0215323 -0.00964508 0.00679216 -0.016997 -0.0142963 0.00595911 -0.0170839 -0.0103817 0.00590324 
-0.0179158 -0.0157012 0.00767852 -0.0193492 -0.014065 0.00772967 -0.0183159 -0.00951399 0.00780402 
-0.0206033 -0.0114068 0.00832233 -0.0219041 -0.00959509 0.00881066 -0.0198817 -0.0132163 0.00947239 
-0.0195302 -0.0101235 0.0094779 -0.0182774 -0.0117642 0.00923746 -0.0175048 -0.0144827 0.00925402 
-0.0175248 -0.0131011 0.00777249 -0.0173442 -0.0163132 0.0106482 -0.0209935 -0.00905357 0.0105323 
-0.0212103 -0.011017 0.0102186 -0.0186196 -0.0117419 0.011279 -0.0189212 -0.0146938 0.0106637 
-0.0168557 -0.0133123 0.0113804 -0.0133988 -0.0164311 0.00439427 -0.014811 -0.0163096 0.0062272 
-0.0107427 -0.0153575 0.00367368 -0.00852419 -0.0149126 0.00376122 -0.00997827 -0.0121112 0.00389551 
-0.00860107 -0.0103828 0.00429409 -0.0150926 -0.014504 0.00360685 -0.00944584 -0.0155308 0.00572021 
-0.0115982 -0.0129426 0.00554367 -0.013999 -0.0133843 0.00548185 -0.00855976 -0.0131693 0.00520667 
-0.0159964 -0.0125295 0.00599542 -0.0133128 -0.0150192 0.00697536 -0.0163244 -0.00879142 0.00718061 
-0.00977655 -0.013717 0.00681049 -0.0147551 -0.0164573 0.00856191 -0.0123762 -0.0164093 0.00858732 
-0.010928 -0.0154723 0.00721509 -0.0155108 -0.014728 0.00757475 -0.0165659 -0.0113438 0.00766443 
-0.0140951 -0.0125948 0.00782015 -0.0167138 -0.00988325 0.00903291 -0.00832176 -0.00869445 0.00953149 
-0.00976019 -0.0121794 0.00814984 -0.0149813 -0.0110701 0.00889121 -0.00920703 -0.0106066 0.00925426 
-0.0152776 -0.0131199 0.00947794 -0.0118857 -0.0136966 0.00766993 -0.0118807 -0.0122858 0.00911121 
-0.0140065 -0.0147589 0.00941938 -0.00933258 -0.0140397 0.00903948 -0.0115107 -0.0142261 0.00958248 
-0.00838813 -0.0152554 0.0075621 -0.00842534 -0.0162126 0.0112689 -0.00996419 -0.0082664 0.0106153 
-0.0157479 -0.0150823 0.0106507 -0.0135587 -0.00962625 0.0104728 -0.016118 -0.0114233 0.0106951 
-0.00907057 -0.0122961 0.0103613 -0.0114214 -0.0101387 0.0106313 -0.0136342 -0.0117859 0.0102138 
-0.0110185 -0.0121878 0.0109861 -0.0123247 -0.0158309 0.0105502 -0.0100461 -0.0158667 0.0100159 
-0.0101296 -0.0141622 0.0111924 -0.00811145 -0.0083398 0.00498904 -0.0034689 -0.0132311 0.00397535 
-0.00152501 -0.0125926 0.00426867 -0.00479646 -0.0113012 0.00435283 -0.0032329 -0.00957887 0.00426177 
-0.00164458 -0.014641 0.00463049 -0.00593447 -0.0154367 0.00372958 -0.00635087 -0.00922998 0.00441486 
-0.00614854 -0.0128286 0.00430355 -0.0049949 -0.0160503 0.00608514 -0.000802473 -0.00984462 0.00591793 
-0.0026246 -0.00853476 0.00609305 -0.000500599 -0.0154294 0.00631361 -0.0026744 -0.0110747 0.00623007 
-0.00213674 -0.0133304 0.00617625 -0.00665437 -0.0109613 0.00548917 -0.00456194 -0.010018 0.00597565 
-0.0045119 -0.0137933 0.00560276 -0.00646035 -0.0143497 0.00605368 -0.00724909 -0.0124808 0.00667974 
-0.00456802 -0.0120165 0.00657383 -0.00683116 -0.00922579 0.00650132 -0.00242372 -0.0152351 0.00682644 
-0.00774118 -0.0160845 0.00926826 -0.00185295 -0.00963065 0.00792708 -0.000857664 -0.0139433 0.00780108 
-0.00234402 -0.0117574 0.00813533 -0.00392353 -0.00947854 0.00785769 -0.00523561 -0.0151409 0.00882937 
-0.00249982 -0.0157434 0.00877943 -0.00684679 -0.00965369 0.00850252 -0.000561946 -0.0104922 0.00922934 
-0.00570602 -0.0133637 0.00766094 -0.000393752 -0.0126455 0.00928814 -0.00481215 -0.0115083 0.0086176 
-0.00292744 -0.013764 0.00831186 -0.00267037 -0.0102714 0.0096519 -0.00690483 -0.011797 0.0087456 
-0.00468955 -0.0132981 0.00952638 -0.000991415 -0.0145887 0.00970267 -0.00666425 -0.0138418 0.00936598 
-0.00799345 -0.0142037 0.0109231 -0.00118739 -0.0163463 0.0107784 -0.00296862 -0.0122819 0.0100104 
-0.000291011 -0.00914374 0.010961 -0.00173699 -0.010446 0.0115008 -0.00126022 -0.0124102 0.0110841 
-0.00350421 -0.0149296 0.0103179 -0.00584319 -0.0154574 0.0108525 0.00865037 -0.0165601 0.00487268 
0.000132399 -0.0120299 0.00556108 0.000186234 -0.0116792 0.00753195 0.000273752 -0.0138334 0.0045377 
[...]
POINT_DATA 5997
FIELD FieldData 7
id 1 5997 int
2016 4482 5627 1951 372 3460 1670 1277 1655 
1190 4517 1657 756 3147 449 738 4402 777 
4930 3688 844 5393 4240 3079 5740 3115 146 
5614 4539 336 2516 3321 5403 2944 4790 547 
5909 5833 4351 5272 1660 6027 165 662 982 
823 1285 3893 2369 1663 3479 4456 5397 3329 
5102 2462 2042 5378 2555 899 2831 564 4481 
2357 4348 3646 1801 3172 5142 2953 4671 525 
4248 4373 1315 980 2077 3194 5150 1849 4745 
132 4158 3651 3615 1236 4040 5793 4239 5266 
3423 1137 5428 4678 147 2584 4918 4693 4116 
2179 5182 102 598 1550 5886 2644 2869 422 
3013 4118 6067 4854 5355 2934 3576 3119 790 
4843 6047 3862 2956 2899 1715 588 1844 3190 
4495 2639 4188 999 345 5523 1478 1076 1724 
5773 1870 1939 3731 4770 610 2745 2354 2103 
4605 5357 3054 1588 2234 5950 906 4145 4367 
4277 4400 2677 5572 2757 450 3996 2123 2095 
5555 3133 4311 1487 5501 1063 1518 5887 1291 
1240 4365 1482 143 833 1803 5963 1133 795 
117 4237 3031 5663 5352 3078 2740 2698 985 
3374 1710 1872 3677 1346 2566 3982 2835 3665 
5026 4149 2874 339 4067 1608 4825 5068 3445 
612 600 4899 721 5566 3107 4220 3840 5745 
2076 251 1509 4275 1154 138 939 1065 2558 
47 4006 2979 4502 3311 5786 5047 3977 3877 
2319 3372 472 89 4649 2941 2011 3512 1909 
2091 186 3912 6010 392 2971 239 714 4740 
2974 3635 2571 4792 3011 5579 6055 5048 5006 
1511 1101 3268 4701 4290 4550 3257 716 2549 
3783 1378 5974 177 405 2535 1877 1743 70 
2815 4372 4628 2857 5824 4916 3886 4270 3464 
2020 5953 3292 4978 3174 4044 462 3409 3029 
6059 2028 5755 5834 306 5452 3769 3229 98 
109 3205 5854 2275 5882 963 3650 504 134 
1331 3243 4187 4111 4672 3842 94 1165 1045 
3458 1819 566 394 1830 4510 1053 5288 3227 
1958 1214 2613 799 5920 4730 2057 6026 5021 
3237 2586 350 2660 5264 2139 1407 3859 4048 
4793 1158 3453 2301 5316 1601 3817 2645 781 
4845 5498 1629 2384 1871 3341 3281 3758 4869 
57 224 1081 2575 5864 4518 1196 1962 1180 
5659 5269 63 476 3691 521 5205 4505 4644 
1976 3984 2489 5828 6002 2840 4886 1911 4376 
5183 4556 3118 4056 549 2238 3525 5212 1798 
4455 3410 335 2893 3288 5861 3365 188 204 
2937 1156 441 1922 1520 1920 3740 2918 4243 
3617 1776 3739 1296 5222 5014 1902 2792 5543 
5299 3291 5329 4332 3548 5015 900 4509 3661 
1424 5318 1572 4905 2397 3632 3278 5600 4508 
5764 2437 791 292 4258 1177 176 1925 2834 
4195 1737 3726 1223 238 5257 734 4689 1978 
1908 2884 3577 1080 1212 949 5763 5439 3551 
5033 3948 4 2040 4876 5391 99 3947 2208 
2932 4157 2398 1593 5821 4658 4487 4544 5254 
797 164 2046 4138 2235 1688 5419 3433 1145 
3499 3184 1643 2078 4664 4334 2742 1314 4194 
1565 2901 947 2317 6046 1558 5004 5617 5159 
5991 2376 4182 3215 1357 4291 5660 1580 4758 
4791 2608 1646 649 1074 664 719 4610 4251 
706 5349 5032 3768 5596 3081 3649 1102 5116 
3903 253 387 2818 2762 2200 4837 603 5131 
5119 1228 2565 5035 1760 290 1233 3640 2017 
4315 82 979 5320 4781 2731 5902 481 5190 
1525 2885 1397 883 3177 4687 5842 349 5422 
3104 2195 5322 3633 5332 510 1092 3712 397 
2338 2214 687 4281 5253 1974 5520 4865 1542 
5488 3994 3451 1779 1885 951 4165 310 4813 
1596 1332 896 5082 2259 3925 5219 3722 4346 
4387 3055 3676 2113 3906 1394 4911 2215 1347 
11 3075 4866 2800 1682 1802 1921 3723 2340 
2970 5804 3238 1598 1559 4025 316 5425 4773 
1638 6061 381 3715 591 4659 3016 5554 4305 
5649 5788 3814 534 2925 2328 2164 64 3602 
6062 53 4175 5111 5029 4915 8 122 1369 
3519 3714 4872 699 2411 2536 3161 4621 3983 
2371 2161 363 1726 3316 1575 412 1878 1756 
4263 3231 3713 5456 4428 2012 2120 446 3181 
5326 864 5018 1292 885 1058 5688 1780 5104 
5226 4286 1244 3280 5423 1842 893 5268 3794 
1402 5450 5301 4977 4615 1108 4697 874 2467 
5430 1607 5 5881 3034 2408 1782 862 3352 
1066 5937 1896 2264 2706 5128 3218 912 643 
559 2201 2105 5739 533 5693 5567 4236 6054 
672 2130 4752 2413 4992 5343 5483 3911 3721 
1874 5843 933 4883 4506 2607 3700 4087 35 
4887 1493 1100 3431 289 1019 3507 3273 3004 
5959 4096 5354 5247 2643 4726 299 3492 5087 
3749 3187 355 769 3813 1993 1060 297 5905 
1054 3357 4276 6004 2870 871 4940 3432 2059 
2693 3050 3483 952 811 1832 1358 5089 1532 
2178 5327 4679 5653 3812 3456 2539 3495 3860 
4894 4054 820 4061 5712 3461 2966 5223 2420 
5710 3824 4475 1172 2353 1098 6023 1327 2830 
4208 4847 4811 4526 489 972 1325 4371 6037 
1107 755 2804 4496 2421 5602 4779 4803 1204 
358 2044 5163 3254 4797 5132 5176 1683 3363 
6 5799 2346 599 4314 2430 804 1007 5280 
5593 1680 3251 3146 2332 2694 4884 3671 1669 
4748 2604 1894 3033 512 3148 3501 3603 3667 
1551 2166 1563 403 2451 482 3434 1055 1767 
897 4413 5650 747 6003 43 5063 3642 3022 
3473 5976 150 5761 1959 3675 1152 3496 465 
2671 5668 490 5557 4591 1768 3567 4631 3724 
4889 5691 1265 1676 3438 854 1090 3416 3806 
4994 3685 5491 3537 3105 5525 704 40 2122 
5574 3592 4714 5030 4405 2322 3785 4078 323 
5805 1321 451 3815 5416 3872 827 590 546 
4005 2104 1104 1211 3878 5715 379 3163 491 
1610 5421 4430 3943 968 3207 3023 2460 3560 
2730 2865 2947 2051 5406 4708 4230 4022 4080 
4269 5911 5440 4943 3223 5983 3049 5314 4519 
4532 2356 2907 5351 995 3753 1028 1428 2280 
4105 1412 407 779 5665 1443 1889 3610 1574 
3605 4762 90 4427 2858 5007 1042 5803 5112 
802 1753 1543 3042 4534 4222 1075 5869 445 
4454 254 284 5366 2809 5385 5233 1128 359 
2528 1645 5497 1914 2861 3400 1193 5699 806 
2957 2888 5682 2832 5231 5876 2039 607 2146 
2867 5135 4053 1765 4034 2521 4452 4831 4003 
4878 2129 4789 3869 5894 3226 4211 145 2226 
5570 2352 3267 6042 1858 1687 1497 5814 4763 
2728 3126 401 3489 3574 4264 940 2115 5982 
1021 1161 3533 3217 4987 4806 2511 3211 1494 
80 3362 5632 1389 3427 473 3966 1429 5550 
1972 1748 2110 4042 4700 1384 1480 1552 430 
1 384 1370 3405 2452 1662 213 1149 2477 
3514 4962 258 2994 2949 4743 5971 3397 4284 
2029 2691 5468 4666 5809 435 5308 1622 1395 
334 3790 3040 841 5489 1778 1293 3956 1769 
1051 5192 2529 5466 4569 2827 5249 946 1561 
2824 3389 2634 4176 2973 5573 5810 3313 4692 
4234 4169 2472 41 1182 2704 5662 2844 531 
3274 2004 5113 1650 1632 16 4653 5245 551 
5728 2431 3124 319 2588 6060 1527 5051 3314 
3915 584 3693 39 5054 308 5628 2434 4209 
1355 5524 5581 4536 5654 347 5750 5813 1313 
1061 2749 4858 4302 140 3856 3858 4893 1847 
2150 1548 2986 192 3881 5459 2390 573 4438 
184 2155 337 2785 1283 1804 1435 4688 890 
5900 5056 633 4663 1135 623 3262 5751 5472 
3550 903 1503 4333 523 5835 1986 1570 1024 
5427 1072 4527 1979 3776 2920 3449 4136 4129 
5196 4751 436 2049 4570 5769 3399 2298 4860 
5941 1088 2531 1630 5680 5285 5988 2278 3175 
351 6022 5590 4808 4421 1581 314 15 1897 
156 870 4052 17 4330 1923 1966 1740 1910 
1385 916 3938 307 3674 3653 2968 2724 1159 
2229 1898 3383 1089 2812 2849 5189 348 5210 
5402 2054 4435 849 1192 3559 2125 907 5517 
1887 3324 3772 4651 2775 2432 483 4604 2438 
5017 4011 865 2936 4654 466 3549 4223 3043 
4864 934 180 2807 3811 3382 3216 3082 3008 
378 5667 3541 5240 1483 1366 4336 4352 2905 
3195 3035 5756 1006 5794 6064 4524 5146 3952 
5641 2628 3088 364 4951 5717 1388 1199 5732 
1759 3654 2721 1222 2845 174 1647 298 5376 
1806 2138 1087 5202 2433 4173 3711 1665 2556 
5436 4017 2318 5353 3979 2589 5303 6035 3197 
1333 4047 2246 6069 5915 4385 3554 3630 1504 
557 332 5708 2725 327 5154 3808 4607 4885 
4422 373 2919 1903 2224 1886 3228 5105 4941 
3182 4501 4882 5618 1587 5221 5010 1741 2466 
1621 2946 171 5435 3135 3191 3704 5064 3904 
2026 1013 2310 2426 160 3777 1049 2126 5161 
4127 56 828 953 4738 3534 3780 5826 1106 
5429 3921 4749 1899 1506 4033 2349 10 3748 
2530 2625 1470 3516 3300 4355 2427 2557 1514 
3242 1224 223 5603 4777 2736 4341 2789 417 
568 2854 5214 2673 3594 3822 1010 4457 4120 
1404 2514 3810 5926 1251 1560 1302 3435 296 
3669 1967 1059 440 1546 2187 1930 1515 170 
2223 4820 526 4686 4043 5369 2315 3000 2047 
4164 3578 560 2087 1445 1000 3914 2116 1300 
3309 4449 2192 1275 2665 5865 240 1148 4068 
943 741 3709 5656 5906 5090 216 5312 2508 
2260 1364 3044 3099 3125 1751 4675 2656 5657 
1312 1792 5251 3596 3241 5845 3017 3664 2196 
3600 2674 2723 3570 1890 989 624 3476 3591 
858 1678 3110 4830 5360 4322 477 1773 4008 
97 5005 1928 5666 5198 4929 5908 3358 1356 
2790 3993 3750 2942 4707 3491 4228 948 1126 
622 898 713 4191 6001 1826 2111 4331 5236 
5812 2499 6024 1702 5260 1730 2417 4324 5532 
954 3530 4335 3002 5818 3678 4016 2194 5519 
4711 494 5952 5598 1675 1371 5956 5762 2053 
3799 352 1229 1197 1367 3390 3396 3623 4345 
5085 4538 4904 3556 1083 840 925 5965 955 
5295 3696 96 1141 4031 2255 1278 5958 376 
4953 3590 5831 2618 3573 1462 723 3111 2662 
3192 960 5209 3345 2450 4926 880 3446 5157 
2484 2651 453 625 4551 2436 1547 268 3847 
2227 4205 2242 1201 3989 3899 2503 1169 5407 
508 3757 3926 288 3843 5199 5514 4681 5405 
3851 5361 2455 3619 3021 24 5564 3535 3701 
2021 2972 4249 166 2316 6008 23 4879 3463 
4285 1316 3565 18 3332 4881 2806 673 3024 
4151 680 2465 2817 1486 759 4217 998 2064 
1267 4986 3045 5624 2751 3066 5904 4192 3546 
2389 5115 103 3290 615 1363 2454 4433 2279 
4523 1510 2416 3470 5648 3335 1217 653 1386 
3595 4852 3855 2305 1526 5647 3637 3826 3444 
2290 4092 3505 4099 1454 5470 2239 5126 5918 
5757 1002 2154 2336 1912 19 5967 2612 5420 
2850 5377 1716 5325 404 5392 5484 5578 2930 
655 2881 3173 2598 3622 1579 3072 2249 5442 
195 1905 2085 1850 5098 2951 66 3563 5300 
1698 2955 4132 5340 3411 1085 3647 5321 191 
3907 2206 421 2299 5924 4981 5446 4097 4196 
2769 3655 321 4125 1917 977 4640 2786 5181 
1253 2263 4774 3643 4448 429 126 2552 276 
1761 5844 419 2211 499 5502 2852 4289 801 
1557 5412 1845 31 5235 3057 3796 4623 2760 
2222 4619 1589 1954 2060 5201 4453 5921 1711 
1488 4472 3770 641 141 237 1635 3331 4383 
2653 1361 878 3247 1603 4388 2045 4600 4301 
1473 5943 3350 2474 930 2445 2754 4731 1334 
5939 2333 3166 5675 5629 2933 3879 2203 1468 
5640 2965 6070 3902 3085 2802 5825 5218 5197 
5747 4109 5284 3841 5216 4804 4850 4146 3364 
301 4597 3951 754 4337 1989 2303 5248 6038 
847 3741 4086 2032 6029 1916 5374 1279 257 
4424 5748 169 3244 1207 5457 4645 2577 4386 
3703 3067 2576 4242 4696 2777 5516 4834 242 
1857 2670 2269 2735 4787 285 5342 4859 5065 
484 4923 3264 3874 5522 2342 5589 4083 212 
3866 1507 3213 589 255 5687 1931 7 3972 
5907 5817 881 187 235 30 6063 5168 399 
2759 2688 4445 2666 2512 5891 3176 2605 2803 
249 5800 4933 4577 1720 54 1535 5467 4321 
2377 4478 1115 1155 2324 4655 2709 5942 5081 
2646 4723 3865 3038 2348 5008 3953 432 3012 
4578 367 2497 5475 5816 4547 732 5518 4253 
4639 1471 4347 2748 1250 2705 3102 2383 5966 
6025 1170 2737 5758 4094 4417 5568 696 3371 
3695 1691 4029 5055 3036 5872 3053 529 5731 
5139 3415 3892 5100 84 4513 4625 4212 2174 
1198 259 4358 5560 5546 1246 5344 2938 4036 
2498 136 67 5058 65 5479 1290 2851 1853 
3160 93 2351 4822 5742 1438 1597 1749 1770 
4369 3199 767 4759 3051 626 5637 4754 6030 
3222 391 4857 366 4642 5187 3092 650 3857 
2153 2256 5384 2963 4516 692 2381 4444 2276 
2171 2142 2647 585 5331 4154 4722 2961 4221 
1498 1926 3950 5305 273 5096 931 5729 3555 
4329 3873 1750 1774 1015 5530 2720 4778 3465 
1815 1534 3349 5016 5695 689 4320 4924 1200 
320 1714 4089 4252 2448 1811 5365 3816 4178 
5133 4545 1697 2106 4368 1592 2997 3498 3271 
2423 1440 3821 1790 4465 6020 2507 5901 5220 
2218 443 5884 5153 5077 456 677 3888 3083 
1117 274 1841 1924 4287 5992 4920 5787 2527 
318 1032 1269 5101 2031 5313 163 1320 3652 
1403 1884 2727 3618 5883 3359 1073 4313 346 
4599 5302 3670 817 2711 5859 1146 4725 1046 
1904 524 1839 5720 5679 2898 5368 77 4152 
1008 107 1067 690 5345 4895 475 3284 1392 
5993 3129 4563 4088 1129 4990 2168 1901 1631 
1799 2073 733 1623 5165 5875 6044 2409 5286 
913 1566 4163 3287 4363 5078 2975 5097 3202 
2583 2943 1036 3823 3151 447 620 1783 1112 
2642 2622 4817 4396 4826 5138 73 3412 4638 
1809 4019 1442 752 3564 1613 834 2600 2950 
4971 4458 6056 3919 2403 5267 5174 4970 5179 
5177 1481 4354 4160 3614 2764 2035 810 1103 
2502 1205 4771 1485 5862 2425 416 3120 423 
1805 4399 3165 277 2386 983 3579 753 5261 
5847 997 4076 2752 1531 2387 6051 1338 5337 
2002 469 2253 4065 4575 3692 4241 3569 5444 
1381 2176 5613 2068 3820 1856 4233 671 2710 
3361 5408 4533 5411 3422 3699 2479 1336 2273 
2631 5910 4197 3880 4669 700 5013 3584 2102 
4416 2323 2428 2878 266 2027 181 2072 3132 
740 1311 4785 3339 5768 744 1865 3521 3797 
5832 4753 4150 5584 5506 4411 3792 527 2204 
485 409 3771 3552 3121 3347 3209 3601 5147 
2609 602 2981 3097 4095 3625 4828 4357 386 
2144 5986 4226 4148 4975 597 4908 4378 4015 
1935 3245 1287 750 2573 1788 342 3485 5823 
4796 635 1755 629 106 3477 2615 341 1637 
5273 4921 1136 2449 1708 1041 382 1173 3421 
130 888 768 3392 1567 3337 420 5737 1449 
2308 4775 1640 2741 1209 3336 4032 579 783 
3003 659 2366 5985 2394 4058 1241 3738 227 
168 395 5323 265 705 3764 5644 4942 3183 
5792 464 3901 1463 5896 1289 1864 1461 76 
4799 1686 371 698 4989 5399 5426 2093 2473 
4466 6050 2794 2923 5540 5934 5607 1460 5677 
1536 1817 701 2148 101 3607 3179 2587 3103 
1034 2107 2066 3343 4972 2131 966 5453 835 
3266 2892 2808 5871 3784 408 2321 2177 3203 
3641 1843 1823 402 969 3059 4393 383 3221 
2025 4119 5225 2193 3005 2267 325 4629 5948 
3935 4592 1427 5162 5893 2114 6041 5606 5616 
813 4680 3258 2783 2847 2927 2314 4303 2572 
3326 1709 2712 2391 229 2494 1673 3305 2368 
4564 2632 6007 4259 5839 1517 5713 2713 5968 
2393 2244 312 1050 393 225 2183 4620 208 
688 13 5473 1436 1707 4965 3450 3296 5888 
455 5414 3381 6006 2611 343 2729 1614 616 
3850 1398 4955 4135 5434 697 1591 3077 809 
1988 4521 2302 4353 1014 3010 3310 2871 2929 
3206 814 1991 4602 4397 1719 1785 5696 608 
628 4603 3597 3414 4935 2165 4812 1218 2820 
4225 5899 2860 5367 2766 2734 4323 1584 2640 
1868 763 1947 4627 2375 1852 338 4392 2537 
5370 5072 1513 3269 231 3065 4215 4892 1982 
2988 2170 3074 2191 135 5173 3593 1654 4298 
5553 1227 4956 4922 3788 5903 4874 2682 5746 
3006 1431 815 4021 3698 3719 5999 1590 331 
3494 575 552 3248 3282 3277 5580 1004 634 
5827 1459 945 5237 3835 3689 3084 4489 4839 
5962 444 22 1167 5244 4542 1882 5158 4071 
4741 3334 3791 5335 1971 3988 1184 5250 5208 
5025 4807 4070 1700 3834 760 2440 2828 2538 
1194 2453 3752 1554 2373 1432 3413 3497 1113 
278 1693 495 981 4736 1816 932 3645 4204 
3795 4159 764 1226 194 5726 3503 678 2370 
3112 4742 5931 5108 3705 1490 1379 1739 1735 
1501 2765 2083 2667 1620 869 4186 3668 1276 
3091 640 4673 4535 3403 1127 1869 2407 2337 
2633 4646 4272 5612 1474 2097 3717 2982 3636 
1231 4161 3891 5744 492 1243 1851 837 5866 
1273 1995 3509 27 3612 1396 1043 3976 5185 
5885 1469 4901 1183 2525 5106 3920 2510 5515 
1555 5951 2708 5215 79 1372 6043 4795 3224 
4474 540 5718 4271 956 3778 2990 5889 583 
5238 4566 2992 4871 5735 2240 1181 5099 4310 
4694 5499 1936 3061 5670 1120 1541 530 6009 
868 3236 415 3482 4614 2135 679 5103 1549 
570 5045 4549 1188 2277 668 3101 1795 1260 
4898 5919 3299 4815 1569 3122 5070 4077 1328 
5674 2008 2739 5252 5880 1933 2931 353 5293 
887 92 4384 200 3781 1467 1492 4827 986 
1439 4235 5125 4023 2063 4580 1919 1391 2429 
438 5795 3786 4114 1003 577 2488 2023 5334 
2447 2128 3377 2781 4968 3876 2778 2396 5857 
4842 4937 2247 3069 1040 571 2476 3697 5702 
1219 1139 1310 1056 4060 2701 2685 2013 68 
5671 2327 2976 291 5062 519 3620 3571 1064 
2886 4677 1634 2593 1350 5630 4238 4947 5023 
5298 971 1835 2989 1077 5635 2098 2652 3611 
2490 1600 1606 5765 5482 5597 4979 2641 3930 
4446 5868 2627 1399 618 4849 2903 4477 197 
5274 1171 4312 941 3961 1048 5533 3837 1299 
2237 1254 4648 3999 1612 317 5049 2084 1351 
5445 670 38 5358 1426 1624 5561 5771 1176 
950 1221 3189 2019 4229 2675 717 205 3734 
5493 794 3171 3260 3385 5595 51 4931 1353 
5664 2058 2036 3965 2050 3155 5232 4370 4198 
5073 3376 262 252 377 3684 3200 4467 2307 
3958 1616 511 1096 5462 12 2006 5997 3240 
4007 1097 2173 3128 4950 4840 72 4618 4594 
5684 3934 1661 1390 1913 5050 4983 1150 3159 
825 4568 728 3898 3439 2099 4995 4090 3831 
1733 3716 4855 2823 5118 2257 3680 726 4057 
1728 2062 613 4380 2648 2287 3459 2896 4511 
3852 974 5770 877 2330 1069 2515 3875 2439 
2181 5849 261 2756 3259 4903 2034 5957 5091 
3028 6058 5262 5092 1421 5069 2838 4108 654 
2603 5380 4185 5587 5853 642 3488 2156 2681 
4612 4459 6053 75 3180 1609 233 1465 500 
71 5932 2519 1854 3395 3261 1408 1831 2623 
5928 2560 522 5639 5175 1836 1405 1164 2149 
973 1187 539 4255 4902 5539 3348 5725 6048 
3308 2385 1330 992 3913 2210 2692 3543 4401 
5856 3380 605 918 5734 6012 1308 2733 793 
3542 4959 3804 158 3833 3971 2940 3558 5441 
5121 1434 3957 2388 9 3408 5409 3763 536 
3384 1124 4244 496 1793 2405 5387 2250 694 
4557 3568 996 5582 4540 2658 2089 4769 5297 
4966 5020 286 2702 4463 4724 2134 3080 5152 
1883 1337 1245 1945 2687 1143 4932 5892 718 
5960 4657 6065 1956 1906 1523 3682 5512 4710 
3404 4010 5608 4558 4093 3462 3170 2659 4802 
3317 5143 3064 4900 3895 2912 1829 3448 230 
1455 1689 4278 5542 2024 1472 4398 3827 3631 
3511 2993 2378 4451 1990 4409 4128 4190 4297 
1625 1734 6019 994 5936 3761 785 5727 3694 
2563 685 3523 2092 4844 2534 1846 1262 120 
4818 2117 4798 1345 2169 2030 5003 5840 3073 
2112 569 2363 1594 5638 5011 243 2482 5130 
3803 2361 4703 3270 2274 4124 4561 4567 4760 
91 5655 5811 3388 3394 4853 2245 344 2758 
5838 5575 4328 4134 792 855 3995 3304 25 
5935 179 2649 5095 26 743 553 5877 1738 
5569 3469 2056 656 1105 2564 226 4041 4219 
5995 1797 1573 5852 2699 263 1934 5583 1942 
62 3442 5701 859 2599 2657 4630 3039 2882 
2005 1297 1599 611 3164 4490 300 3354 2380 
1062 2798 1794 256 2761 1628 3683 1232 3457 
4462 5413 4721 32 5124 1261 5851 3963 5615 
4024 4039 5714 5636 172 3366 2082 2680 5191 
247 5807 4934 411 2862 1712 4425 4683 4020 
2917 4295 3970 2184 2719 3417 5634 2585 720 
892 3319 5694 3832 4991 5172 5914 311 1987 
770 2793 498 3019 182 3510 2270 178 5404 
1808 2158 4961 2996 3710 1326 3475 1965 2890 
2501 1451 283 4801 3871 745 3883 2014 1937 
6016 921 1618 3138 4260 4406 3518 3838 4565 
4283 3732 2522 86 5730 1418 5709 5643 4868 
1466 173 2541 4967 1873 3212 860 3756 2074 
936 4381 1425 3137 5304 5916 4317 5418 1099 
3 2109 218 3825 5549 3517 1727 369 715 
581 729 1652 1892 1941 1578 3809 2285 4326 
5001 3027 935 2714 5801 2339 6005 682 1604 
4179 1239 762 478 1186 3839 69 21 2880 
1754 829 782 3052 1633 1162 424 281 413 
202 5039 513 2347 1437 5970 4772 4486 2879 
4805 1484 2578 185 1786 3225 675 3969 2080 
3386 2331 4079 3108 3162 5290 3765 1980 4170 
2877 1349 5722 5060 3868 1420 1038 5652 1264 
234 5802 3991 5774 1118 2836 1411 788 3283 
993 5796 3109 5848 467 497 3997 1619 5476 
959 3829 2345 2296 5987 1732 3188 749 3204 
4906 2145 6034 5556 5890 60 2261 2188 4662 
919 2568 4497 1401 3775 2461 1423 2190 5074 
2842 2787 1983 4200 5534 3800 2172 2722 2459 
1528 2703 2003 2230 1611 3048 1717 2463 5837 
807 5241 1787 3407 5798 1168 2952 3863 2964 
2335 5338 4717 3360 3429 2679 735 1814 4224 
5760 2360 5350 287 2441 541 5779 2216 757 
4890 1140 2909 5538 1519 4938 4585 4121 87 
2069 4051 2791 3944 460 1039 2616 4746 1294 
6040 3807 1537 4528 370 576 5464 4960 2822 
3967 360 5167 5242 5646 3849 3690 3706 4757 
3762 1862 2382 1973 1012 4939 4768 2550 4391 
3007 661 1722 1658 5458 3536 3130 3328 5156 
4059 691 1202 1692 2435 2686 2205 1238 5398 
190 3639 5938 766 3897 2690 3276 1900 1375 
889 5171 2101 5339 5315 1489 2939 2999 4914 
984 621 2055 3702 3070 1981 5188 580 818 
1352 431 4702 922 4492 198 1564 2137 3307 
2518 3658 4691 1615 2300 2509 775 2505 2700 
3168 538 978 6052 1319 3522 1125 418 5678 
4343 6011 2524 784 4984 1111 3848 4756 3467 
4429 2189 4168 1376 1763 3425 4634 3312 439 
857 693 4113 506 5898 2364 2545 891 4617 
5281 4747 4782 5601 1866 3986 2985 2359 4193 
4814 5228 1132 3922 5753 3325 2395 5207 5565 
3933 3150 4555 1288 4718 5109 4112 800 1784 
3293 5107 630 1791 3056 2127 5234 3981 2037 
4102 100 1025 2954 1929 1533 129 5585 3805 
520 2916 2561 595 5461 3990 1475 4464 2540 
758 3320 5912 1020 4218 4945 4579 246 2471 
137 5088 1848 5536 4199 3733 4180 4637 142 
211 2960 3662 5346 260 1813 4261 2284 4713 
4126 3656 5897 4541 3167 4339 3063 1977 1996 
112 3208 1304 5588 3932 2225 5850 152 2458 