# vtk DataFile Version 4.2
Generated by LIGGGHTS
ASCII
DATASET POLYDATA
POINTS 6 float
0.0208936 0.000300791 0.0147656 0.00830917 0.0153762 0.0884943 -0.0223643 0.00529154 0.103181 
0.0049735 0.0217682 0.112796 -0.0231761 0.000331228 0.161035 -0.0109269 0.00110882 0.179047 

VERTICES 6 12
1 0 
1 1 
1 2 
1 3 
1 4 
1 5 

POINT_DATA 6
FIELD FieldData 7
id 1 6 int
5653 5289 4217 1132 4280 5851 
type 1 6 int
1 1 1 1 1 1 
i 3 6 int
0 0 0 0 0 0 0 0 0 
0 0 0 0 0 0 0 0 0 

v 3 6 double
0.96274420729 6.8819832426 -0.18611339108 -5.1844200045 0.85556104176 -0.40782925591 1.0113696721e-12 6.0788194837e-13 1.0071673621 
2.4318583689e-12 -5.7748970191e-14 -5.8672312286 7.9222463617e-13 -3.3380628015e-14 -0.84528550357 7.5491938723 0.68955148506 4.6113985199 

f 3 6 double
0 0 -0.00082184063818 0 0 -0.00082184063818 -1.6513013179e-11 3.19460014e-11 -0.00082184063818 
-2.444267011e-11 -6.2328808781e-11 -0.00082184065129 -3.0041746868e-11 2.2737367544e-13 -0.00082184063818 0 0 -0.00082184063818 

radius 1 6 double
0.002 0.002 0.002 0.002 0.002 0.002 
omega 3 6 double
4.8260045345 2.8058411475 3.7611121925e-17 3.6869665536 -5.3568747991 -1.643709515e-15 2.3926211296e-13 1.4750520236e-12 -8300.7671994 
-2.0990156411e-14 7.2593513495e-15 -6735.5842761 4.7997489362e-319 -7.1975483286e-320 113.84590446 -48.594293014 2.571896223 2.7825687635 

