# vtk DataFile Version 4.2
Generated by LIGGGHTS
ASCII
DATASET POLYDATA
POINTS 5 float
0.00524043 0.0181349 0.0674946 -0.0231761 0.000331228 0.0805832 -0.0194656 0.00647875 0.0687859 
0.0049735 0.0217682 0.0948878 -0.0223643 0.00529154 0.13876 
VERTICES 5 10
1 0 
1 1 
1 2 
1 3 
1 4 

POINT_DATA 5
FIELD FieldData 7
id 1 5 int
5289 4280 5653 1132 4217 
type 1 5 int
1 1 1 1 1 
i 3 5 int
0 0 0 0 0 0 0 0 0 
0 0 0 0 0 0 
v 3 5 double
-4.2376696545 1.1201272465 0.71349411798 5.5421312751e-13 -1.535748482e-14 1.4626237205 -1.3059719632 -2.4114645862 0.63999409141 
1.1206922412e-13 2.3235223863e-12 -6.8216990711 1.161915927e-12 -1.0375250068e-12 -0.56243263755 
f 3 5 double
0 0 -0.00082184063818 1.0132339412e-11 -4.2064129957e-12 -0.00082184063818 0 0 -0.00082184063818 
-3.4788172343e-11 6.1675109464e-12 -0.00082184063818 2.8563817978e-12 -3.9221959014e-11 -0.00082184063818 
radius 1 5 double
0.002 0.002 0.002 0.002 0.002 
omega 3 5 double
5.2507485448 5.6642101278 2.2238973278e-18 1.30126216e-12 1.2940402873e-12 113.84590446 1.9072149604 -1.7805751209 1.3256159453e-10 
-7.5031114346e-14 -3.1304131831e-15 -6733.994255 4.5498505326e-319 -1.3237500849e-319 -8300.7671993 
