# vtk DataFile Version 4.2
Generated by LIGGGHTS
ASCII
DATASET POLYDATA
POINTS 105 float
-0.00606086 -0.032483 0.0104974 -0.00359222 -0.0339735 0.0063593 -0.013481 -0.029546 0.00625218 
-0.0184331 -0.0248169 0.00659857 -0.0131484 -0.0214925 0.00611726 -0.0093016 -0.0229966 0.00598591 
-0.00687368 -0.0270708 0.00664327 0.00582634 -0.0288754 0.00719138 0.00861407 -0.0267777 0.0093329 
0.000233139 -0.0294529 0.00886542 0.00300207 -0.0213589 0.00599133 0.0105658 -0.0214275 0.00611196 
0.0132612 -0.0272281 0.00619485 0.0192711 -0.0205612 0.00673911 0.021547 -0.0246772 0.00643294 
-0.0309888 -0.0146298 0.0060592 -0.0199713 -0.018376 0.00650626 -0.0261497 -0.0192824 0.00620564 
-0.0228082 -0.014234 0.0063134 -0.0182462 -0.0147049 0.00615042 -0.0148198 -0.011493 0.0061643 
-0.00954572 -0.0100417 0.00603813 -0.00351259 -0.0183583 0.0060011 -0.00884136 -0.0191417 0.00701589 
-0.000707244 -0.0140018 0.00629353 0.000273753 -0.00952354 0.00704289 0.00544489 -0.0179432 0.00613361 
0.00977347 -0.0128356 0.00692073 0.0051296 -0.0109333 0.006266 0.0142255 -0.00734342 0.00971198 
0.0130612 -0.0167775 0.00647466 0.0175874 -0.0161185 0.00630625 0.0296791 -0.0177677 0.00777181 
-0.0338431 -0.00236907 0.00720284 -0.0332408 -0.00796593 0.0066081 -0.0293077 -0.00343594 0.00652815 
-0.0208363 -0.00765271 0.00640011 -0.0219391 -0.00295891 0.00664043 -0.0145958 -0.00685926 0.00616603 
-0.00902541 -0.00531398 0.00697001 -0.00140459 -0.00126359 0.00718328 0.00198075 -0.00506402 0.00604275 
0.00723572 -0.00414266 0.00811116 0.0103152 -0.00706427 0.00639098 0.0168715 -0.00809869 0.00624786 
0.0149725 -0.00262981 0.00770207 0.0297837 -0.00459723 0.00644753 0.0221857 -0.00072954 0.00605162 
0.0339959 -0.00433771 0.00703722 -0.0332572 0.00369727 0.00595015 -0.0261214 -0.000676838 0.00665404 
-0.0283842 0.00451092 0.00639157 -0.023303 0.00538248 0.00614132 -0.0213582 0.00187019 0.00825354 
-0.0123902 0.00402809 0.007033 -0.0156821 0.00945028 0.00616067 -0.019317 0.00834303 0.0076359 
-0.00687013 0.00539554 0.00617625 -0.0023247 0.0060584 0.00605559 0.00579746 0.00171666 0.00715181 
0.0201095 0.0103567 0.0138504 0.025454 0.00612705 0.0111254 0.0291213 0.00387461 0.00894643 
0.0253507 0.00199592 0.00916736 0.0276677 0.00756409 0.00631106 0.0225965 0.00745601 0.0068104 
0.032045 0.00341106 0.00617366 -0.032282 0.0105601 0.0062716 -0.0273473 0.0119464 0.0064457 
-0.0222409 0.0111743 0.00693701 -0.0247681 0.0175298 0.00611806 -0.0150663 0.0144175 0.00624037 
-0.0117429 0.0181326 0.00593748 -0.00322915 0.0105178 0.00605724 -0.0064509 0.0205434 0.012559 
-0.0098267 0.0126927 0.00893711 -0.00599696 0.0190188 0.00648875 -0.00296179 0.0157783 0.00759443 
0.00368203 0.0117447 0.00699241 0.00146713 0.0180538 0.00757999 0.0056385 0.0177148 0.00626747 
0.0170936 0.0120438 0.00751345 0.0180164 0.0158682 0.00681539 0.0269416 0.0108152 0.0135279 
0.0309807 0.0104022 0.0100341 0.0311321 0.00971368 0.00600205 -0.0206432 0.0274912 0.00651937 
-0.0164804 0.0226696 0.0088563 -0.0130206 0.0274418 0.00625383 -0.00886904 0.0267259 0.0107252 
-0.00612544 0.0239005 0.00696846 -0.00146284 0.0232182 0.00634932 -0.00816431 0.0292618 0.00603074 
-0.0044473 0.029002 0.00772359 0.00223034 0.0280796 0.00601391 0.00518478 0.024663 0.00663524 
0.0185635 0.0205687 0.00812054 0.0114878 0.0256948 0.00632502 0.0173272 0.0240767 0.00606821 
0.0173565 0.0289517 0.00698953 0.0124105 0.0302833 0.006327 0.0233964 0.0232637 0.00783666 
-0.0167748 0.0292232 0.00604403 -0.00407997 0.0329572 0.00658534 0.00114848 0.0332316 0.00606085 

VERTICES 105 210
1 0 
1 1 
1 2 
1 3 
1 4 
1 5 
1 6 
1 7 
1 8 
1 9 
1 10 
1 11 
1 12 
1 13 
1 14 
1 15 
1 16 
1 17 
1 18 
1 19 
1 20 
1 21 
1 22 
1 23 
1 24 
1 25 
1 26 
1 27 
1 28 
1 29 
1 30 
1 31 
1 32 
1 33 
1 34 
1 35 
1 36 
1 37 
1 38 
1 39 
1 40 
1 41 
1 42 
1 43 
1 44 
1 45 
1 46 
1 47 
1 48 
1 49 
1 50 
1 51 
1 52 
1 53 
1 54 
1 55 
1 56 
1 57 
1 58 
1 59 
1 60 
1 61 
1 62 
1 63 
1 64 
1 65 
1 66 
1 67 
1 68 
1 69 
1 70 
1 71 
1 72 
1 73 
1 74 
1 75 
1 76 
1 77 
1 78 
1 79 
1 80 
1 81 
1 82 
1 83 
1 84 
1 85 
1 86 
1 87 
1 88 
1 89 
1 90 
1 91 
1 92 
1 93 
1 94 
1 95 
1 96 
1 97 
1 98 
1 99 
1 100 
1 101 
1 102 
1 103 
1 104 

POINT_DATA 105
FIELD FieldData 7
id 1 105 int
5464 5392 5072 4883 5631 4382 5372 5874 5532 
5949 3500 5396 5774 3145 5207 5550 5516 5976 
5568 5137 3308 5553 5443 5562 5375 5506 4400 
5787 5801 4987 5727 5379 5744 3795 5446 5065 
5557 5745 5085 5168 5857 5342 5236 5945 5097 
5861 5030 5691 5180 5635 5368 5428 4913 5648 
5793 5779 5870 5708 5941 5197 5664 5950 5966 
5902 5203 5910 5724 5840 5626 5663 5802 5807 
5311 5084 4936 5013 4715 5639 5209 5586 5347 
5973 5555 5810 5845 5875 5297 4947 5595 4701 
5862 5226 5544 5811 5892 5756 5280 5925 3657 
5968 5849 4745 5169 4895 5628 
type 1 105 int
1 1 1 1 1 1 1 1 1 
1 1 1 1 1 1 1 1 1 
1 1 1 1 1 1 1 1 1 
1 1 1 1 1 1 1 1 1 
1 1 1 1 1 1 1 1 1 
1 1 1 1 1 1 1 1 1 
1 1 1 1 1 1 1 1 1 
1 1 1 1 1 1 1 1 1 
1 1 1 1 1 1 1 1 1 
1 1 1 1 1 1 1 1 1 
1 1 1 1 1 1 1 1 1 
1 1 1 1 1 1 
i 3 105 int
0 0 0 0 0 0 0 0 0 
0 0 0 0 0 0 0 0 0 
0 0 0 0 0 0 0 0 0 
0 0 0 0 0 0 0 0 0 
0 0 0 0 0 0 0 0 0 
0 0 0 0 0 0 0 0 0 
0 0 0 0 0 0 0 0 0 
0 0 0 0 0 0 0 0 0 
0 0 0 0 0 0 0 0 0 
0 0 0 0 0 0 0 0 0 
0 0 0 0 0 0 0 0 0 
0 0 0 0 0 0 0 0 0 
0 0 0 0 0 0 0 0 0 
0 0 0 0 0 0 0 0 0 
0 0 0 0 0 0 0 0 0 
0 0 0 0 0 0 0 0 0 
0 0 0 0 0 0 0 0 0 
0 0 0 0 0 0 0 0 0 
0 0 0 0 0 0 0 0 0 
0 0 0 0 0 0 0 0 0 
0 0 0 0 0 0 0 0 0 
0 0 0 0 0 0 0 0 0 
0 0 0 0 0 0 0 0 0 
0 0 0 0 0 0 0 0 0 
0 0 0 0 0 0 0 0 0 
0 0 0 0 0 0 0 0 0 
0 0 0 0 0 0 0 0 0 
0 0 0 0 0 0 0 0 0 
0 0 0 0 0 0 0 0 0 
0 0 0 0 0 0 0 0 0 
0 0 0 0 0 0 0 0 0 
0 0 0 0 0 0 0 0 0 
0 0 0 0 0 0 0 0 0 
0 0 0 0 0 0 0 0 0 
0 0 0 0 0 0 0 0 0 

v 3 105 double
0.036236557389 0.043583411867 0.16135206784 -0.039917228219 0.23933635463 0.14498105749 -0.028476830102 -0.057232784726 0.012556949313 
0.032808213465 0.016063913756 -0.093079727415 -0.026020480786 -0.12225353295 -0.0045489259022 0.053409058164 -0.064298586152 -0.026639392714 
0.012869334207 -0.055635161681 -0.10261787656 -0.072484168387 -0.10695490961 0.023959037655 0.08405500587 -0.032779675384 0.0065310307109 
-0.040366627801 -0.14834684183 -0.2411867139 -0.045719451356 -0.13495316893 0.030870702357 0.028708810338 0.17123215622 -0.0077607456331 
0.10400185173 -0.031420961088 0.0008476824781 0.063064824048 0.12425144691 0.16007522753 0.12513117878 -0.080149792212 0.041759876824 
-0.075176519491 -0.03074557756 -0.12760958112 0.072224519974 0.046686048662 -0.00078601973784 -0.076792898123 0.0080319920275 -0.16700039619 
-0.015589313709 0.1695143771 0.027297572899 0.0036730478919 0.069800029642 0.068274402086 -0.047343117629 0.039849239531 -0.059710228332 
0.093044217352 0.095036153151 -0.070512753721 -0.0074750743912 -0.04163139819 0.20578388305 0.069000449951 0.052352881337 0.023724626203 
0.10004719713 -0.014681016401 0.031809080298 0.11065548102 0.08843081804 -0.015095359257 -0.087415331845 -0.011826543005 0.074131749973 
0.01854667614 0.011714352261 0.041801644837 0.1081833597 -0.03426480488 -0.015558726473 0.22742160946 0.25813314703 0.08236762273 
0.06485341297 -0.044639740154 -0.1504014038 0.17693274919 0.065219364459 -0.17741500535 0.040151920437 0.087688542702 -0.095673609238 
0.084262858526 -0.050996402199 0.013771883011 -0.15909998684 -0.02553357626 0.24057536654 -0.021828011281 -0.14746581093 0.0041544449162 
0.15707736382 -0.1716797569 -0.087623705115 0.0024050064697 0.13549689751 0.075333795418 0.091458473125 -0.014064489663 0.10105861966 
0.14494024643 0.06161897877 0.051222236297 0.029395037254 -0.018062466772 0.13146744652 0.069884735137 0.00041079942094 0.089545965998 
0.094146896042 0.051341126025 -0.084676165769 -0.0062694170106 0.091406468693 -0.12205861214 0.21290952207 -0.029888799874 0.29887148667 
-0.11577707151 0.13878017302 0.049189479523 0.10842167998 -0.053769956168 -0.15413818489 -0.05820540956 -0.069769003083 0.011798797964 
0.024616088513 -0.038843971645 -0.047545015625 -0.038409218631 -0.030000207695 0.076909290427 0.073483807279 -0.082050939513 0.0087704887106 
-0.012897954883 -0.040423204477 -0.083833463345 -0.12152562849 0.030635812624 -0.0066914242241 0.0013139972684 0.14392970461 0.038640969984 
-0.00032248853862 -0.064005946154 0.055624386385 -0.018270144163 0.023998259976 0.056972991282 -0.072077042195 -0.13797700878 0.093235447592 
0.090495273765 -0.099975838626 -0.011236100142 -0.058527384904 -0.0017598505191 0.1217249657 -0.037216484939 0.041467880869 -0.020085567591 
0.054249110857 0.20957238183 0.4896244216 -0.011657844145 0.15606198514 -0.17288013348 0.045895793016 -0.019380897133 0.027566374925 
-0.042161568676 0.074487286077 0.14316478609 -0.12656262611 -0.12079026418 -0.068534162443 -0.15215636859 -0.16598401394 -0.031532682983 
0.0018348387613 -0.076309577595 -0.12890069377 0.0065067263376 0.068717823316 0.0042040307793 0.057835671504 -0.016598029128 -0.0010798919762 
0.058456118143 -0.18521543979 0.021006328613 -0.012490171943 0.011688019364 0.01919817746 -0.036095920688 -0.102759483 0.17182558558 
-0.0051027282192 -0.022478629971 0.027859796752 -0.0043451748906 0.022237310427 -0.049160093657 -0.018038327711 0.07058489878 0.064526561955 
-0.065211262426 0.025468476425 -0.061841736903 -0.099874341653 0.028389385459 0.025918246066 -0.088136117167 0.045851452408 0.10696862403 
0.20067258357 0.048825716458 0.054897894078 -0.18414171587 -0.11543147563 -0.13189265608 -0.050084262128 -0.15747932347 0.036825320834 
0.042616858776 0.043710535422 0.10852913537 -0.014689728294 0.053807313579 0.092164519817 0.080627426641 -0.037804389903 0.07571295994 
-0.24170762825 0.0038692890836 0.10729927091 -0.0082492053085 -0.10926195598 -0.064405352819 0.0400621992 0.046465902895 0.0054657494759 
-0.013673855796 -0.076268820509 0.0036558437479 -0.071939696054 -0.069282311501 0.032070663287 -0.040300205846 0.027357745592 -0.09750420011 
-0.03352703941 -0.10177106966 0.060672456551 -0.063706790268 -0.044794521536 0.028084040997 0.1060275371 0.034376097338 -0.15314628562 
-0.096731337289 -0.15467630554 0.00094447653459 0.012853112274 0.15802062972 0.029713290498 0.097553647002 -0.044397820877 -0.15304651871 
-0.042873211799 0.030469161445 -0.001681475501 -0.14321520499 -0.0022825890135 -0.1092933517 -0.00061806442753 0.036034345174 -0.042832708972 
-0.046425575511 0.015689819414 -0.24429861635 0.044819307994 0.1819856292 0.10062829302 0.048710171823 -0.0032262762506 -0.0062907282554 
-0.20762684842 -0.18398338086 -0.033204992197 -0.079856056013 0.023425309591 0.15697082215 -0.099226241967 0.049580818195 0.023926289861 

f 3 105 double
0 0 -0.00082184063818 0 0 -0.00082184063818 0 0 -0.00082184063818 
0 0 -0.00082184063818 0 0 -0.00082184063818 0 0 -0.00082184063818 
0 0 -0.00082184063818 0 0 -0.00082184063818 0 0 -0.00082184063818 
0 0 -0.00082184063818 0 0 -0.00082184063818 0 0 -0.00082184063818 
0 0 -0.00082184063818 0 0 -0.00082184063818 0 0 -0.00082184063818 
0 0 -0.00082184063818 0 0 -0.00082184063818 0 0 -0.00082184063818 
0 0 -0.00082184063818 0 0 -0.00082184063818 0 0 -0.00082184063818 
0 0 -0.00082184063818 0 0 -0.00082184063818 0 0 -0.00082184063818 
0 0 -0.00082184063818 0 0 -0.00082184063818 0 0 -0.00082184063818 
0 0 -0.00082184063818 0 0 -0.00082184063818 0 0 -0.00082184063818 
0 0 -0.00082184063818 0 0 -0.00082184063818 0 0 -0.00082184063818 
0 0 -0.00082184063818 0 0 -0.00082184063818 0 0 -0.00082184063818 
0 0 -0.00082184063818 0 0 -0.00082184063818 0 0 -0.00082184063818 
0 0 -0.00082184063818 0 0 -0.00082184063818 0 0 -0.00082184063818 
0 0 -0.00082184063818 0 0 -0.00082184063818 0 0 -0.00082184063818 
0 0 -0.00082184063818 0 0 -0.00082184063818 0 0 -0.00082184063818 
0 0 -0.00082184063818 0 0 -0.00082184063818 0 0 -0.00082184063818 
0 0 -0.00082184063818 0 0 -0.00082184063818 0 0 -0.00082184063818 
0 0 -0.00082184063818 0 0 -0.00082184063818 0 0 -0.00082184063818 
0 0 -0.00082184063818 0 0 -0.00082184063818 0 0 -0.00082184063818 
0 0 -0.00082184063818 0 0 -0.00082184063818 0 0 -0.00082184063818 
0 0 -0.00082184063818 0 0 -0.00082184063818 0 0 -0.00082184063818 
0 0 -0.00082184063818 0 0 -0.00082184063818 0 0 -0.00082184063818 
0 0 -0.00082184063818 0 0 -0.00082184063818 0 0 -0.00082184063818 
0 0 -0.00082184063818 0 0 -0.00082184063818 0 0 -0.00082184063818 
0 0 -0.00082184063818 0 0 -0.00082184063818 0 0 -0.00082184063818 
0 0 -0.00082184063818 0 0 -0.00082184063818 0 0 -0.00082184063818 
-0.046830912151 -0.1924458791 0.030910458526 0.046830912151 0.1924458791 -0.032554139802 0 0 -0.00082184063818 
0 0 -0.00082184063818 0 0 -0.00082184063818 0 0 -0.00082184063818 
0 0 -0.00082184063818 0 0 -0.00082184063818 0 0 -0.00082184063818 
0 0 -0.00082184063818 0 0 -0.00082184063818 0 0 -0.00082184063818 
0 0 -0.00082184063818 0 0 -0.00082184063818 0 0 -0.00082184063818 
0 0 -0.00082184063818 0 0 -0.00082184063818 0 0 -0.00082184063818 
0 0 -0.00082184063818 0 0 -0.00082184063818 0 0 -0.00082184063818 
0 0 -0.00082184063818 0 0 -0.00082184063818 0 0 -0.00082184063818 

radius 1 105 double
0.002 0.002 0.002 0.002 0.002 0.002 0.002 0.002 0.002 
0.002 0.002 0.002 0.002 0.002 0.002 0.002 0.002 0.002 
0.002 0.002 0.002 0.002 0.002 0.002 0.002 0.002 0.002 
0.002 0.002 0.002 0.002 0.002 0.002 0.002 0.002 0.002 
0.002 0.002 0.002 0.002 0.002 0.002 0.002 0.002 0.002 
0.002 0.002 0.002 0.002 0.002 0.002 0.002 0.002 0.002 
0.002 0.002 0.002 0.002 0.002 0.002 0.002 0.002 0.002 
0.002 0.002 0.002 0.002 0.002 0.002 0.002 0.002 0.002 
0.002 0.002 0.002 0.002 0.002 0.002 0.002 0.002 0.002 
0.002 0.002 0.002 0.002 0.002 0.002 0.002 0.002 0.002 
0.002 0.002 0.002 0.002 0.002 0.002 0.002 0.002 0.002 
0.002 0.002 0.002 0.002 0.002 0.002 
omega 3 105 double
0.0015317629199 -0.0014553080439 4.785483883 0.6595478743 5.0100344252 3.1163709168e-07 0.28256164269 0.27611228304 6.2658586256 
-18.023206827 5.5693046422 14.113399315 -10.082116976 -31.729616156 -21.749176446 3.817038511 -4.10518759 -25.212358745 
-9.9533654926e-23 -1.6328057754e-23 -4.2593521773 -19.399192312 33.465456401 8.656438244 -14.241763512 7.4171316993 -31.296155868 
-2.223629995 67.84026907 19.324937936 6.9263240538 -5.7901451405 31.300928234 14.371297651 -22.675850714 10.566457038 
0.0012307654489 0.00068319403972 3.4342972604 1.3000264933 0.31707348353 10.352362353 0.95900012052 0.8826648019 10.302300138 
-0.010081297767 0.0017582482766 1.097072736 -23.558240642 -14.376768298 3.9187713539 4.1042373832 -14.387672481 -45.685221917 
-6.787562798 -10.861664969 -14.01060856 2.4511207693 -29.389126973 -68.236957758 9.3099613666 -3.1965149345 13.05812872 
0.88003920134 -3.6530423079 11.043007299 5.7608059041 -4.9824728809 -4.269432927 5.3374619606 -15.168849904 12.578522746 
29.850234803 -22.502604507 -39.44828523 5.7985953077 -0.06798783882 4.3707850191 -0.29677072671 41.155343243 26.366081003 
-0.46963070314 -0.0070421623512 17.667517649 -1.3475137795e-10 1.6900512863e-09 -0.85639342746 -141.43235756 118.35544019 39.617148904 
6.042532318 34.004436981 50.673717042 -0.85149282467 -35.655934391 8.6275288715 2.161143591e-07 -4.0292888609e-07 -3.3907952253 
-1.0423211694 -0.13721678806 -3.1798910496e-05 9.3848742516 -12.397361784 51.614132346 0.40987496643 -1.2969769722 10.182079819 
-0.69111015966 0.11443688613 5.9939878679 -0.58553664181 -0.46359268247 6.014692781 -2.7489451585 -9.3011682372 28.753903149 
-5.9977238922 -19.757338038 28.700371957 -0.023387838393 0.034553731855 18.817552964 5.6545597627e-06 1.3993674256e-06 6.7377896818 
-3.0995357638 2.8990289756 34.434818982 -57.843677227 110.09739708 116.51106181 -29.839169624 11.132956085 -67.735793032 
-0.45140671278 0.51251005173 0.98849658573 0.001668914749 0.0030889073268 5.9958509402 0.075156788979 -0.98689788113 18.47459712 
-13.356262415 -7.4597575908 51.308695483 -3.0809611324 1.2182999582 15.527576402 17.82115148 11.739757225 -2.1616574986 
44.297827877 27.246184527 -17.900048022 -4.2190397624 -4.7984966331 36.000030816 2.8920667946 -4.3209101095 10.934539757 
14.21474513 9.9520736949 31.885816933 13.96961639 16.082333938 41.539719442 7.3858557746 -1.0755160168 2.9397595321 
5.1656709123 11.496101114 27.319672073 0.0012484761895 -0.00015059003815 6.1318833712 0.016482876397 0.13982114189 23.534103195 
0.00011187353687 -0.00013549244138 5.7424459288 5.1447844003 -1.2390694347 -31.56534067 -22.94263517 61.354698366 -34.853509293 
-4.7311278154 15.420775117 -33.581937486 52.225090652 -28.49989458 -5.5045609374 -0.9120499439 3.062502531 29.109799309 
2.5953889994 6.7930009807 15.314503458 -4.2512387714 0.77937609283 -38.586696304 9.3840268232e-06 -2.0425897546e-05 -5.9800589182 
3.1247243794 4.4385144654 -31.161642162 1.104951261 0.49264189013 -11.273177652 0.12082339884 -0.050863009032 4.69370402 
5.3346688288 -6.6504951732 7.0367390173 7.5045123513 1.4151568268 25.096295306 -2.4995696511 44.429355446 5.2373222766 
8.9853610791 19.391614261 38.889548505 -0.65845201332 17.124443203 3.758893838 0.99956903468 -2.2994109177 11.057524532 
-0.23829001224 -0.75392758541 16.432496139 -0.72650993617 -3.4374052389 -4.4982191196 -7.1493035966 -0.12637417305 22.037053845 
-35.304464733 8.6519942805 20.30677922 -30.420885863 9.0376112462 14.646753195 -0.40596215133 29.049003846 2.9415986451 
-47.374113706 -65.634647845 -17.170918426 3.8365553353 -59.23448193 -18.231310735 11.880447698 -12.699792656 54.657442555 
1.4118898167 0.92896202545 1.2036978012 -9.775630659 -31.19047266 33.135615961 -32.48983874 18.176992953 4.8638223929 
-22.453658426 8.2667594249 -53.692654693 11.439979026 -8.9429920259 -45.899331903 -39.732871066 -58.392723439 -26.762473938 
59.025462893 -21.985334839 -3.5558238351 15.826634749 6.2001820068 -29.107440755 5.1764500234 1.5005901333 -9.7390115277 
23.950055756 -19.996455489 13.987096635 -11.53883122 -6.3519882345 -52.187351329 -27.530357206 -1.096646638 -48.351718173 
28.199229632 7.2925379492 13.414863539 1.2513201298 -2.2158360137 -8.1373057042 0.26025413377 2.9702974607 15.24349183 
-24.085252225 -11.706558723 22.742886478 30.971657561 -1.9027251872 5.8082032649 -4.4752939774e-19 -1.6703367147e-17 -1.7346475586 

