# vtk DataFile Version 4.2
Generated by LIGGGHTS
ASCII
DATASET POLYDATA
POINTS 5997 float
-0.0122299 -0.0203598 0.012946 -0.0104418 -0.019376 0.0131773 -0.00497619 -0.0233003 0.0129617 
-0.00817246 -0.0194556 0.012769 -0.00625815 -0.0186084 0.0127701 0.00343395 -0.0232022 0.0125185 
0.00566537 -0.0219512 0.0127311 0.00364567 -0.0210986 0.0130259 0.000634014 -0.023561 0.0131809 
0.00855973 -0.0221404 0.0130398 -0.00669562 -0.0166174 0.0130883 -0.0045289 -0.0142115 0.0126364 
-0.00777741 -0.00977356 0.0131631 -0.0170387 -0.0166921 0.0169269 -0.0154837 -0.0178276 0.0134227 
-0.0137674 -0.0190918 0.0132568 -0.0120771 -0.0179924 0.0135582 -0.0100993 -0.0216324 0.0134961 
-0.0164664 -0.0171878 0.0150464 -0.0146077 -0.0188858 0.0151065 -0.0119153 -0.0206614 0.0151511 
-0.0117853 -0.0184466 0.0156412 -0.00985462 -0.0176948 0.015875 -0.0156539 -0.0181337 0.0166992 
-0.0132673 -0.0197504 0.0164084 -0.0113994 -0.0209623 0.0170649 -0.0116593 -0.017497 0.017427 
-0.0135873 -0.0175091 0.0165501 -0.00964714 -0.021152 0.0154628 -0.00987099 -0.0196171 0.0170333 
-0.016229 -0.017533 0.0185548 -0.0143891 -0.0190617 0.0179621 -0.012728 -0.0200606 0.0185773 
-0.0110332 -0.0189831 0.0186213 -0.0110715 -0.0211954 0.0191587 -0.00957285 -0.0199229 0.0197158 
-0.0115963 -0.0208989 0.0210751 -0.00919271 -0.0179553 0.0200731 -0.00950915 -0.0218642 0.0175009 
-0.00889213 -0.0193261 0.0149832 -0.00877069 -0.0183111 0.0181359 -0.00916896 -0.021961 0.0195204 
-0.00857152 -0.0173591 0.0142102 -8.65448e-05 -0.0206625 0.0139319 -0.00778946 -0.0223597 0.013653 
-0.00299025 -0.0208831 0.0135409 -0.00279232 -0.0236242 0.0137407 -0.00524275 -0.0205523 0.0137217 
-0.00603707 -0.0186078 0.015338 -0.00702468 -0.0206469 0.0147758 -0.00153623 -0.0217888 0.0147265 
-0.00425565 -0.0221224 0.0148176 -0.000867597 -0.0237376 0.0144901 -0.00613072 -0.0228864 0.0150711 
-0.0078286 -0.0182835 0.0163701 -0.00807326 -0.0223679 0.0158236 -0.00475516 -0.0201437 0.0157933 
-0.00253978 -0.0213705 0.0166195 -0.000413002 -0.0213746 0.0165253 -0.00265843 -0.0234532 0.0157588 
-0.000240809 -0.023895 0.016446 -0.00572991 -0.0229142 0.0171852 -0.00638181 -0.0170011 0.0174247 
-0.00656715 -0.0206818 0.0167771 -0.00564685 -0.0189315 0.0173065 -0.00145806 -0.0201024 0.0177332 
-0.00329774 -0.0235765 0.0176941 -0.00397245 -0.020236 0.0176579 -0.0046724 -0.023399 0.0191724 
-0.00398597 -0.0183108 0.0183617 -0.0025474 -0.0169336 0.0188932 -0.00755324 -0.0225891 0.0179767 
-0.00809512 -0.0202977 0.0181894 -0.000718229 -0.0184255 0.0185821 -0.00123369 -0.0239131 0.0182086 
-0.00283919 -0.0217115 0.0186307 -0.00248202 -0.0192887 0.0192538 -0.00568209 -0.0176568 0.0192734 
-0.00578921 -0.0207006 0.0187316 -0.000602337 -0.0200477 0.0198141 -0.000913093 -0.0221287 0.0200392 
-0.00266546 -0.0236771 0.0196768 -0.0067946 -0.0192652 0.0197068 -0.0065619 -0.0230308 0.019753 
-0.00398038 -0.0177443 0.0203298 -0.00741466 -0.0171571 0.0207412 -0.00206394 -0.0180786 0.0207902 
-0.00795913 -0.0205746 0.0208956 -0.00784172 -0.0225542 0.0212489 -0.00128209 -0.0239573 0.0211822 
0.00593802 -0.0175232 0.0132097 0.000161899 -0.0176068 0.0202146 0.00197972 -0.0169764 0.0133322 
0.008322 -0.0170906 0.0136182 0.00665959 -0.020093 0.013202 0.00358594 -0.0182366 0.0135291 
0.000276018 -0.0217528 0.018455 0.00174753 -0.0216439 0.0138111 0.00111301 -0.0224853 0.0155999 
0.00248494 -0.0236297 0.0143199 0.00706204 -0.0227915 0.0142322 0.00713532 -0.0184272 0.0147725 
0.0016445 -0.0189661 0.0138767 0.00356138 -0.0166981 0.0148441 0.00486212 -0.0232022 0.0142612 
0.00489639 -0.0200173 0.0143872 0.00588655 -0.0166958 0.0151784 0.00791282 -0.0206136 0.014941 
0.0031982 -0.0212076 0.0157798 0.00109492 -0.0199977 0.0158476 0.0074737 -0.0169437 0.0165309 
0.00836349 -0.0187752 0.0163723 0.00700266 -0.0227945 0.0162644 0.00256173 -0.0236735 0.016485 
0.00337532 -0.0188004 0.0158738 0.00493573 -0.0203411 0.016634 0.00505423 -0.0233066 0.0163102 
0.00568967 -0.0184627 0.0161898 0.00708757 -0.0204084 0.016801 0.00053764 -0.019789 0.0178012 
0.00154111 -0.0178602 0.0170344 0.00120462 -0.0237865 0.0179553 0.00394512 -0.023467 0.0179777 
0.00754008 -0.0219455 0.018077 0.00200678 -0.0218105 0.0173113 0.00269994 -0.0199169 0.0178181 
0.00530049 -0.0219208 0.0178229 0.000118499 -0.0238557 0.0196961 0.0062844 -0.022893 0.0193118 
0.00179925 -0.0179837 0.0190663 0.00319975 -0.0215017 0.018955 0.00835239 -0.0217686 0.019897 
0.00166722 -0.0199277 0.0195434 0.00254016 -0.0233467 0.0194205 0.00447933 -0.0234471 0.0200184 
0.00135938 -0.0218878 0.0201898 0.00338582 -0.0218944 0.020986 0.00712961 -0.0227343 0.0211981 
0.00195488 -0.0179084 0.0210668 0.00154044 -0.0237948 0.0210988 0.00879651 -0.0192656 0.0137116 
0.0108718 -0.0209346 0.0137823 0.0106763 -0.0175243 0.0135059 0.0146034 -0.0189521 0.0135866 
0.00884801 -0.020422 0.0182556 0.0128005 -0.0182318 0.0141082 0.012719 -0.0202231 0.0144241 
0.00893266 -0.017344 0.0178755 0.00952579 -0.0218617 0.0150029 0.0102106 -0.0170418 0.0155381 
0.0101645 -0.0191218 0.0152225 0.0112867 -0.0207599 0.0157971 0.0139121 -0.0172694 0.0154965 
0.0158887 -0.0179149 0.0151401 0.0119554 -0.0185574 0.0159698 0.0142489 -0.0192228 0.0158414 
0.00970191 -0.0218412 0.0170427 0.0101853 -0.0191434 0.0172373 0.0110365 -0.0173338 0.0173487 
0.0166851 -0.0170388 0.0167703 0.0132039 -0.0199682 0.0174579 0.0131339 -0.0176709 0.0175869 
0.0152027 -0.0184377 0.0176781 0.009672 -0.0188306 0.0191566 0.0113761 -0.0207506 0.0178488 
0.01413 -0.0193062 0.0191764 0.0164654 -0.0172971 0.0187481 0.012257 -0.0169115 0.0192544 
0.0116813 -0.0188035 0.0186004 0.0123918 -0.0204216 0.019539 0.0142807 -0.0172819 0.0191811 
0.00950526 -0.0201989 0.0206218 0.0102931 -0.0215387 0.0193378 0.00964362 -0.0176293 0.0208538 
0.0157056 -0.0179863 0.0204833 0.0112823 -0.0189961 0.0205822 0.0136248 -0.0181519 0.0209064 
0.011264 -0.021004 0.02113 0.0168793 -0.0166849 0.0136241 -0.0172826 -0.0163751 0.0204609 
-0.019014 -0.0144376 0.0140448 -0.0169457 -0.0087317 0.0137382 -0.0176964 -0.015949 0.014021 
-0.0177669 -0.0157572 0.0185775 -0.0203293 -0.00916663 0.0143552 -0.022291 -0.00872692 0.0144216 
-0.0201178 -0.0127514 0.0141737 -0.0212085 -0.0109935 0.0144437 -0.0186249 -0.00854775 0.0152098 
-0.0191486 -0.0107715 0.0146369 -0.0179027 -0.0123811 0.0148119 -0.0195295 -0.0136926 0.0158674 
-0.0205779 -0.0119318 0.0161386 -0.0196833 -0.0101109 0.0164772 -0.0218217 -0.00984877 0.016023 
-0.0205753 -0.0082895 0.0161991 -0.0176195 -0.00996794 0.0161964 -0.0183567 -0.0150404 0.0167759 
-0.0213368 -0.0107944 0.0177189 -0.0203228 -0.0090443 0.0180435 -0.0216626 -0.0102098 0.0196919 
-0.0204391 -0.00862213 0.0200015 -0.0224031 -0.00834309 0.0194476 -0.0169928 -0.0106423 0.0143795 
-0.0169767 -0.00860975 0.0176092 -0.0137269 -0.0165613 0.013948 -0.0105265 -0.0163416 0.0136923 
-0.0121796 -0.0163562 0.0155543 -0.00870742 -0.0164383 0.0172881 -0.0155746 -0.015598 0.0138368 
-0.0120164 -0.0149793 0.0139602 -0.014254 -0.0139822 0.014137 -0.0166996 -0.0138626 0.0141507 
-0.0103889 -0.00841979 0.013808 -0.0140801 -0.00831097 0.0142789 -0.00965357 -0.0144403 0.0136201 
-0.0150646 -0.0162081 0.0171316 -0.0148557 -0.0102661 0.0143211 -0.0153994 -0.0123014 0.014558 
-0.0109298 -0.0156135 0.0169979 -0.01308 -0.0157669 0.0176757 -0.0100869 -0.016474 0.0189771 
-0.0139527 -0.0153926 0.0155879 -0.0166025 -0.0152238 0.0156209 -0.00920137 -0.0154213 0.0155661 
-0.0166774 -0.0132839 0.0161491 -0.0159086 -0.00904103 0.0155989 -0.0140579 -0.00851941 0.0163186 
-0.0158522 -0.0112591 0.0163216 -0.0149818 -0.0139888 0.0171354 -0.0152757 -0.00966687 0.0174347 
-0.0102192 -0.008307 0.0178218 -0.0136065 -0.00851815 0.0183203 -0.0156123 -0.0150726 0.0187174 
-0.0114422 -0.0148263 0.0187843 -0.0135235 -0.0141761 0.0188108 -0.010277 -0.0101407 0.0201354 
-0.0139709 -0.0122938 0.0194872 -0.00990233 -0.0121608 0.0198724 -0.0126499 -0.0108658 0.0201609 
-0.0142239 -0.0103359 0.0189988 -0.0118964 -0.00918346 0.0193721 -0.0118987 -0.0131306 0.0200037 
-0.0132992 -0.0085313 0.0206439 -0.0151155 -0.00866522 0.0196911 -0.0145615 -0.0102567 0.0209696 
-0.00892635 -0.00998232 0.0186376 -0.00951884 -0.0140153 0.0190912 -0.0107595 -0.00835439 0.0211067 
-0.0145207 -0.0131528 0.0212339 -0.0104249 -0.0144396 0.0209425 -0.00868885 -0.0156057 0.0202781 
-0.00841579 -0.0130576 0.0209183 -0.00874376 -0.00900916 0.0151556 -0.00854076 -0.0142195 0.0171004 
-0.00180963 -0.0132577 0.0134149 -0.00830102 -0.0117606 0.0139371 -0.00752774 -0.0138777 0.013613 
-0.000733283 -0.00968358 0.0138495 -7.18141e-05 -0.0117082 0.0135455 -0.00362639 -0.00927937 0.013839 
-0.0028655 -0.0111354 0.0134711 -0.00615651 -0.0121352 0.0136869 -0.0069975 -0.0162838 0.0155764 
-0.00430664 -0.0162876 0.0180309 -0.00577984 -0.0148035 0.0142833 -0.005627 -0.0102948 0.0145138 
-0.00714782 -0.0160526 0.0190403 -0.00774325 -0.0131774 0.0155083 -0.00748525 -0.010599 0.0153689 
-0.00130981 -0.0111454 0.015208 -0.00384794 -0.0109317 0.0152138 -0.00654004 -0.00883999 0.0156291 
-0.00433349 -0.00862331 0.0156399 -0.00256687 -0.00954589 0.0161419 -0.000355427 -0.0084068 0.0159895 
-0.000793233 -0.0132059 0.0152848 -0.00456152 -0.0133231 0.0148604 -0.00589318 -0.0120532 0.0159638 
-0.000814949 -0.0160474 0.0193977 -0.00529459 -0.0102064 0.0164871 -0.00771458 -0.0117579 0.017105 
-0.00801454 -0.00906821 0.017062 -0.0057434 -0.0141326 0.0162971 -0.000176346 -0.0102169 0.0168713 
-0.00166493 -0.00841063 0.0175248 -0.00476685 -0.0159156 0.0199443 -0.0024221 -0.0160574 0.0206891 
-0.00670537 -0.0142351 0.0181048 -0.00542667 -0.00923748 0.0184415 -0.00726241 -0.0085488 0.018921 
-0.00345229 -0.00865443 0.0184859 -0.00792841 -0.0127405 0.0188826 -0.00699301 -0.0105635 0.0185871 
-0.0038871 -0.00906539 0.0203954 -0.0082586 -0.0095358 0.0204741 -0.00200074 -0.00855075 0.021269 
-0.00565387 -0.0100161 0.0204822 -0.00649441 -0.0136769 0.0202575 -0.00743456 -0.0113878 0.0203686 
0.00289603 -0.0165343 0.0179337 0.00671866 -0.015341 0.0137545 0.00453166 -0.0157738 0.0132345 
[...]
POINT_DATA 5997
FIELD FieldData 7
id 1 5997 int
5132 6039 5785 5190 1917 5330 2325 2831 3898 
4847 5234 5172 4706 2393 4733 5894 3353 3464 
5017 4087 4128 3915 2090 3772 3191 4526 4765 
4214 5712 5641 5375 5059 5419 3780 2124 3221 
5485 3702 3453 4367 2406 5926 5732 2272 5361 
6052 4153 4982 3530 4962 3882 5488 4098 2788 
2590 2233 5360 4780 4843 5838 1238 5066 2991 
3671 3299 4941 5453 4983 5241 4074 4504 4618 
5235 3519 5668 4975 3848 3761 5372 4914 1924 
1461 2294 1580 2848 3412 2347 5279 2387 3426 
3921 4064 2674 5950 4554 4721 5425 3655 2987 
5274 4487 5827 4350 4913 5175 5450 5142 3642 
3237 4282 5788 4412 5850 5889 3182 2996 5691 
5004 2573 2556 5650 5578 1470 2638 165 5185 
1863 4047 5244 5240 4767 4915 3832 3612 5864 
5345 3880 2700 5034 1500 4452 533 5743 4140 
3647 1934 3649 4007 5177 5579 3434 1593 6006 
4094 5591 5676 3715 5037 5164 4365 1981 2142 
3454 2920 4244 3370 3011 5805 2140 4155 4221 
2195 612 5631 5449 1055 4144 43 2518 6060 
5107 812 4312 4236 2275 6009 302 5297 4666 
4626 2747 5935 4642 4426 5514 5777 3993 4195 
5366 4692 5611 5644 5677 4855 3142 4657 3783 
5910 3475 4530 5314 4522 5281 5038 5013 4912 
5101 5403 5497 3211 5032 3667 5334 3105 4831 
5232 2166 5885 6010 5179 5446 5898 4778 4114 
5371 3137 5306 3507 5431 4059 4838 5026 1082 
4050 5985 4145 5822 5909 5939 3356 3874 4175 
4824 3465 4865 5817 5263 3926 4570 5744 5727 
4197 1823 4748 5245 5329 4797 4419 1060 5621 
5742 4227 2800 2003 4681 6038 4443 4139 3981 
1793 5881 4040 5484 3948 4947 6031 3115 3430 
4008 4812 5384 5218 3618 5689 4752 3812 6000 
3843 2714 5625 4322 1069 5521 4004 5726 4873 
3800 3859 2741 4848 1519 4335 5995 3892 5531 
5565 23 4573 5786 5500 2796 4333 3044 5041 
5615 5715 3161 654 2225 5940 3442 1524 335 
4157 4220 5114 2323 5544 5626 5658 4358 6013 
4012 3359 5031 4628 5445 2259 5093 2807 349 
4701 4712 2956 3856 4747 4783 5197 4684 4346 
5923 2528 5392 5487 1274 1716 4954 5509 2056 
4132 2703 3964 2822 4934 5339 1710 167 1788 
5586 3983 4869 5280 3944 2412 5962 3953 5147 
4170 134 958 3371 5448 3663 2355 267 4036 
1708 1859 6049 5153 4503 3650 3651 2194 4384 
5109 2099 1438 2783 3774 4477 2326 3729 3122 
1239 3201 3084 5476 2765 5618 570 6022 2160 
4972 4926 3735 2367 5123 3293 4939 4259 3779 
4137 5423 5645 858 5203 1236 1977 304 4705 
1138 5186 4233 80 925 680 4228 1148 4663 
918 1484 294 3646 176 5054 4806 3476 4475 
1649 397 1045 2854 5470 162 3668 3593 756 
2824 31 3339 4460 1631 157 2482 1129 3621 
4968 3217 2398 2593 3166 1810 2444 1694 5654 
1234 2997 4200 4201 5706 2981 3324 1217 1972 
366 6027 4199 5844 4987 4596 5561 3770 3999 
4480 166 5957 5697 2048 223 5808 5427 3991 
4496 5879 4916 2836 1400 4673 5166 5412 4791 
808 3495 3758 1901 1840 2552 1284 5836 4306 
1670 3017 4710 5595 1221 5212 4683 764 671 
2049 706 1067 2558 729 1372 5956 1305 709 
369 5858 5198 5891 618 5150 2911 4864 4326 
5536 4410 2388 2193 1016 243 4401 2728 2669 
5310 983 4923 3637 5181 5036 218 4846 5149 
3273 5530 5089 4078 4163 4402 2928 6023 16 
1007 1119 5955 5683 5111 5705 5518 4243 4462 
37 970 595 452 5790 5374 4786 5593 6054 
4665 158 3292 5993 5304 5270 5899 5796 4283 
641 5130 3697 85 5734 3588 4441 4754 151 
4877 5373 2633 186 949 5411 5010 3357 3162 
4215 5698 3917 2339 4075 5025 5145 5932 409 
2723 1039 1141 3390 4321 1747 2442 1375 621 
2072 6008 4409 1738 2845 1879 472 3171 5953 
4514 6012 5225 3987 4208 5255 4542 3988 4888 
1730 6055 3596 5674 102 2878 5440 5131 3243 
4541 2568 4445 4407 5882 5915 4859 5180 880 
504 5199 3513 3673 5997 4543 5806 4861 3992 
5065 3927 5086 4466 5756 5832 642 3028 2874 
4425 2739 5637 107 3754 5759 4285 2609 2595 
580 2103 640 108 1875 1692 342 1921 5184 
2276 1903 5490 3498 2354 2298 2250 479 661 
2091 3807 1555 1729 1100 2243 4549 100 2045 
1171 3549 4750 2917 3022 1824 274 2017 2922 
14 4106 2770 5215 83 3794 2062 749 2601 
5675 1003 4387 181 1228 1001 2684 2856 6016 
4136 4647 3970 2228 64 1690 4917 5300 4042 
46 1571 578 920 702 286 550 213 160 
773 1013 105 3120 5998 5947 3652 379 5155 
2673 364 728 3227 3491 2531 1241 1528 179 
48 1499 1995 637 1776 1811 565 68 439 
5125 5551 1399 5326 5143 388 215 493 657 
425 378 854 849 760 1543 1073 916 3977 
1051 2384 2799 597 962 1254 61 856 1554 
731 1857 1968 65 145 587 676 689 719 
72 882 1829 1124 295 1230 292 200 4166 
212 1304 86 2868 285 1263 180 844 259 
2070 1111 210 1856 684 2464 318 1159 137 
1265 1595 610 784 1314 651 1474 489 332 
558 1106 791 1299 467 1190 1333 601 505 
402 939 1636 1089 3584 581 1066 414 1058 
887 271 1288 836 3103 55 4062 20 2946 
1021 3184 2451 3151 301 1912 507 4262 568 
184 2226 546 534 353 1197 1808 481 5481 
4883 989 727 509 2039 1337 1913 34 554 
626 1026 2016 2037 3384 2605 1490 5 333 
4272 1858 824 1475 5642 4406 5623 142 1483 
1493 1104 4909 4860 2648 2343 5140 841 857 
5810 1415 677 2187 3583 5091 592 1627 464 
58 21 763 2943 2319 2811 3895 2422 5861 
2879 1669 4575 1473 3396 3683 704 1505 316 
168 2263 1077 5042 5200 4211 899 2327 1398 
1746 4880 3433 234 2720 2907 69 326 3109 
1930 1425 913 1419 4582 1227 994 3444 5564 
2613 1576 2274 4357 4679 1838 1269 3572 759 
2756 4484 4382 403 1668 3823 4870 1899 2732 
2127 3741 2979 4037 3260 1074 564 1768 427 
553 1529 3322 2100 3004 2249 2965 2940 3681 
4966 3967 3883 4472 1220 5242 624 648 1664 
1062 1624 1545 817 1279 3494 675 1176 1110 
3785 1369 275 2503 787 2440 2069 972 2823 
4671 1108 3648 1906 103 1648 5254 283 2143 
1991 363 833 1330 1527 2924 3193 536 1881 
2498 4519 1492 2420 1546 1604 2399 2645 5309 
1152 3266 5735 3990 517 3043 3540 1973 3215 
1607 2806 1997 3569 2592 2869 1761 2631 220 
3172 4329 2567 4065 4396 4369 3844 2891 4817 
4246 2812 1540 87 712 2780 1481 4521 2735 
5421 445 1094 711 395 206 1695 1772 1570 
1264 144 3009 5353 2401 1944 1229 444 2 
408 124 4084 390 2171 2114 1610 4229 6017 
2173 3585 985 2537 5941 458 2036 1757 543 
905 1733 1900 1 1629 2681 1088 1589 2753 
2198 3907 4392 1928 3960 3277 4015 2912 5478 
1084 351 870 92 3239 1035 579 1842 4022 
4703 3776 5121 4646 1559 2550 109 261 732 
110 115 442 1121 820 1755 799 1282 2713 
832 1098 1430 754 480 818 974 961 743 
1041 741 76 113 471 91 156 748 420 
988 354 1958 57 1769 666 132 3989 1182 
1904 2646 227 2597 488 491 690 577 469 
796 281 1781 2692 359 428 1680 33 1200 
766 1222 367 254 779 328 2133 361 1432 
7 1167 734 771 1523 1603 277 2130 1410 
79 1735 3906 2050 800 4557 2244 3559 2578 
5917 4731 3124 1565 2683 2508 5913 4433 4225 
4202 3313 5750 5920 5546 4207 3985 4490 4585 
5707 5083 2564 4422 3350 175 47 3946 4567 
4343 3326 2350 4816 4158 4919 4381 3711 4100 
5702 2540 4815 3153 5275 4141 4979 4535 1592 
3746 1606 5588 4572 6063 1105 3876 4107 4713 
5103 3195 4354 5992 3984 2852 4835 3177 2486 
5655 5729 5574 3620 5422 4518 3674 2472 3499 
4685 5161 5556 2517 4945 4474 4629 3496 3407 
4495 1296 5678 1855 5949 1533 4327 5589 4850 
4162 2941 3301 2322 5662 3253 6051 4505 2229 
4096 4800 3994 5590 5875 4964 5765 4605 1882 
2810 4943 5566 4413 3208 5975 6011 3686 3307 
3713 3447 1833 5987 3879 5399 3107 4362 2616 
5286 3167 2086 4334 5970 3806 1677 5575 5350 
2951 3245 2640 2585 5320 465 5056 3963 3626 
5082 5115 5357 4559 2260 1417 5849 5862 5634 
3924 5174 5659 146 3406 5977 3875 4632 1645 
5803 3116 3235 4148 722 4470 4049 4373 3854 
4294 2760 2431 28 1616 4612 5974 5265 3639 
4295 5317 3600 3241 4516 5816 5937 5994 3757 
1345 4099 4014 3365 739 4988 2809 5293 4372 
4249 1368 3479 3576 3425 5884 4280 4932 4795 
5176 4643 3306 477 3066 2241 4478 5538 3680 
3748 3913 2462 2267 236 2757 4890 1530 2265 
2055 4269 5390 1949 4383 2377 5573 1385 4994 
1052 5761 418 2516 3863 4528 2538 1135 4653 
1184 1287 5233 125 903 1128 1590 4021 2689 
1081 74 1444 2777 5413 5711 1562 683 1744 
2390 747 2883 2705 483 5410 3837 5359 2849 
4971 4551 5671 2030 1549 3163 1812 4191 1072 
4565 502 3344 6064 5202 1789 4580 1886 5510 
4858 3795 4011 5951 3428 4182 3236 54 487 
3887 811 53 2310 5568 4749 5867 5872 3018 
5813 5523 5666 4508 3849 60 485 2746 4590 
120 5747 5088 3181 5460 3349 2015 3218 607 
4067 2004 1371 2621 3864 873 1867 5775 5673 
4264 5461 280 4028 1878 1600 979 5323 3477 
5614 5159 5825 4206 4315 4525 4624 5692 1396 
4942 4661 3101 5055 4390 1160 4517 3722 4520 
589 3738 4933 3684 3405 5008 3144 5352 4268 
2392 4736 5557 3613 5971 5748 4668 1328 5696 
4574 4034 5695 3197 5871 1826 5342 3858 1311 
3619 4591 1515 2639 4532 3653 4775 2391 5139 
3102 1374 5222 5580 311 2834 486 4773 1890 
6068 5196 3070 5555 5355 5387 4766 2860 5709 
4821 1467 4669 834 897 1696 1959 933 5601 
5369 6021 4479 6035 3753 1125 4340 1495 2047 
2955 5416 2881 5204 5794 762 1144 4347 5828 
3248 1485 571 5667 1355 3730 888 5508 24 
4771 814 1985 5782 3701 1392 2042 5978 1312 
869 5096 4603 1798 1971 1407 538 2611 1522 
4121 932 1957 3401 5376 3455 4652 3486 600 
4875 5927 3725 1609 5632 4745 4393 3214 3664 
5238 5848 2975 5122 5680 4907 3852 4610 6053 
4711 3445 4784 4602 2190 3881 5496 3792 3524 
527 1455 3968 2960 5704 3563 288 3408 3942 
1941 5467 4389 3437 5558 5092 4378 4789 562 
6061 233 2819 3760 1344 2315 2635 5105 2417 
2186 1660 3700 1711 3678 1518 2223 1245 3658 
4431 462 1388 3010 1199 4299 3242 3698 5050 
4650 1691 2512 4218 5793 1083 4325 556 5905 
2910 776 2270 5771 3409 5283 1861 5511 5192 
3829 3487 5961 2980 4408 2509 3666 4056 5028 
1816 3542 792 4659 5635 5684 585 1688 3669 
996 3345 4523 4113 431 4718 2737 222 746 
4898 201 5021 3220 2161 3031 2530 2346 5380 
2820 130 4242 2575 4828 5434 5651 2662 490 
1091 5302 4936 4297 221 5906 705 1179 1149 
2006 2077 136 1233 2289 404 1115 602 3925 
101 720 785 1151 5469 5679 5437 5553 4953 
4759 4253 4424 5001 4949 5968 4940 4403 5365 
3877 4455 5657 2218 5608 5628 4290 5019 4000 
4498 6046 5075 3885 3630 5258 6070 4984 5156 
5877 5991 3708 5074 3265 3185 5807 5228 4019 
4634 3468 4287 499 5067 4142 4385 1450 5459 
5239 4688 5189 4906 5758 3383 6032 2579 2899 
5943 3899 4328 4545 2717 1301 2515 5043 3376 
3589 1635 2993 1628 2159 2458 5094 3825 1745 
4278 3591 3459 4510 1123 3930 4238 5223 5106 
3053 5916 2336 4793 4429 5347 686 3665 4788 
3269 2893 1989 5336 4729 725 2734 6015 5639 
5733 4853 4770 4046 4895 5981 3393 5983 5543 
4606 3382 4973 3046 4366 2599 3614 3090 5256 
4164 3814 5888 3833 1671 3798 4640 1154 5011 
4981 2082 2914 5505 6024 4579 1469 3766 6020 
3048 5640 3888 2493 645 2519 5395 1252 3395 
5492 4423 5821 5863 3911 4073 4893 4997 5458 
410 4138 4992 5501 5682 3804 1434 2667 5247 
838 5126 5364 615 4500 5246 4293 4728 3587 
1247 5529 4894 1224 4625 3839 515 5764 3056 
1965 4607 1009 5766 5210 3582 4337 2449 5519 
1556 3418 6030 4931 1418 2362 5738 3902 4079 
632 5252 5903 1286 2022 3156 5617 4284 3302 
1814 5385 5205 3314 4118 1818 1778 1897 1489 
1289 3579 4116 3719 3860 5322 5797 5811 1659 
4380 1551 12 4539 2857 4818 492 2937 548 
3246 4377 3143 1112 4039 1643 104 4302 1758 
5328 45 2340 6019 2994 3922 2413 2318 1031 
6029 4568 1805 5740 3912 667 896 1732 837 
4305 293 1935 2283 2008 114 2745 1865 1257 
5383 1602 1232 1464 674 717 133 3580 4636 
5559 2281 129 1291 3304 454 1381 2108 1290 
1987 1395 663 5754 3254 5301 4876 4809 1586 
5908 4675 5321 4235 5428 4649 5609 2038 4802 
3472 5506 6066 5520 4980 5451 5986 614 4868 
5959 5843 5183 4830 4825 5969 5799 5316 4905 
5571 3570 5630 5507 5268 6065 5770 5687 4187 
5789 5841 5444 2529 3400 1449 13 5120 4351 
4996 5933 6057 5603 5211 5068 3632 447 3285 
4241 1096 4320 5348 2973 5892 5201 5112 5860 
5629 5391 5324 5029 4763 4161 4593 5887 4465 
4185 5486 5569 4398 5178 511 5607 237 5563 
4600 5688 4054 5474 5331 2410 5893 5989 3073 
2716 5382 5340 5596 4558 5116 5206 3002 3790 
3019 1353 5965 5605 2408 1019 226 1378 5002 
5907 3978 5826 4976 2572 5473 4698 4076 4277 
5524 2952 1191 5044 4836 5874 5963 5237 5701 
5528 5643 2664 2927 4219 2253 3505 4744 3777 
5647 3232 2566 4152 3732 4319 2853 4595 3553 
4111 3914 519 1401 5009 4899 1655 2058 5475 
2495 2385 3052 2954 117 5079 4719 5725 5442 
3830 4678 4184 4364 3682 4254 4911 3050 4614 
5137 1996 5287 2710 4444 1705 1891 902 5585 
5069 3372 3995 775 3128 5308 4435 2545 3606 
5883 5780 4638 4513 1468 3810 3969 3918 5964 
1984 4134 3950 252 3158 5784 5020 4952 5454 
3827 5539 3515 3603 4267 5918 6048 5931 5248 
5648 3851 3577 3229 1453 1783 5261 3501 1520 
2222 1567 5167 3212 2129 5354 4260 3267 631 
1951 5795 6040 380 5542 5152 3275 5433 3308 
5397 6014 4129 3402 475 3160 1327 10 5710 
5996 4687 3012 3074 3743 2297 4456 3397 4604 
2118 4743 2386 5299 2817 1815 1942 733 3038 
1775 4450 1767 2379 312 4461 6028 3817 4003 
5379 4342 5045 1165 1526 2637 2521 1893 247 
2657 4168 5117 6062 3164 4655 1728 975 2797 
1880 229 4840 1338 3188 1406 848 3699 5006 
2301 5809 5820 3207 1513 71 2278 1722 3811 
2057 230 154 1639 443 973 432 155 138 
278 416 2772 875 3460 2121 1465 1945 3821 
633 484 1504 625 338 1599 496 628 1186 
2456 273 122 4798 1046 56 2025 270 1107 
419 2135 2242 708 1320 611 2258 1866 3762 
5550 1389 334 1427 1161 1658 1008 2877 761 
649 1163 687 2342 246 497 503 878 606 
1848 2452 730 2224 1376 3452 453 2372 494 
1402 769 284 2776 2102 3662 1947 189 173 
2076 2403 966 352 1322 2330 931 1441 4970 
1168 3909 646 4234 4173 813 3340 5901 5207 
5282 4958 4482 4090 1213 4527 3548 2513 770 
269 804 1544 1751 718 4053 1172 1173 5319 
29 98 456 1262 5719 1676 4667 2964 4223 
4473 3037 1103 1765 2208 1933 1582 3512 5921 
3483 4726 6059 778 2549 823 944 1440 4617 
3781 5801 2711 5430 4764 4309 4030 5165 1318 
2629 3284 1339 1308 3629 2990 2774 3323 825 
4896 2501 3910 1651 1703 789 4273 3238 4464 
3125 4900 3764 5829 4756 2764 2113 530 3159 
2116 4704 2676 1192 3058 2201 5402 5439 3551 
2918 4310 4577 5929 4010 2014 2040 713 1036 
3554 4002 3509 2957 5090 3379 3082 3268 4842 
3522 2309 5526 3568 4404 2696 1370 3886 2447 
4531 2671 4810 3696 4368 5483 2293 3546 2925 
3932 3388 4263 3348 2084 2880 2974 3623 2892 
3287 3394 3958 4785 2534 5753 1195 1792 1189 
3672 1717 4430 4108 3633 2608 1979 4597 195 
478 299 2915 513 3739 4930 4097 3367 4055 
3520 3717 2158 3624 960 2968 4623 2962 3086 
2381 4416 1332 3352 131 1068 228 1042 1932 
1365 2839 2269 5982 2313 2138 1630 4070 32 
348 3901 2474 2945 4248 2701 3478 573 1426 
1080 1275 5409 2162 532 4537 1079 413 788 
1675 347 1331 393 1443 2051 2555 4700 4512 
1907 3311 1936 2179 1491 344 2958 501 2065 
2986 355 2736 1248 751 371 995 1043 123 
1002 582 1360 627 298 2255 798 978 1020 
2221 1126 890 268 950 391 695 38 325 
73 205 150 619 1218 457 531 668 943 
249 1367 94 1350 309 2169 681 315 1132 
128 1642 904 1205 861 171 169 1028 320 
35 399 152 907 1386 2803 1666 238 586 
660 161 96 3865 2690 3140 4256 4925 4355 
855 3575 3310 4887 2634 4476 3165 5443 2122 
5318 5295 3312 4548 4009 2316 2314 4878 5549 
5040 2396 5973 3113 2061 1737 5944 3952 2897 
5517 5257 5193 3111 2548 1799 5276 3891 700 
2901 3896 3280 1774 3174 2504 1618 2175 3775 
4696 4677 5389 510 4060 3778 4562 1208 5118 
3281 5612 4497 1057 282 3480 3040 2052 5946 
3541 3255 3087 3296 5839 5693 5294 5713 4536 
5840 1487 1803 1623 3404 1414 652 5952 4188 
3627 4469 2172 4852 3363 5922 5060 1206 2002 
5672 3931 3841 4776 4716 3021 2784 3474 4386 
5760 3508 5170 2604 5209 3187 2551 3836 2066 
4183 2802 4395 4304 4794 4708 5338 1050 2217 
3461 4360 3150 3198 3503 2328 5303 4594 2851 
5945 3534 3361 3704 1689 4851 4303 2523 5494 
4048 2731 3638 3803 1853 5313 1835 3203 2871 
1134 3435 2415 653 555 1420 2168 3175 2565 
1892 2035 5731 1251 5162 5690 1931 605 4072 
5464 3929 2380 5307 2363 5128 1988 3506 3088 
5160 272 4058 3687 2123 948 3258 5290 2977 
2093 3617 1704 2896 4125 1869 3026 4891 4171 
2092 5400 5853 1023 5311 6058 876 5356 2357 
5267 2492 1975 3470 5291 500 4051 4707 2749 
3791 3819 90 688 1963 5063 4437 3695 1012 
1719 5717 1785 1736 4341 5285 1313 196 360 
4124 1397 5537 4052 5718 5752 4032 1697 2144 
4330 3123 119 6003 1800 5665 3024 5919 3083 
3226 1553 1377 2180 2235 4169 1342 5545 41 
2574 2984 4882 106 3485 4300 5599 4792 4762 
3868 3610 3784 2600 1889 2154 2071 4086 1459 
1640 382 2838 2280 2649 4449 946 5482 4664 
3069 1027 3421 5823 3441 4534 5266 2110 4866 
5346 5876 2909 3126 5018 438 4727 3835 4990 
5560 6043 1242 990 2402 2985 2715 2680 2862 
19 3484 5230 4038 4296 3098 1967 3061 5016 
4927 6050 2921 5363 2445 2992 2706 3095 4651 
5999 5085 5660 3954 5812 2969 4338 5602 4281 
2094 5669 4627 4633 3016 3820 3737 5406 3805 
3824 2105 1442 1452 2295 1156 2888 5472 5988 
5062 2872 5452 5053 5515 84 521 4178 4467 
5723 768 2284 4123 4544 4077 4126 6018 164 
4695 4420 524 2525 5134 2375 6042 5636 3204 
4376 5722 5570 3020 853 4488 451 3249 4560 
3765 5119 1862 1809 3705 5471 5381 5217 5468 
264 5819 1014 2939 2636 1431 5904 3543 3334 
2607 415 1870 4546 5577 3616 5886 4095 886 
5144 1966 4442 4555 2119 1216 5703 4371 1445 
5745 1914 5362 5854 5272 5584 954 1822 1180 
4761 1040 2709 266 919 6 1448 1625 1693 
4005 4564 5325 3186 3845 2120 4020 386 5856 
5312 1749 1087 331 4676 5456 3797 1211 217 
1860 772 1306 2220 4494 535 5441 5337 1841 
1574 4978 1422 2656 245 3362 2487 2189 1458 
4592 4311 194 1734 4901 4631 5857 4829 5755 
2109 3298 5768 1885 1250 2541 4509 2421 2841 
2213 5627 1532 2018 797 163 5818 3259 3100 
2374 2436 5219 1412 4025 2279 3756 1718 5938 
1681 5890 3327 2576 3564 5781 4951 5333 2023 
336 1782 2361 5135 3709 2359 3234 3945 3263 
1596 5084 1538 250 576 3893 3256 4463 5646 
2455 2026 3816 4439 5030 2966 2505 3179 5942 
5653 1053 1169 1806 2013 1319 1563 1983 1828 
1542 5095 4751 806 906 1684 765 2426 5598 
1821 1612 3949 2814 2174 670 3736 1056 4630 
2273 3091 1471 2507 5670 6005 3535 5980 1447 
691 567 430 70 5502 4725 2672 967 584 
1521 5229 1292 2349 5226 843 1724 147 984 
314 4757 1203 1202 5914 5420 5694 4722 5824 
5277 4621 2414 2423 6036 4956 5592 5157 1404 
4995 2652 884 4506 1064 5262 5133 644 4935 
4237 1136 5685 279 4760 2520 2707 5015 4693 
5619 2778 1773 1114 2833 938 5182 5113 3202 
2832 1383 2203 2416 2134 182 2183 1261 2560 
3029 4944 4071 2533 1908 656 2569 1534 5072 
2285 1361 3033 2699 1950 5081 4960 5070 4177 
3869 2786 5714 177 569 2643 3721 2106 3096 
2477 4857 5954 3283 3169 2790 3025 3422 5548 
357 3072 81 560 5866 3556 4428 3328 3716 
3431 3041 673 2641 4446 639 3067 474 4092 
5097 3622 5048 2959 2768 3481 1937 5073 5415 
5984 297 4826 3451 520 5815 5341 461 4998 
4026 4432 216 1613 3972 895 3957 5567 1095 
2688 4921 5833 4813 2489 3597 1310 2712 3718 
3955 2963 4686 6002 1916 5269 2358 2467 5110 
6026 3689 3971 3998 3726 3545 3763 1915 5394 
4130 1157 2944 5315 5253 6067 4804 2033 1715 
3786 4833 2535 774 5426 583 4174 1364 5495 
6001 617 287 588 3889 5834 4801 5638 3206 
5251 1583 965 2165 5151 4133 329 248 1739 
5527 4270 924 2149 945 1463 1460 930 4639 
346 3114 847 2078 4950 703 2861 1720 1884 
208 99 693 609 1048 2439 1486 1605 67 
545 2096 1078 593 1346 957 2288 470 1723 
2234 4999 4965 1059 2727 4738 5960 3240 4348 
1760 4266 3032 2296 1150 6041 1249 433 1343 
4724 4799 473 5540 4717 219 1511 211 1267 
126 2239 971 2470 2805 940 1564 2067 3566 
2762 4598 2598 3712 5582 4699 3168 2005 2264 
955 2666 2708 2847 4457 2115 1637 599 5749 
3937 1714 1525 1698 802 2655 5541 5327 518 
5195 2366 50 781 5023 2923 97 2687 1300 
4375 2835 4660 1797 2804 3078 5778 1240 2303 
947 3141 4400 4481 2450 4061 2583 3279 3317 
5401 5533 4143 4967 5835 790 1873 4156 4252 
5814 1633 4414 3368 5404 1494 3744 4587 5513 
1454 4179 3130 1309 1954 3138 3079 5049 4872 
1871 5305 650 2759 141 4109 5613 2976 5516 
4702 4714 4561 4886 2300 4691 4013 1597 5479 
3504 5377 3916 5512 3330 2815 3315 2191 5104 
4492 3332 3051 3449 664 2618 522 2750 3928 
5924 2329 4885 3331 4563 4672 3176 1763 2544 
3573 4969 3828 3853 4928 5730 9 1955 3749 
3525 1391 3436 4986 1661 3492 2651 4459 2001 
2473 2971 529 2660 3720 3467 2139 3065 1598 
1183 2369 2080 1594 508 2344 2942 5746 482 
1070 3822 1771 305 1581 1209 2532 1297 1754 
3723 2855 1699 1902 3659 1037 528 647 3183 
851 1285 1178 862 59 2371 4 224 185 
2748 2145 4720 3272 3127 3690 3862 1193 1071 
1347 737 111 11 1146 998 112 846 1887 
991 3693 2794 1025 5278 3190 1237 2998 241 
4307 2471 450 426 5014 3380 3219 5393 2821 