# vtk DataFile Version 4.2
Generated by LIGGGHTS
ASCII
DATASET POLYDATA
POINTS 5997 float
-0.0138556 -0.0194275 0.00599996 -0.010937 -0.0212755 0.00600052 -0.0126343 -0.0178479 0.00599736 
-0.00906639 -0.0205364 0.00599026 -0.00939857 -0.0185477 0.00602838 -0.016497 -0.0172686 0.0060045 
-0.011253 -0.0192959 0.00599494 -0.00669202 -0.0169832 0.00599742 -0.00768114 -0.0223647 0.0061003 
-0.00202122 -0.0238405 0.00599806 -0.00740681 -0.0188425 0.00621434 -0.00350036 -0.0224343 0.00599104 
-0.00621247 -0.0204369 0.00599349 -0.00586787 -0.0232138 0.00599431 -0.00476903 -0.0170625 0.00653034 
-0.00485308 -0.0189791 0.00599773 -0.00216822 -0.0197681 0.00599611 -0.00235804 -0.0165914 0.0059935 
-0.00391039 -0.0206049 0.00666532 -0.00156857 -0.0217692 0.00619033 0.000635063 -0.0180821 0.00604731 
0.000653404 -0.0217536 0.00606646 0.00724165 -0.0227488 0.00599592 0.00707772 -0.0193076 0.00599779 
0.00118967 -0.0238218 0.00599934 0.00483487 -0.0208 0.00633131 0.00359185 -0.0174733 0.00600008 
0.0032319 -0.0236978 0.0064077 0.00247397 -0.0191283 0.00599872 0.00262782 -0.0211238 0.00600167 
0.00529677 -0.023225 0.0059968 0.00517581 -0.0186937 0.00599668 0.00869905 -0.0172362 0.0059925 
0.00919309 -0.0221275 0.00599947 0.01091 -0.0211057 0.00599738 0.00985749 -0.0192047 0.00600876 
0.0134847 -0.0171991 0.00599675 0.0106932 -0.0172933 0.0060122 0.0127185 -0.0202604 0.00599795 
0.0116255 -0.0188382 0.0068636 0.0143476 -0.0191149 0.00610319 0.0158717 -0.0179498 0.0066497 
0.0171815 -0.016586 0.00600048 -0.020988 -0.011379 0.00599543 -0.0181116 -0.0099979 0.00599793 
-0.0178688 -0.0158132 0.00599443 -0.0195715 -0.0137161 0.00600469 -0.0190168 -0.011792 0.00600167 
-0.0221564 -0.00913569 0.00599689 -0.0200032 -0.00960887 0.00650755 -0.0188775 -0.00797014 0.00599779 
-0.0169146 -0.00832729 0.0060303 -0.0207951 -0.00777559 0.00651822 -0.00952595 -0.0165545 0.00613038 
-0.016148 -0.0110945 0.00599327 -0.0151827 -0.00933875 0.00599782 -0.0134112 -0.0144343 0.00600143 
-0.0152664 -0.015177 0.00599214 -0.011815 -0.0160234 0.00599898 -0.00976845 -0.0145706 0.00599191 
-0.00845772 -0.0132331 0.0066787 -0.0120298 -0.0123832 0.00600216 -0.00966033 -0.0100106 0.00599898 
-0.0141565 -0.0112705 0.00599839 -0.0116155 -0.0104253 0.00599484 -0.0117165 -0.0084258 0.00599832 
-0.0100622 -0.0119077 0.0064885 -0.0132956 -0.00954003 0.00662455 -0.00790271 -0.015387 0.00600263 
-0.00532098 -0.0109677 0.00599983 -0.00789985 -0.00892487 0.0059979 -0.00558045 -0.0153216 0.00599418 
-0.00148679 -0.0127215 0.00600689 -0.00173781 -0.0146986 0.00600051 -0.00340057 -0.0115069 0.00599821 
-0.00390278 -0.00961814 0.00639516 -0.000935845 -0.0107978 0.00599623 -0.00692929 -0.0121471 0.0059972 
-0.00531769 -0.0133292 0.00602576 -0.000425854 -0.016149 0.00639583 -0.00332815 -0.0134962 0.00599355 
-0.00376328 -0.0152566 0.00681301 -0.0019543 -0.00909309 0.00623411 -2.7767e-05 -0.00859328 0.00600292 
-0.00577854 -0.00858001 0.00599793 0.00695783 -0.0162325 0.00629577 0.000282712 -0.0143054 0.0059994 
0.00044979 -0.0122367 0.00599652 0.00152965 -0.0161357 0.00599707 0.00298184 -0.0147647 0.00599794 
0.00100195 -0.0103079 0.00601911 0.00649177 -0.0126705 0.00601121 0.00686962 -0.0104035 0.00625398 
0.00243773 -0.0124468 0.0060053 0.0049426 -0.0160013 0.00599932 0.00461713 -0.0119801 0.00599563 
0.00299705 -0.0101934 0.00600386 0.00491993 -0.0101284 0.00667043 0.0075922 -0.0143396 0.00599451 
0.00828585 -0.0117906 0.00599949 0.0060257 -0.008609 0.00599841 0.00399191 -0.00845566 0.00600396 
0.0152063 -0.0161865 0.00599869 0.00870575 -0.00830307 0.00600165 0.0119229 -0.0157191 0.00599778 
0.0095836 -0.0154476 0.00600012 0.0121768 -0.0116808 0.00599661 0.0139539 -0.0107828 0.00599729 
0.00938329 -0.0134615 0.00599998 0.0113773 -0.0135077 0.00600002 0.0133707 -0.0133901 0.00612968 
0.0102173 -0.0112443 0.00606894 0.0152229 -0.0123191 0.0059992 0.015143 -0.0142514 0.00647411 
0.0105389 -0.00910264 0.0059996 0.0125033 -0.00955698 0.00664662 0.0142849 -0.00882155 0.00601198 
0.0162972 -0.0106387 0.00599705 0.0170275 -0.013721 0.00605472 0.0170463 -0.00878371 0.00605788 
0.0200153 -0.00941919 0.00600439 0.0221524 -0.00901634 0.00599963 0.0185396 -0.0151176 0.00600705 
0.0196106 -0.0118662 0.00600359 0.0182716 -0.010384 0.00599597 0.0213507 -0.0108943 0.00612736 
0.0196122 -0.0136677 0.00686772 -0.0225897 -0.00707146 0.00599878 -0.0199535 -0.0033382 0.00599848 
-0.0198498 -0.00609342 0.00599979 -0.0217877 -0.00253216 0.00599639 -0.0238416 -0.000974443 0.0059945 
-0.0178603 -0.00625138 0.0060008 -0.0213453 -0.00477097 0.00599742 -0.0232792 -0.00520917 0.00624093 
-0.0181934 -0.00428375 0.00599836 -0.02365 -0.00325991 0.00599838 -0.0201573 -0.00140116 0.00644598 
-0.0219179 -0.000483684 0.00622384 -0.0174712 -0.000336194 0.00599828 -0.019564 0.000462892 0.00600613 
-0.0135753 -0.00766494 0.00599738 -0.0100923 -0.00530145 0.0060257 -0.0100646 -0.00730131 0.00599865 
-0.0119694 -0.00602261 0.00598627 -0.0116533 -0.00405609 0.00608601 -0.00850397 -0.00328702 0.00599909 
-0.0162147 -0.00464279 0.00601467 -0.0158973 -0.00661256 0.00599746 -0.0141266 -0.00578912 0.00640548 
-0.0111867 -0.00237794 0.00705775 -0.0147631 -0.00326873 0.00599856 -0.0131416 -0.00203708 0.00653571 
-0.00946444 -0.00145957 0.00600373 -0.011318 -0.000659423 0.00605394 -0.0161371 -0.0018206 0.00606631 
-0.0132518 -8.79994e-05 0.00600378 -0.0153908 0.00015995 0.00600399 -0.00743032 -0.00698254 0.00599999 
-0.00398534 -0.0076649 0.0059972 -0.00176506 -0.00710913 0.00600132 -0.00663442 -0.00400402 0.00599632 
-0.00601206 -0.00211029 0.00599466 -0.00402476 -0.00229677 0.00599765 -0.00247997 -0.00393049 0.00601231 
-0.00329122 -0.00578443 0.00600949 -0.00184684 -0.00202925 0.00612488 -0.00815709 -0.00518701 0.00651302 
-0.00579685 -0.00581482 0.00599687 -0.00460581 -0.00421058 0.00599677 -0.000467996 -0.000471467 0.00599877 
-0.00311772 -0.000493357 0.0059982 -0.00800785 3.52346e-05 0.00599793 -0.00601547 -0.000113373 0.00600012 
0.00198886 -0.00833813 0.00600674 0.000167814 -0.00661312 0.00623385 0.00204443 -0.00593119 0.00600348 
0.000788656 -0.00435698 0.00599771 0.0040113 -0.00555036 0.00599554 0.00471137 -0.00365374 0.0059995 
0.00052522 -0.00220419 0.00599903 0.00536712 -0.00176214 0.00600534 0.00719443 -0.00699164 0.00603415 
0.00671509 -0.00351844 0.00599881 0.00250583 -0.00246407 0.00599445 0.00735237 -0.00147412 0.00602696 
0.0079805 -0.00515742 0.00602336 0.00166081 -0.0005416 0.00599784 0.00599888 -0.0053829 0.00599736 
0.00513087 -0.00700099 0.00677977 0.00281484 -0.00422312 0.0068732 0.00345335 -0.000906469 0.00679311 
0.00864597 -0.00331511 0.00646715 0.0154217 -0.00602718 0.0059996 0.0107673 -0.00297024 0.00599573 
0.0119931 -0.00773163 0.00599928 0.0102547 -0.00674885 0.0059966 0.0128412 -0.00529687 0.00599845 
0.009938 -0.0047806 0.00599837 0.012729 -0.00330654 0.00603836 0.0144885 -0.00237625 0.00599732 
0.0120569 -0.00142986 0.0062075 0.00939826 -0.00152519 0.00599786 0.0137572 -0.00697809 0.00655416 
0.0146378 -0.0042824 0.00655985 0.0166231 -0.00421469 0.00599871 0.0159991 -0.00108246 0.00599515 
0.0141184 -0.000414394 0.00599884 0.0188092 -0.007843 0.00623721 0.022186 -0.00277714 0.0059968 
0.022118 -0.00701612 0.00599691 0.0217596 -0.000705596 0.00600174 0.0238033 0.000255378 0.00600862 
0.0203067 -0.00616278 0.00601013 0.0183884 -0.0051535 0.00599673 0.0201226 -0.00417479 0.00599707 
0.0172261 -0.00666827 0.00655872 0.0219725 -0.00492433 0.00599827 0.0176555 -0.00249382 0.00599827 
0.0238568 -0.00172447 0.00627196 0.023575 -0.00399964 0.00674645 0.0187875 -0.000672839 0.00600171 
-0.0237808 0.00102008 0.0059984 -0.0214022 0.00546536 0.00599668 -0.0233338 0.0049626 0.00599949 
-0.0199599 0.00242319 0.00599593 -0.0181675 0.00329969 0.00600695 -0.0237619 0.00301419 0.00600019 
-0.0216467 0.00348739 0.00610812 -0.0228617 0.0068946 0.00617726 -0.0217842 0.00149742 0.00599995 
-0.0178947 0.00146419 0.00675162 -0.0198101 0.00435696 0.00647089 -0.0180748 0.00529514 0.00605042 
-0.0196866 0.00645356 0.00627168 -0.0184404 0.00799057 0.00600016 -0.0168019 0.00683635 0.00599827 
-0.0204471 0.00824167 0.0067339 -0.0222234 0.00877787 0.005998 -0.00985248 0.000625155 0.00648873 
-0.0121809 0.00323629 0.00599968 -0.00998598 0.00255839 0.00600789 -0.0105875 0.00446294 0.00599841 
-0.0117129 0.0012959 0.00599822 -0.0103125 0.00646547 0.00600149 -0.0135052 0.00682179 0.00599731 
-0.0162142 0.0022259 0.00599515 -0.0147243 0.00339564 0.00673026 -0.0136578 0.00187161 0.00599785 
-0.0134413 0.00478458 0.00599861 -0.0163935 0.00421235 0.00599896 -0.0118975 0.00565596 0.00691426 
-0.0151608 0.00574786 0.00630267 -0.00882374 0.00521647 0.00654725 -0.0118516 0.00786673 0.00639202 
-0.0151416 0.00770044 0.00673211 -0.0081788 0.00341034 0.0059977 -0.00727545 0.00634708 0.00599831 
-0.00654315 0.00181464 0.00600168 -0.00437656 0.00105834 0.00600087 -0.0045427 0.00500455 0.0059986 
-0.00644699 0.00440201 0.00600561 -0.00313405 0.00641988 0.00600005 -0.000296926 0.00338621 0.00599721 
-0.00175725 0.00105359 0.00599854 -0.00305154 0.00255924 0.00621498 -0.00254403 0.0044874 0.00602335 
-0.00497465 0.0030534 0.00599954 -0.00502721 0.0070699 0.00602957 -0.00688298 0.0083031 0.00600702 
-0.000816596 0.00507851 0.00691555 -3.69712e-05 0.00666694 0.00599926 -0.00318816 0.00842912 0.00600056 
-0.00119486 0.00829036 0.00599864 0.00481965 0.00030567 0.00599831 0.00679358 0.000589544 0.00600009 
0.00793234 0.00439 0.0059978 0.00407026 0.00263563 0.00600474 0.00181978 0.00262602 0.0059986 
0.00677753 0.00276535 0.00599948 0.000962125 0.00493452 0.00599792 0.00657783 0.00628526 0.00601073 
0.000200855 0.00145342 0.00600486 0.00535516 0.00416933 0.00600251 0.00286797 0.00433223 0.00600018 
0.00294484 0.000982657 0.0061414 0.00387056 0.00607929 0.00599911 0.00195889 0.00666246 0.00599718 
0.00310115 0.00829345 0.00611432 0.00114764 0.00841051 0.00651393 0.0100971 0.000544717 0.00600507 
0.0115795 0.0045794 0.00599978 0.0156259 0.00678805 0.00599786 0.00901285 0.00818296 0.00600044 
[...]
POINT_DATA 5997
FIELD FieldData 7
id 1 5997 int
2016 1190 4149 6027 5272 1291 4517 4456 1951 
2584 982 5428 4482 372 3011 239 2869 2028 
147 2179 5834 598 906 3859 5357 5950 4048 
2234 4044 4116 1588 2301 3453 3054 1407 4845 
5828 4644 3984 549 2489 5183 1911 1902 5014 
3617 3739 5222 893 2792 5268 1842 5450 4067 
1296 5299 833 4365 5068 186 4740 176 1737 
5543 1223 1925 292 5257 2974 797 2235 6010 
3769 5755 2571 4544 6059 4487 2971 5854 462 
3029 387 603 1688 5498 3229 98 109 5264 
3903 4793 1779 3205 1158 2275 5882 5190 5316 
781 1885 2762 6002 1332 4505 1601 3994 310 
3817 2645 1976 3451 2328 3410 4813 4911 896 
6062 4886 5029 53 4175 2840 2164 3602 64 
335 5301 2467 4615 1402 2867 4977 874 1108 
4697 3794 5 5135 1607 5430 3726 4475 2834 
4195 3004 1098 4096 3273 289 297 5959 5354 
3824 3492 3813 3749 299 1145 3499 164 5223 
2353 2420 5419 3433 1172 4334 2046 4138 403 
1327 4371 4811 5119 2200 1228 2565 5035 5131 
1551 2017 3676 1760 4837 4165 1596 1563 290 
979 4315 3642 1394 2259 4346 3722 3925 5082 
5219 3055 4387 2322 4405 1347 2215 5111 1428 
323 3714 4105 4915 779 4427 122 8 3519 
3161 1369 3753 407 2280 1412 4053 4003 4831 
1765 1494 2521 4452 4878 4034 1060 4806 3427 
3211 473 3966 2511 3938 5710 5087 769 2529 
5247 946 1429 2643 3217 4726 5632 80 1552 
1389 755 5550 384 6023 5466 4526 489 4496 
972 4569 4208 2830 2421 1107 6037 2827 2634 
3022 4847 4234 1561 2166 4078 5416 1767 897 
4413 5650 3815 2451 6003 747 482 43 1055 
3434 5750 1321 2104 890 5715 1104 3878 546 
5805 3872 4005 827 590 1211 3610 451 1889 
1753 5665 4762 3399 2298 3175 1443 1574 3605 
90 5941 4808 4700 3362 3674 2229 1972 2724 
5189 3653 2968 3389 1748 1898 4864 4042 2110 
5249 1483 1159 3549 348 2824 2704 3811 4654 
3383 5810 5667 2973 5573 4352 531 3313 4176 
4692 934 5654 5813 3043 5146 4663 1313 4858 
4302 3856 633 2721 140 2749 1061 3858 5835 
3262 523 1503 1072 5056 5285 5472 1135 1570 
351 5680 5751 4333 5900 1897 2531 2278 6022 
4860 1088 1630 5590 2812 2807 1089 4223 466 
180 3382 3216 4336 3008 4524 1366 5794 2628 
378 1388 3082 1759 332 4173 1222 5353 174 
5376 327 5732 1647 4017 1806 903 5708 1504 
5154 3808 4607 557 2725 5988 143 1655 1285 
3147 339 1482 4237 449 756 5397 1657 1133 
4402 1663 600 795 2874 777 2462 5963 5393 
3445 5102 1803 721 714 3677 844 1277 4481 
3172 4220 1509 1101 5352 738 5566 3079 5663 
823 165 4693 5627 4918 662 5452 1660 3013 
5355 3635 2369 3893 4854 4678 3479 4550 2042 
5182 963 3329 5378 422 790 2555 588 2956 
2934 2831 899 6067 1550 4843 3862 2639 564 
1844 1715 2953 1801 2899 4671 3731 5142 4188 
177 2354 2745 4248 1877 999 525 2677 4145 
2660 3576 2384 102 4277 4367 4672 5886 5523 
2644 4400 4495 4118 2123 5555 4869 6047 3996 
3119 450 3190 1063 5659 63 5572 2757 1478 
1958 5501 2260 1487 345 2103 2465 759 4151 
1364 5021 1076 3099 998 4675 2751 2508 4311 
2389 1871 5887 4455 4056 3281 3525 5212 3288 
3118 2095 1518 1081 2893 441 1156 476 1922 
188 1962 5967 204 4217 1520 2612 2918 2064 
1716 2154 3125 404 2817 2336 5377 3066 5484 
2416 5757 2881 5578 2930 1002 2850 1905 3548 
900 5423 117 3291 3218 2706 4509 3661 2397 
1424 5318 3911 1572 2698 3278 3647 5600 191 
1774 1750 3721 1874 933 4981 4508 5340 4320 
1240 1776 1670 5254 1978 5329 1608 734 1019 
3031 3460 1177 2437 4258 3107 791 238 4689 
612 5015 3551 4899 2884 3577 1908 4 3632 
3374 5439 3078 2208 5391 949 5033 2040 4905 
3947 1589 4472 138 4628 4290 392 253 3184 
134 4792 5579 6055 3650 1331 3243 82 1511 
4664 3912 4610 4825 5006 947 2317 1643 306 
4701 504 5004 716 5821 2078 1525 2549 3409 
5048 2535 3842 3783 1378 4658 4281 566 5159 
5991 1397 3458 1646 3268 405 2608 1743 3464 
70 4510 2613 799 5824 4372 2815 6046 2020 
5920 1558 4251 664 2586 4146 5953 5216 4187 
1629 2139 1165 4111 3640 4687 57 951 1196 
3237 1486 5902 94 1053 2575 394 350 3758 
481 5332 1045 1830 1180 5288 1819 2885 2057 
4730 5269 5253 1267 687 4865 3227 1169 3847 
1547 6026 5589 5904 5817 3038 3102 5731 2383 
5514 3290 2348 235 268 30 2113 4376 224 
3983 4556 5864 4518 2238 3075 3341 4866 3906 
3365 3045 3173 195 521 4417 1798 1726 1920 
1598 2371 5205 3715 3691 2937 432 2800 5554 
591 1780 2646 4986 5624 4036 3865 19 1912 
4723 4578 5420 3953 696 2498 2851 4659 5325 
2748 65 367 4253 5966 4754 2497 4822 103 
615 5648 3855 3470 5568 67 3053 655 5139 
3415 5758 5058 412 4872 1756 1575 5861 2161 
4263 4428 4243 136 363 391 3740 5018 3316 
5456 5226 2938 1292 1290 885 5104 5479 5392 
5637 6030 3160 3222 93 2351 626 4857 366 
692 2276 650 3857 2961 585 2256 2647 5331 
2963 5881 1782 2408 3034 5128 3352 862 5937 
1896 2264 4789 912 2105 643 2201 1066 6054 
4752 5739 533 5693 4236 672 6004 2352 4992 
5483 4506 5343 4087 4887 4883 3700 2607 3465 
35 2130 1493 1534 401 1100 820 2720 5843 
5016 5695 689 1815 3431 5530 2206 1200 1811 
320 3349 2448 4778 3507 3187 1212 2870 4797 
1832 3432 358 811 1007 5763 4157 4679 1711 
5905 1993 5567 355 4276 871 3050 5799 559 
3948 2932 4940 3146 2539 3483 3456 2332 3495 
5884 3860 952 4054 274 6020 1790 5201 3812 
2398 5901 5220 2218 1117 5720 5787 443 2507 
1924 1488 3888 4920 318 5101 3083 2742 2818 
4194 1565 1233 1314 5617 4803 1325 5163 3667 
1683 5176 2804 599 5596 3768 4804 212 5368 
4291 1580 2376 2901 4182 3215 1357 5842 3177 
649 4758 4791 5660 1204 3254 3251 1894 40 
3649 5349 5032 706 3671 4884 3081 1102 5116 
5747 2694 5679 4083 475 1507 1067 4088 2604 
77 4109 5218 5284 5197 3841 3364 1392 3284 
1916 3129 1631 4850 5993 1989 5248 6044 2073 
5286 1799 4337 2303 5804 5976 5557 4591 5320 
5422 3104 4781 883 2195 2731 1682 349 490 
1559 3866 3016 2214 5138 3120 5322 3633 510 
1092 3712 397 1802 3238 2338 2671 3537 5668 
4889 4631 1974 5520 1542 589 255 5687 3213 
881 1931 5488 4817 5491 3012 4396 5008 3412 
73 1381 7 3972 4094 5907 2622 6063 3919 
5168 187 1205 3692 5267 2759 399 2403 2035 
4445 4621 2340 379 1921 3723 2536 1878 4025 
11 2970 3560 316 3785 968 3023 4639 5425 
3695 2925 4150 4773 1638 6061 5788 5649 1058 
381 534 5475 4305 3814 5911 3400 5688 4943 
3207 5816 1250 4347 2705 4547 1170 1471 6025 
4241 732 5518 3880 3569 4575 5444 1853 5613 
5440 4357 2176 5742 2737 3371 2323 2153 700 
1691 2072 5100 3132 740 2428 4513 3521 2171 
3771 5538 3797 699 3181 2858 3231 2411 3713 
4534 4222 445 2012 1075 5007 1042 5366 5112 
446 1438 4642 5384 1597 2120 864 5326 4286 
1028 2861 3042 5869 1244 1749 3280 1770 602 
5699 1193 2957 806 2888 284 2809 5682 3199 
767 5187 4369 4759 3051 2981 5147 3097 106 
4828 4095 3625 635 750 386 1788 1173 607 
2144 5986 2573 3092 629 2142 4516 2609 1708 
3477 768 3392 4154 5273 1449 382 2226 5894 
2129 1687 3869 4211 3226 1384 145 430 5570 
2029 2366 3267 1858 5653 5985 2413 3764 1480 
5809 3514 6042 5814 1497 213 2115 4763 2728 
3040 1358 3489 4962 4264 3574 395 2394 3790 
940 1241 841 4058 5934 3103 5982 1021 2587 
5607 3397 659 5644 1460 168 701 5792 265 
5871 464 227 705 3641 3901 1289 3183 3221 
5323 402 4942 1843 3533 5245 3357 1054 5132 
4987 2059 258 1650 4284 2044 2691 3405 6 
2693 5327 456 5677 1293 969 677 835 5468 
5089 1532 2178 2477 4061 2994 2949 1034 3693 
4666 584 3148 334 5712 3461 5153 4894 2966 
5077 2923 2794 101 4563 5453 3266 2898 2572 
3179 1050 1778 2368 2892 3326 1841 2527 1032 
1536 2808 2031 5313 2927 1823 2321 13 2177 
5540 5225 1817 4119 4303 325 2267 2729 3077 
3381 3363 5602 5761 4779 5280 5593 1680 4314 
2430 2346 1632 5113 1182 41 1566 1129 1669 
4748 3685 5691 4152 512 3501 3603 1008 39 
16 804 2588 2434 107 3033 690 4990 5345 
4895 1709 2712 225 4826 2183 2244 1673 3881 
1901 2168 5473 4354 393 4965 1014 913 4163 
2314 3287 343 4627 5414 6006 2191 3724 150 
2460 4430 3473 2730 347 1959 1265 1152 3675 
5063 1768 3496 5427 465 6056 4160 2102 3567 
1805 1676 5525 3416 3438 704 3806 3943 5983 
854 2122 5351 1090 1809 3105 4714 5574 5030 
1613 4019 4638 1442 2950 5411 5179 752 2600 
834 3592 1856 4458 4994 3564 1227 4971 4970 
2764 4065 5174 3277 4771 2425 5177 1481 3614 
1485 810 2375 5862 4399 3084 814 4323 3163 
491 4269 2051 1610 2865 2947 5421 4230 4708 
2907 3223 4197 5406 2068 4022 4753 3049 5314 
4080 4519 2832 3361 995 4233 4533 4532 2356 
3820 5910 5408 4226 671 2479 3422 2878 5823 
1336 4669 2710 2273 5013 3699 2631 3282 1311 
3339 4416 2027 5768 3584 5584 266 5832 181 
4785 1865 1459 744 409 3121 1519 3347 5506 
4103 4489 1581 5803 802 4454 254 1543 4421 
359 5233 1914 1966 314 3485 2615 1567 4775 
2146 4148 5876 1128 5231 1923 1740 4032 5385 
2528 1645 5497 2039 4807 4975 597 4908 4015 
3245 5025 342 3421 1287 4378 4796 1935 341 
1755 130 1637 888 2741 3413 4736 3337 5737 
420 485 783 1209 190 766 1640 579 962 
981 832 3897 2690 3149 5622 5651 5971 849 
4743 2125 5517 1 3324 2054 1149 3126 3738 
307 3559 483 907 194 5489 3503 5017 3956 
4604 1161 1226 2148 1379 3607 3705 5726 1739 
3091 2107 408 371 3795 4159 2667 3942 3005 
2025 764 3784 1276 2407 4169 2452 1370 2472 
2004 1662 2849 2905 551 5641 435 5308 1192 
364 1887 319 2066 5054 966 3203 2370 2633 
1622 3274 1769 229 1395 1051 4435 5192 2438 
4011 2391 2982 865 4161 1735 3343 2131 4972 
1490 678 3112 5885 869 3305 1620 4620 3668 
4673 4629 1869 2510 1427 4592 4272 4985 4144 
5612 1474 4474 4564 3035 4653 5662 5728 5581 
6064 5051 2431 2844 3124 1548 3314 308 2494 
5524 2632 616 6060 1527 3915 3891 4209 6007 
1804 1355 5744 688 4259 2713 1517 5628 208 
3310 312 5839 192 3450 2766 5713 2393 5968 
1707 3010 1991 2611 5888 3296 455 338 5434 
3850 1614 2860 1398 4955 2302 4135 1813 1982 
1243 1436 2986 2150 573 2390 4527 4893 184 
4438 4536 1847 623 2155 4549 5459 2049 337 
2929 2871 3206 1435 4956 4397 1719 5746 2785 
4688 2165 4602 1785 5696 608 4935 3597 2734 
5899 2988 4603 4812 5889 4225 1218 3414 5367 
1513 3269 5072 2640 1868 763 2820 444 1979 
3449 870 3550 15 3776 1910 1024 4136 2920 
4922 4129 3006 1584 5196 1700 3788 5903 4751 
436 4570 815 4021 5769 4874 1431 3248 1004 
3698 3719 5999 5580 5827 5293 5237 22 575 
5962 3791 3988 4839 945 552 3835 5244 1167 
1184 4542 1882 3689 2908 5335 5158 4070 916 
4052 17 4330 156 1385 1203 3752 3834 2828 
2538 760 1194 3494 1554 2373 2440 1113 1432 
2453 495 3497 932 1693 3645 278 4204 4437 
2775 1501 5240 5756 5402 5210 4651 1006 3772 
3195 2708 4535 2936 3088 2432 5931 3717 1851 
4742 3403 640 2765 2083 4186 3509 5108 1231 
5185 3636 730 1127 3920 1555 5515 3224 5951 
540 2990 3778 4404 837 3541 2556 3952 1549 
5215 2992 4871 1396 1273 5717 4901 3612 79 
3976 1183 5866 5238 492 27 2525 1469 1043 
583 1995 1120 4951 2240 4694 1372 5106 5718 
5103 3236 4503 956 6043 4271 1208 4795 5045 
4077 5735 5499 4110 5436 2589 2318 2138 3979 
298 1087 3654 3711 2845 1665 5915 6009 1188 
415 1283 2433 4385 4047 2246 1199 3554 5303 
5099 4566 1333 6035 3228 4310 1181 3197 3630 
6069 92 887 628 1936 5670 3061 4614 3482 
530 1541 2063 5221 3781 634 5202 4885 5105 
2224 4422 373 1886 2919 331 3182 1986 1903 
4941 1587 2682 2466 4882 1492 5010 1439 4827 
1741 5618 1467 986 1590 4501 1003 4580 200 
5125 4384 1919 353 577 4023 4235 3377 2740 
3688 5047 1315 4275 4930 5740 3115 2076 3311 
985 4348 251 3982 146 4539 5745 4240 5614 
2319 1909 1872 3840 47 3665 2944 4790 5435 
5786 1346 336 3512 5026 4502 3321 547 2516 
5833 3135 2091 3591 3646 1870 610 1939 4270 
1201 2651 4205 5773 4820 4770 5974 1724 4373 
980 2315 2187 1967 1515 4745 453 1930 5369 
2077 5429 2357 2223 132 3921 3651 4686 5199 
3000 4158 3257 3578 3757 5909 526 3194 5150 
5598 4749 1236 4043 1899 1849 4040 3615 3423 
625 3174 4351 5403 1506 288 3977 1546 3044 
216 1751 5115 2436 1312 1363 4605 170 5657 
2656 1792 4192 673 3133 3596 2279 5407 5312 
3989 3595 3546 3335 3017 5251 3024 2047 5845 
1217 5405 1386 3826 4164 5564 3241 3505 5647 
5126 3180 3189 1510 3600 2454 1850 5442 3637 
2598 2806 4881 2196 1579 2249 1698 5441 2674 
3072 5470 3563 5918 5300 653 66 3804 2723 
1831 3971 3833 3763 3395 158 4099 3558 4959 
3261 536 2623 2405 793 1793 3907 2299 2566 
421 4924 989 3411 1085 3655 3873 4097 1890 
5446 1015 3570 5924 321 4329 1714 5365 1917 
4448 2786 4640 419 276 4125 624 3643 126 
977 1710 5321 1593 4332 3770 5921 641 858 
939 2835 2769 1065 3877 99 1080 1154 2558 
141 2979 2060 1954 4196 2653 3372 89 4006 
4649 2941 4876 5764 237 4619 878 2942 2011 
472 3491 4707 2222 3331 1361 3247 4600 4301 
847 3886 3350 1635 2754 898 2045 4228 5844 
1214 3292 1074 719 4551 2857 3741 4916 3899 
4978 3535 1675 2053 2802 2242 754 5956 301 
3926 2503 3799 3623 4086 3843 4345 3951 5825 
6029 5800 5762 1229 2032 5085 352 1197 4538 
3244 955 4383 1207 3703 4249 257 5891 2777 
1367 4904 948 2735 2577 5295 285 5361 242 
4029 680 4523 508 4433 529 1526 2666 3021 
3701 2227 24 3036 249 2512 4358 84 4681 
3176 4852 3851 2021 5995 2605 1934 2803 4478 
2005 4577 2699 5639 2324 259 1316 2882 4124 
4630 91 1115 4853 5175 5081 1062 3565 18 
4219 1155 2245 5872 3622 3892 3444 5560 2174 
2085 5546 3542 3384 2239 4212 2305 6048 5852 
2290 4092 2951 263 5344 5928 1573 5121 3442 
4425 522 2560 539 2940 1797 5583 5714 5615 
720 4039 2657 5694 1405 973 5409 2388 2210 
4721 4991 1987 3417 2793 3019 770 5636 2798 
2385 4764 5098 5305 4444 3950 5096 4221 273 
2955 3957 4024 2761 5191 3366 1434 247 411 
1712 5729 4683 172 2082 5634 2585 5807 2719 
2862 3319 892 4295 5172 311 498 178 3510 
5914 5404 1808 2270 2996 4961 4287 4252 4545 
3003 996 4089 5133 1697 2106 4178 3498 4368 
3271 698 1592 3816 2997 3518 921 3138 2423 
2522 4565 4260 429 5502 31 2014 6016 1937 
173 1418 1618 5730 3522 4557 3670 86 2954 
3057 5582 4283 2541 4453 1603 5992 4465 5883 
163 1403 1845 1269 3359 4388 1320 3652 2727 
3618 524 1473 2711 1884 2339 4599 1046 1186 
4645 1334 5302 5943 5859 499 1941 1604 4725 
5675 817 5722 4179 21 69 2880 281 5970 
478 2578 5629 1468 3796 6005 5640 682 467 
5476 4597 2409 5374 5875 4363 5939 4424 5342 
4923 2758 2933 5516 447 6038 4386 3067 733 
3823 2386 1279 5165 5748 2576 4242 1623 4859 
2583 1036 4170 2877 3868 5060 1038 1420 1264 
5652 169 2943 5065 4834 484 1980 1349 4497 
788 497 1411 1732 4696 3264 6019 5055 753 
2688 4933 54 3579 416 1720 1942 2377 5942 
2703 2709 5167 1535 4076 2387 983 2568 2502 
5847 1198 2441 3388 5467 4321 1297 855 2842 
4662 3048 4890 4655 1531 541 4757 1599 2253 
370 1983 761 3944 576 3849 199 3394 3354 
5575 919 5798 2463 1717 1401 2787 4200 5338 
3468 5621 2964 2335 1178 1282 4768 4340 5413 
4328 226 3407 3353 3863 807 5317 3572 2381 
4625 931 2204 1498 1140 527 287 5458 757 
1658 2909 460 3963 3601 1246 62 4934 5701 
5156 5779 2999 859 611 2680 3039 5350 2599 
5242 2216 3967 3706 2509 3762 4492 1012 256 
1794 4214 182 1261 5646 731 4939 3457 4462 
5042 2550 127 3393 562 3100 4531 104 771 
2325 5527 2619 1047 1545 1136 4921 2449 1041 
2308 2435 2686 1238 3336 1926 4722 691 5398 
661 4020 5492 431 2158 1644 2967 3555 3536 
4059 4391 1692 2205 2917 3130 3007 2184 3070 
3328 1489 1202 621 2137 4914 3970 1722 2300 
3832 922 4702 775 4588 1981 984 2505 6032 
198 1564 580 3168 1444 3307 1828 3285 479 
1451 1615 3710 48 5494 3142 2075 5548 5400 
3210 4698 4799 1864 1461 3059 5896 2093 5426 
76 4393 1686 1132 5948 1440 3838 1463 5399 
1125 418 4406 1763 2359 4989 4466 4193 5616 
3821 5678 2524 2473 5893 4168 6011 4343 3467 
3848 4429 2189 1784 4756 784 520 693 4579 
4718 1376 1533 3990 3312 5281 5585 506 857 
3425 3644 4634 5088 1110 129 4113 2364 5292 
2471 853 5898 439 5716 1073 6041 1988 813 
346 4313 383 1146 2193 142 4680 3151 3981 
1839 3052 762 4772 1827 4102 4782 4484 2114 
3325 211 1904 5162 5601 3839 3986 5228 3733 
5753 152 3933 2985 4747 1437 1239 630 4814 
3922 595 1288 100 1996 5109 1475 5207 1025 
5107 1422 2561 3805 3293 1633 5912 2037 5461 
1020 5850 5193 758 1848 3493 4293 1094 4617 
3139 891 2496 3297 2916 137 356 4521 809 
5078 1103 5097 2975 1783 620 1591 4392 5346 
469 3360 1619 5774 5576 2296 5134 1175 3063 
5796 3202 4180 1112 5897 2642 234 3932 2752 
3656 5802 5536 4637 3991 1118 2458 2836 1341 
2230 3109 2345 839 993 4266 5241 1301 3001 
6034 5940 4717 214 1639 4390 2001 4069 749 
4172 2188 5987 5994 3030 1674 4181 2069 423 
4411 1852 135 3165 277 1338 6051 3552 33 
222 5337 1423 3775 2669 5261 2002 5000 442 
4632 2209 2172 2461 2190 2791 5534 997 5074 
1528 5837 3800 1611 2459 5336 2722 4528 5363 
1539 2636 3508 4794 3429 2679 1667 85 5230 
5485 592 5749 1153 4823 2782 3186 517 4938 
4585 87 374 3978 4121 5676 3792 3209 5171 
4051 1294 1039 6040 2159 3807 5188 2616 4746 
1537 4115 4960 3690 360 2822 5464 1862 1257 
45 2382 1973 5433 967 1068 5155 244 14 
139 4587 5945 2911 219 4246 6052 4308 3916 
1413 4084 5213 5822 2939 1375 3639 5938 818 
3276 1352 2101 1900 2124 2043 5381 889 2518 
236 5186 3302 978 787 5703 3378 5315 2055 
2700 5339 3702 538 4101 4836 3735 5944 4691 
3658 776 1319 3154 5283 3367 2551 712 279 
5846 944 5980 5477 565 470 474 4419 5529 
1777 3025 6028 3379 1111 5606 4646 3935 6050 
4636 2945 175 4984 1791 3056 3322 4201 1866 
5558 5386 2395 4993 2873 3513 748 2180 5160 
2776 2007 1011 3401 3679 4018 5820 2018 4888 
666 4183 1948 3484 3113 161 1324 4656 646 
3575 2783 2337 2847 459 2152 260 3258 5565 
4431 4199 2621 2707 3864 697 3662 2392 4464 
3150 554 800 4810 3589 3153 3760 210 4541 
5707 5626 1595 5719 4555 4112 5234 5276 2424 
2127 5969 2517 2422 2960 272 4525 5083 4049 
4863 572 882 2540 2444 270 112 2456 5588 
4668 2811 6033 2866 4685 4520 5874 5396 3095 
4339 4261 4298 4353 3167 2537 2175 2170 5370 
3208 5046 4359 1304 2284 1977 4126 4713 2602 
4028 1938 1642 1409 1713 3730 657 2492 3747 
380 2225 2629 4100 4447 4379 1496 4349 1374 
1348 1414 4476 1365 3089 4395 4988 231 3065 
3074 5553 1947 5173 3334 4215 1654 4892 3539 
2350 851 1952 36 2160 4500 5282 3894 5094 
4650 1860 5066 846 105 2768 1134 5754 938 
5927 5227 1529 1213 6021 4063 4586 1932 2897 
1502 5275 3949 543 4897 4964 3968 3746 2678 
3452 5681 1971 5250 1340 4734 2875 434 4071 
2429 5208 4741 3323 2162 3593 294 4560 196 
3876 3745 4838 3152 5136 3786 3729 5395 3520 
1070 821 2281 1963 4767 2023 4030 5510 3487 
5591 780 1729 157 2207 4819 4616 1457 2750 
2995 215 3586 1023 550 269 5711 1524 3068 
2718 2784 910 3648 4522 4307 480 631 1816 
5330 1758 2119 1789 563 5815 4705 1664 1530 
4122 304 5925 1915 772 5059 2198 3094 5310 
5599 617 3766 879 1147 2506 5180 1009 1861 
4338 3985 3707 3975 2097 876 2048 4137 2233 
5913 2140 4350 3275 1452 2157 1160 3774 3742 
4267 2443 5604 5841 4676 856 4601 6039 848 
2343 2052 4141 4944 2969 514 4927 3301 1957 
1745 3720 124 5806 4038 1189 3020 1946 1969 
1569 4280 2232 3101 509 570 493 3566 3946 
4973 5642 2980 1562 4870 3945 2297 333 4434 
532 5382 2921 3490 4661 5775 4202 1131 4292 
637 5166 1586 5674 868 2135 2739 668 1795 
1260 679 1328 2277 4898 1391 3122 1544 2008 
1305 5070 4512 5507 5633 5673 3299 2856 5919 
1933 5252 5780 965 2630 3087 647 2983 4815 
5880 2372 2513 3185 4439 2935 4780 1893 2221 
4309 267 3616 5390 3887 5723 4546 884 3406 
4104 4050 438 5795 2931 2488 4968 2781 4450 
5334 2447 2958 4552 1960 426 3782 2128 4114 
1084 5791 4732 6013 486 123 5093 778 5204 
3294 4156 5278 1701 162 3657 1029 2254 3441 
4750 663 6017 4098 5666 3476 1678 3704 3191 
5064 3904 171 2026 1013 1621 4322 56 2310 
4127 3777 2111 477 160 5161 1049 3750 1773 
2126 828 925 953 1730 2790 3390 5793 2530 
1059 4033 5266 2972 2349 440 1371 5952 4239 
4449 3914 2426 10 2455 2087 2665 3463 2625 
3748 1224 4777 2736 2427 4355 2255 3619 1275 
4879 1137 4341 2557 1470 1300 3242 3590 1514 
568 1462 2854 2116 23 943 618 3300 3516 
2789 417 223 5214 3446 3309 5965 1445 2192 
4031 5656 3556 4285 1454 500 3664 1624 2675 
1187 2519 6008 261 5865 5932 4229 2756 1221 
2903 1176 5493 2181 950 1836 3734 741 4849 
4477 717 1609 3709 4068 2838 5561 4903 5771 
197 2439 4057 1171 1299 2237 5415 2034 34 
1408 205 1854 1164 1465 6012 2019 1330 4255 
4931 3408 5725 4418 3385 5539 496 5551 9 
1994 193 1124 4072 794 2692 5595 3540 3913 
4075 5181 4132 2263 4008 930 2552 3110 1253 
4774 2852 5412 5360 5005 801 3358 1557 1356 
3993 694 2203 3002 4724 622 97 713 2445 
2333 3879 3166 4830 6001 4929 4331 5812 1826 
2474 1928 5908 4016 3085 4335 5198 6024 840 
2760 3678 1702 5260 2499 2194 12 1472 3530 
2417 4324 960 5462 5608 2006 3240 1126 4731 