# vtk DataFile Version 4.2
Generated by LIGGGHTS
ASCII
DATASET POLYDATA
POINTS 5997 float
-0.00445097 -0.0193551 0.0129606 0.0074791 -0.0220529 0.0126107 0.0050448 -0.0232908 0.0127035 
0.00218562 -0.0236099 0.0128037 0.00531197 -0.0210925 0.0129596 0.00981395 -0.0217704 0.0124749 
0.0148098 -0.0162249 0.0130939 0.011932 -0.0154665 0.0128695 -0.0168461 -0.0168802 0.0163352 
-0.014758 -0.0184338 0.0137027 -0.0164152 -0.0173414 0.0139642 -0.012298 -0.0181945 0.0138301 
-0.0119834 -0.0206743 0.0137935 -0.0134536 -0.0196101 0.0146618 -0.010527 -0.0192832 0.0141018 
-0.0102262 -0.0215803 0.0141886 -0.00989445 -0.0174436 0.0146539 -0.0132226 -0.0177627 0.015666 
-0.0150029 -0.0168327 0.0155447 -0.0114192 -0.0169018 0.0158405 -0.0116118 -0.0189348 0.0158387 
-0.0115541 -0.0209479 0.0157304 -0.0149387 -0.018691 0.0163494 -0.0132387 -0.0198168 0.0166412 
-0.0120189 -0.0183869 0.0178894 -0.0141039 -0.017367 0.0175945 -0.00999195 -0.0181614 0.0167208 
-0.0163322 -0.0173943 0.0182227 -0.0149453 -0.0186829 0.0188974 -0.0133018 -0.0197993 0.0186539 
-0.0129484 -0.0171231 0.019209 -0.0160614 -0.0177318 0.0202678 -0.0117818 -0.0208175 0.0178092 
-0.0107992 -0.019508 0.0190663 -0.0123474 -0.0204485 0.0202878 -0.0141032 -0.0191893 0.0206412 
-0.0142056 -0.0170766 0.0210868 -0.0111666 -0.017721 0.0199029 -0.0108788 -0.0193247 0.0210822 
-0.0107879 -0.0213713 0.0211333 -0.0103669 -0.0214756 0.0191765 -0.00965109 -0.0203173 0.0156455 
-0.00990682 -0.021526 0.01722 -0.00952692 -0.0167074 0.0180121 -0.0091222 -0.0189102 0.0202098 
-0.0091858 -0.0168574 0.0205377 -0.0091196 -0.0195363 0.0179242 -0.00897772 -0.0220995 0.0204794 
-0.00880675 -0.0201584 0.0133118 -0.00868216 -0.0222076 0.0156594 -0.00856416 -0.0222541 0.018526 
-0.00833938 -0.0180294 0.013537 -0.00529303 -0.0172104 0.0136108 -0.00670743 -0.019283 0.0133456 
-0.00530456 -0.0211752 0.0134283 -0.00284764 -0.0174061 0.0133666 -0.00334375 -0.0215827 0.013233 
-0.00839751 -0.0221585 0.0135879 -0.00439478 -0.0234161 0.0138441 -0.00639553 -0.0228589 0.013553 
-0.00680092 -0.0179549 0.0148701 -0.00217592 -0.0237492 0.0139797 -0.00241083 -0.0195841 0.0140362 
-0.00121949 -0.0220258 0.013534 -0.00826528 -0.0168857 0.0157478 -0.00528787 -0.0192838 0.0149236 
-0.00392489 -0.0176859 0.0150309 -0.00768244 -0.0205909 0.0149401 -0.0043069 -0.021803 0.0150502 
-0.00311637 -0.0236142 0.0157615 -0.00191542 -0.0219559 0.0155543 -0.00671012 -0.0227347 0.0155425 
-0.00823368 -0.0188951 0.015998 -0.00600614 -0.0208527 0.0160349 -0.00763013 -0.0208995 0.0173416 
-0.00348493 -0.0195564 0.0157901 -0.0023203 -0.0175664 0.0163351 -0.00495856 -0.0232114 0.0164666 
-0.0067017 -0.0230017 0.0179729 -0.00542705 -0.0214296 0.0179662 -0.003371 -0.0213999 0.016823 
-0.00362204 -0.0233193 0.0179661 -0.00238113 -0.0196677 0.0174627 -0.00708368 -0.022754 0.0199841 
-0.00750531 -0.0208257 0.021017 -0.00485988 -0.0216892 0.0200424 -0.00335078 -0.0208622 0.0188089 
-0.00311056 -0.019933 0.0206058 -0.00336614 -0.0236116 0.0199514 -0.00150689 -0.0234292 0.0173129 
-0.00172426 -0.0180912 0.0192433 -0.00195607 -0.0223135 0.0192359 -0.00141863 -0.0189093 0.021126 
-0.00142329 -0.0203238 0.0191116 -0.00148943 -0.0211491 0.0209932 -0.000734435 -0.02383 0.0154944 
-0.000871788 -0.0200469 0.016028 -0.000709636 -0.0181948 0.0175237 -0.00141894 -0.0239097 0.0205332 
-0.000361275 -0.0219494 0.0180696 -0.000248961 -0.0177403 0.0137178 -0.000177232 -0.0167775 0.0188604 
0.00147232 -0.0189783 0.0134235 0.00358797 -0.0182283 0.0135201 -0.000158625 -0.0238531 0.0133218 
0.00773346 -0.017896 0.01358 0.00129384 -0.0217071 0.0137489 2.87663e-05 -0.0201693 0.0142087 
0.00147369 -0.0168995 0.0147839 0.00634031 -0.0170009 0.014851 0.00734037 -0.0199022 0.0141402 
0.00351607 -0.0166603 0.0147596 0.00463572 -0.0187633 0.0154562 0.00304953 -0.0202147 0.0139377 
0.00637892 -0.0227002 0.0144501 0.00251609 -0.0183815 0.0156999 0.000118356 -0.0219561 0.0159964 
0.000206784 -0.0182771 0.0157312 0.00134878 -0.0201594 0.0159379 0.00500798 -0.0169183 0.0163996 
0.00128258 -0.023623 0.0146946 0.00339644 -0.0234247 0.0146326 0.00504781 -0.0208884 0.0152033 
0.00713705 -0.0184055 0.0164894 0.00299994 -0.01978 0.0172007 0.000224498 -0.0200685 0.0177069 
0.00100048 -0.0237995 0.0167397 0.00522442 -0.0231456 0.0160393 0.00130391 -0.0183942 0.0174021 
0.0028528 -0.0219172 0.0158327 0.0038318 -0.017988 0.0177373 0.00345488 -0.0234177 0.0170531 
0.00214144 -0.017321 0.0189162 0.000386602 -0.0187094 0.0191911 0.0017391 -0.0216057 0.0176642 
-4.04055e-05 -0.0238695 0.0186212 0.000688464 -0.0201954 0.020549 0.00257081 -0.017841 0.0208199 
0.00114661 -0.0219671 0.0195758 -5.30314e-05 -0.0174696 0.0207592 0.00256116 -0.0235481 0.0191602 
0.00790642 -0.0170105 0.0186909 0.000785973 -0.0237946 0.0206926 0.00962708 -0.0195138 0.013557 
0.0122946 -0.0204363 0.0132243 0.0131778 -0.0178403 0.0136029 0.0167141 -0.0169953 0.0136091 
0.0151497 -0.0183575 0.0137555 0.0111808 -0.0166828 0.0147774 0.00948542 -0.0179562 0.0148104 
0.0105076 -0.0209539 0.0146769 0.0113224 -0.0189629 0.0146458 0.0140985 -0.0192876 0.0153245 
0.0159773 -0.0178045 0.0156548 0.00881602 -0.0220736 0.0144678 0.00894496 -0.0221529 0.0166653 
0.00867979 -0.0195712 0.0156932 0.0088798 -0.0174423 0.0166759 0.0144355 -0.0167768 0.0164321 
0.0111233 -0.0187237 0.0169441 0.0122088 -0.0203366 0.015924 0.0166011 -0.0168883 0.0173489 
0.0103976 -0.0207357 0.0167756 0.015157 -0.0185411 0.0173484 0.0105915 -0.0166846 0.0176648 
0.0129938 -0.0180905 0.0172667 0.0128462 -0.0201829 0.0180197 0.00943861 -0.0186385 0.0182059 
0.00998134 -0.0216729 0.0185351 0.0158542 -0.0179207 0.0192424 0.0119215 -0.0172705 0.0190525 
0.0133562 -0.0187865 0.0196337 0.0111419 -0.0195953 0.0190886 0.0166073 -0.0168037 0.0207222 
0.0137775 -0.016873 0.0201205 0.00996055 -0.0167327 0.0197235 0.014891 -0.0183635 0.0209517 
0.0107657 -0.0212799 0.020353 0.0110407 -0.0182004 0.0206921 0.00890526 -0.0179822 0.0211532 
-0.0177162 -0.0159784 0.0178958 -0.0174363 -0.0162741 0.0203215 -0.0178038 -0.0158809 0.0140799 
-0.0191623 -0.0144008 0.0140979 -0.0208922 -0.0112983 0.0137892 -0.0218809 -0.00955592 0.0137009 
-0.0187932 -0.00910235 0.013835 -0.0201063 -0.0128048 0.014887 -0.0207836 -0.00818105 0.0147705 
-0.0200909 -0.0100376 0.0151345 -0.0184468 -0.0125668 0.0137484 -0.017634 -0.0107441 0.0138572 
-0.0181933 -0.0154315 0.0160096 -0.0186611 -0.0113539 0.0156578 -0.0194375 -0.0139327 0.0164686 
-0.0204644 -0.0122558 0.0168367 -0.0214681 -0.0105225 0.0165237 -0.0203893 -0.00881088 0.0166892 
-0.0222843 -0.00876083 0.0159912 -0.0184933 -0.00891622 0.0159816 -0.0195488 -0.0105317 0.0172754 
-0.0184701 -0.0122014 0.0175362 -0.0175681 -0.0102431 0.0173355 -0.017441 -0.00826089 0.0175686 
-0.0187745 -0.0147859 0.0203792 -0.0200878 -0.0128814 0.0187068 -0.0210593 -0.0111513 0.0184529 
-0.0220207 -0.00942684 0.0181169 -0.0190054 -0.00907898 0.0185417 -0.0206776 -0.0117911 0.0203297 
-0.0203968 -0.00971979 0.0198302 -0.0221956 -0.00897832 0.0202915 -0.0191726 -0.0111442 0.0191422 
-0.0184997 -0.0128511 0.0199375 -0.0187258 -0.0142913 0.0183053 -0.0205805 -0.00826107 0.0212402 
-0.0187274 -0.00854635 0.0205368 -0.0181964 -0.0104635 0.0207508 -0.0176866 -0.0130945 0.0158464 
-0.0171799 -0.0113258 0.0190553 -0.0171521 -0.00933385 0.0192482 -0.0170735 -0.0140259 0.0138294 
-0.0170317 -0.0132812 0.0186489 -0.0148441 -0.0164534 0.0192377 -0.0149077 -0.0160052 0.0136374 
-0.0129926 -0.0162936 0.0141337 -0.0114702 -0.016303 0.0177627 -0.0122559 -0.0163008 0.0209021 
-0.0162829 -0.0152498 0.0152642 -0.0110474 -0.0155761 0.0140046 -0.0150727 -0.0138849 0.0138373 
-0.0160589 -0.00945751 0.0140573 -0.0160727 -0.0121448 0.0137438 -0.0135652 -0.00905792 0.0141761 
-0.014542 -0.0108205 0.0140918 -0.0122246 -0.0118749 0.0142609 -0.0115951 -0.00855196 0.0145081 
-0.0110829 -0.013553 0.0141419 -0.00998698 -0.00949945 0.0137584 -0.0102312 -0.01164 0.0142806 
-0.0126949 -0.010325 0.0155258 -0.0139389 -0.0123043 0.0153163 -0.0130484 -0.0140583 0.014259 
-0.00896488 -0.0133654 0.0139826 -0.0130674 -0.015968 0.0165715 -0.0153764 -0.0158251 0.0173971 
-0.010567 -0.0158569 0.0194932 -0.0143852 -0.0147127 0.0156768 -0.0115985 -0.0146384 0.0159891 
-0.016382 -0.0110748 0.0154351 -0.0109563 -0.0108247 0.0164082 -0.015683 -0.0131745 0.01592 
-0.0145353 -0.0085597 0.015872 -0.010314 -0.0127357 0.016202 -0.00986454 -0.0156032 0.0157013 
-0.00926047 -0.0100021 0.015554 -0.0156983 -0.0155268 0.0209672 -0.0167743 -0.0144338 0.0170327 
-0.0164947 -0.00914531 0.0160348 -0.0146083 -0.0105253 0.0162611 -0.012634 -0.00928242 0.017282 
-0.0107681 -0.00881993 0.016328 -0.0164933 -0.0119281 0.0172632 -0.0156565 -0.00980179 0.0178435 
-0.0100147 -0.0147995 0.0175579 -0.0163468 -0.0151155 0.0190731 -0.0134974 -0.0087506 0.0190133 
-0.0152235 -0.00942945 0.0197722 -0.0115715 -0.00908604 0.0194343 -0.0101214 -0.0101236 0.0203579 
-0.00964747 -0.0090166 0.018523 -0.0167453 -0.0138267 0.0206943 -0.0162304 -0.0108319 0.0207869 
-0.013849 -0.00917108 0.021272 -0.0106043 -0.0150678 0.0213366 -0.00974054 -0.0109499 0.0179908 
-0.00930851 -0.0129174 0.0179237 -0.00934267 -0.0138195 0.0200984 -0.00924685 -0.0118176 0.0197294 
-0.0090397 -0.0154382 0.013837 -0.00391948 -0.0155145 0.0135262 -0.00542753 -0.0141843 0.0136934 
-0.00803557 -0.00957682 0.0133257 -0.00611518 -0.0110691 0.0135376 -0.00171054 -0.00912127 0.0136304 
-0.00163654 -0.0154988 0.0136687 -0.00227838 -0.0126179 0.0136601 -0.00713539 -0.0161931 0.0138517 
-0.00208406 -0.0164743 0.020409 -0.000553318 -0.0163827 0.0153928 -0.0069765 -0.0128851 0.01382 
-0.00458021 -0.0122164 0.0143482 -0.00382462 -0.00945606 0.0137758 -0.00587703 -0.00874237 0.0138936 
-0.00295741 -0.0110419 0.0147398 -0.00350376 -0.0138755 0.0146533 -0.00823913 -0.0115088 0.0145608 
-0.00535232 -0.0156591 0.0150711 -0.00277568 -0.0158839 0.0153087 -0.00707574 -0.0145817 0.0151371 
-0.00781336 -0.00827391 0.0152614 -0.00265168 -0.00913762 0.0154466 -0.00524991 -0.0136547 0.0156984 
[...]
POINT_DATA 5997
FIELD FieldData 7
id 1 5997 int
2627 4819 2745 1731 3965 56 2532 3443 541 
1183 4320 5343 5068 2147 3411 5700 3294 781 
4345 1394 4862 3449 214 5520 3527 5739 2783 
4359 3360 687 4792 6025 1760 88 3194 1945 
518 2118 5451 4649 3110 1742 174 5608 392 
2978 630 189 5424 1270 3352 2663 4247 1653 
1320 5559 1646 5990 5870 828 2053 3554 5215 
1775 4726 5014 1162 453 5730 1267 2769 2695 
396 4328 4652 4404 2875 2234 6057 5644 1262 
1652 2482 997 4054 825 4498 269 1859 5959 
5569 5762 1223 4667 3925 1667 1186 3185 5864 
4840 1302 598 2885 1843 345 3325 3571 863 
1249 4349 3065 4448 4351 1913 377 977 2926 
4846 1148 925 2121 4114 1091 708 5657 4892 
5136 1021 4976 4143 572 5348 5780 3050 315 
6046 718 3374 3629 5585 3255 3356 4813 5633 
1008 127 2838 154 3289 3132 1382 1237 3472 
2205 4090 3750 5252 2193 77 3416 1836 3699 
2059 5449 3257 1397 1758 2126 383 2063 3646 
1502 993 4024 5310 5280 2162 3777 2920 1078 
5022 769 3539 1482 5866 1885 5224 4995 5066 
5902 3256 2383 4187 1953 1591 2271 5108 233 
4789 1243 644 2424 3378 5099 5163 6065 1358 
795 5525 815 4088 1580 4738 4959 1440 2023 
401 2366 5933 4307 4080 183 4313 2468 5292 
253 4547 4908 449 1868 2157 3751 3060 3529 
433 1969 2932 1131 2266 1920 963 830 2687 
5260 6066 241 5663 3552 5498 1300 987 3 
1010 931 1046 2471 1699 3759 4440 4266 4447 
3062 2337 4740 3291 290 2212 5491 3078 2309 
3279 1324 330 3537 3219 3574 3661 5630 2419 
2541 5526 455 4292 3423 2915 742 262 372 
553 2095 1019 3631 1017 4127 3146 1698 2762 
3538 5356 352 4146 852 5532 3640 3691 3134 
1043 4258 5349 443 3919 3901 2151 1033 1993 
195 1880 2693 1090 4198 4967 4755 192 519 
5677 2676 2253 3557 365 5773 338 2803 714 
1092 2169 3860 4687 4774 5220 3152 3822 4275 
2523 2077 4468 3131 473 3420 4920 2434 1142 
1429 2499 2098 4529 2572 1650 2767 3827 2994 
5002 1538 4842 3397 1177 104 752 39 647 
4180 2122 1232 4172 3320 3207 5847 3995 1204 
4089 1153 1286 2196 1658 4368 126 1390 3693 
4992 636 3922 5126 2462 3354 4160 3309 627 
3645 2931 889 1801 3262 1147 1939 2729 1002 
5409 3055 1524 4589 5979 2789 122 981 1233 
3285 3940 1381 5183 1521 5562 251 3340 5405 
4380 573 5829 3839 5551 1009 3311 101 199 
5976 2340 1583 1107 3487 685 3264 4500 2710 
1127 1577 1777 4874 3336 885 3781 3075 668 
975 692 5006 3695 1638 3656 1584 5483 344 
3104 982 2290 2612 4818 294 2522 4822 4897 
4578 399 3856 1639 703 3082 2535 1501 3746 
2590 3464 1230 3018 5785 4784 2074 953 3010 
5704 6039 4618 507 6009 4816 1400 2294 1045 
3671 3341 163 5241 2223 2960 5879 2275 200 
5403 719 824 1592 2186 5712 4745 2233 3475 
5894 800 1263 1808 689 353 989 756 5361 
2387 5281 4626 5641 5732 568 31 5297 5481 
1829 2244 3153 4791 2016 3453 5235 4855 812 
4733 285 2836 3593 882 1912 4850 5013 4706 
301 1032 3760 1326 909 1453 4951 4999 956 
5878 4299 3263 1461 452 5702 5279 1505 1188 
2128 1433 1746 250 2848 3299 672 5057 1343 
2213 339 5050 1917 1813 1644 5868 3469 569 
1924 3564 5488 4780 2327 1101 3761 2454 4779 
1388 2552 2720 3948 2463 513 260 211 1316 
1575 2841 1711 1120 5329 2991 184 5705 5765 
2941 3981 168 1346 5694 1954 3926 4274 4402 
3465 4001 659 118 3848 970 252 4291 2863 
2248 147 2903 1632 2496 3327 3033 3544 5453 
4964 3014 537 219 2808 4074 1175 3081 4512 
2916 3228 516 3943 1542 921 355 716 4344 
2026 591 3768 2533 1351 5360 4139 1660 2333 
4826 5890 4119 2624 3364 5005 5289 4723 2448 
1049 2491 2576 2347 899 3973 1117 1907 735 
1702 1908 4438 4463 2929 5838 4623 1941 3402 
4179 1488 3685 5156 926 4379 2191 4082 3381 
2529 5030 4025 4153 2216 4057 3063 4081 2970 
5699 1373 2678 2485 434 691 1998 2750 1511 
1657 143 374 4250 1983 1936 3635 1786 3386 
1507 1895 1815 30 2331 4389 529 2341 4194 
3871 5052 1976 2197 1259 494 2376 2647 2470 
2761 3947 185 3099 2596 5454 998 1329 3466 
5301 512 794 4781 3333 5284 629 750 3440 
4691 1435 3658 634 446 5064 2292 2283 720 
2400 5583 3900 1922 1130 317 1756 1790 2787 
782 2682 4217 3118 111 2138 3275 2153 2628 
5833 4991 1165 1339 3870 1925 2958 5931 5397 
5861 393 2559 3497 3724 1779 3846 3928 1539 
2502 1548 2324 1219 3414 2814 470 1193 1830 
3272 1218 3831 3178 1113 4 5168 2740 4825 
2657 846 4240 17 867 1874 2256 5436 1504 
4397 1992 4845 2028 4796 4615 539 3811 3133 
5684 5370 2817 2712 1209 2262 1231 3432 1599 
2111 2844 4641 3521 2200 5797 273 62 3489 
1497 3828 292 4525 4749 3984 4381 4158 4815 
3738 2746 4520 5088 5523 4390 1371 1139 3439 
3887 3954 5696 1362 5871 5872 4919 4508 3711 
2540 5662 4727 3722 3218 5812 3197 5515 5669 
3027 5061 4467 4315 485 3613 5159 3975 406 
19 521 5078 3016 2867 1620 2170 487 3101 
5660 120 5692 4281 1160 4544 524 1414 561 
5554 4268 5966 2310 3403 4601 1296 1867 5666 
2214 589 2094 3288 4262 1227 5949 509 4327 
4661 4942 3684 3858 5845 1328 853 5323 5217 
27 3703 4488 3747 4548 5695 4574 4624 4495 
5589 3278 5399 5352 5008 5396 3769 5134 5686 
4668 874 2305 1396 4196 4162 84 2172 4034 
5575 4126 5840 3861 1102 1452 4264 2694 1685 
3676 811 3433 5875 2295 4538 1403 5298 3112 
4633 2679 5245 5336 3496 1596 1823 16 6023 
5461 704 5602 2168 4484 3405 2430 4479 3785 
3806 1533 1959 4078 5614 595 6005 5042 5825 
834 2392 1050 5053 4135 1398 4679 979 3698 
280 234 2907 5987 1552 2428 2606 3727 3675 
3850 1568 3879 5760 1855 1425 1677 2756 5709 
4594 4839 5748 4695 4227 2061 3592 3165 5227 
3823 3444 5085 992 1743 2141 3560 1030 5062 
5955 2642 5610 4413 3292 5653 5557 1093 3634 
2322 3519 5082 4591 562 4197 5070 3625 4914 
5315 5742 2928 3713 1882 1878 1545 316 1238 
787 5092 4648 3493 2362 3393 2069 4943 6052 
1039 3307 4357 5975 1141 5406 2361 2859 177 
4373 3648 4681 4821 4922 3430 5598 5672 4880 
3994 5350 5369 1439 1906 1679 2804 5493 337 
1134 2279 4442 4960 5790 2732 2872 6038 4751 
833 2791 4212 3982 5967 4570 5100 2085 3045 
5131 5734 5937 5977 216 2418 821 2668 3329 
5938 3976 2020 4828 2602 4843 4098 5111 621 
1664 1369 1375 1519 3666 2503 6008 826 3842 
2953 1083 5646 2174 3968 3390 2640 2272 4443 
1747 1738 3245 5004 4671 3189 3657 2751 5802 
1062 5744 3859 952 5817 3409 4321 283 1991 
1581 1550 5354 3008 4941 3305 5793 3881 3800 
1890 5255 2442 5590 4721 3892 102 3365 4888 
4064 5519 1108 2741 2528 5185 1075 1572 2432 
549 463 3135 1598 710 3426 1235 1919 3410 
3782 2009 2032 1579 5158 2662 670 1203 4523 
5339 1196 82 3736 557 5102 4586 780 370 
3563 4452 1447 3006 2895 4439 3417 906 5231 
3649 5380 2103 5928 2273 3612 3808 2661 3578 
4856 1315 3853 2453 296 1354 5188 4975 2575 
4047 3898 5487 3237 130 1344 6022 5827 1934 
5681 1387 5670 2905 314 2820 5757 2445 4288 
2901 2246 421 5570 4517 3144 3303 2443 5971 
5499 4434 3373 42 6042 5693 3483 1436 1623 
3366 929 1741 3126 4301 4009 26 5549 4031 
5257 5318 2706 2041 3145 5363 1737 4536 3173 
4296 5754 2024 2525 4483 2511 4271 1569 5723 
2199 5468 1298 3966 5873 5535 2766 3030 2177 
559 2484 1409 4766 3205 1851 1872 4149 4863 
3707 2286 4562 5999 2291 5921 5046 4694 3106 
3516 5946 2136 4677 4355 5146 2232 3775 510 
966 2334 5278 809 5207 2365 3706 4165 2691 
1696 5466 4102 2827 1034 1748 1626 1428 3956 
3820 2435 5769 1442 2314 3935 325 5948 5649 
1140 436 531 3933 334 3446 4230 5000 813 
2949 4234 5351 4741 4147 5837 319 5718 3392 
423 2999 1389 5550 2950 15 5489 1709 2029 
4583 3023 2404 3223 807 968 358 3753 954 
3477 897 2619 2888 1467 525 1537 4222 2536 
5381 3042 986 4265 4387 135 2437 3826 4105 
1516 4095 1029 2919 400 4485 1964 3252 2210 
5362 3847 1547 4753 498 2733 3528 4189 5266 
2988 5480 4458 4933 5852 723 1441 5272 2930 
2348 3419 5368 4070 2948 1122 2600 4689 2060 
3731 5320 486 4775 4559 648 1600 1624 87 
5849 5387 4560 1024 1258 2860 1335 3377 2614 
2816 1587 3619 3654 1700 1515 231 3963 5904 
933 275 2607 2721 3979 3482 4245 2563 3290 
1911 4415 5471 1527 264 5196 5222 868 4938 
2639 3616 3974 1966 204 1847 4371 5139 5332 
4148 5144 4988 5862 6068 2494 2584 1431 4918 
3035 3429 658 4421 1181 5357 3705 2440 5056 
5580 4436 1144 4954 2056 2987 1716 5832 108 
712 818 741 5204 3924 6035 1860 1481 1571 
2595 640 2765 1755 1944 799 3248 1877 570 
1264 1013 46 3680 571 1216 5577 5856 3837 
342 2705 5884 5413 3748 5828 5886 4669 5421 
2391 4532 5667 3962 5901 2284 2219 5934 1366 
4871 2900 5243 2998 4104 2776 6033 4616 2396 
1541 1132 4117 384 3745 3040 5809 3514 2587 
3089 1582 284 435 2215 2968 5007 2913 969 
1426 4011 1642 2452 4226 5040 660 4904 4023 
2269 1360 22 1293 1825 3567 3087 2479 3934 
150 2180 460 1042 2475 766 307 2131 2148 
849 2957 962 747 3932 1161 783 2101 4005 
4534 2686 1321 2886 768 2375 190 382 2939 
5869 2858 1701 635 2012 3599 4068 123 1028 
4787 608 1459 3276 5944 575 4537 4122 631 
4191 2117 2280 3897 2908 3977 1910 3878 4204 
4021 5900 2277 89 4882 4124 3478 4298 3752 
734 2065 2983 3788 3097 4449 1785 5599 1554 
5335 1935 995 1072 1693 2538 5233 2615 495 
633 4761 3399 5378 415 928 5717 2488 999 
4730 5221 1883 1352 3737 1336 389 3316 1513 
5791 4451 4955 2725 5584 2828 2150 1027 3337 
840 616 5823 5919 4807 4858 5358 1332 2771 
890 2130 1503 1914 3543 447 3057 3632 2570 
3941 1172 5148 4617 5701 4211 4830 3346 4115 
3268 265 3531 2088 614 5930 1015 5216 3905 
2993 2242 698 713 922 5611 2206 5198 2330 
1353 5236 321 4444 2058 4802 5710 1289 3603 
2879 5264 2307 2799 2545 3728 2313 2100 1367 
1272 21 4929 4055 2515 5009 4342 1845 367 
2414 2976 2937 4936 58 2912 218 1491 3214 
3770 5181 5412 5563 5288 3952 3825 3187 3069 
798 457 5152 4937 4377 5991 4647 911 2427 
3912 2669 2316 2301 745 3803 4903 2379 4833 
2899 4491 1179 343 1902 5205 499 1627 4682 
1678 960 547 5391 858 3267 475 207 5012 
2672 612 395 2306 3877 228 5032 816 2276 
2974 4611 1322 2880 5418 5294 2829 482 4168 
5604 2980 581 2439 2513 5500 2505 138 705 
3206 1004 2411 2747 2700 3690 3308 2917 776 
155 3786 4684 1416 227 2822 1178 3003 3810 
2874 1198 4133 2017 4239 206 4322 4581 4718 
5151 226 4935 3945 5540 2846 2417 1276 5908 
2588 3297 3234 5914 3108 5603 2436 2188 3259 
5582 197 1207 2876 4709 4724 5960 3565 3939 
3298 5321 148 3007 5447 3200 244 1525 2067 
715 2594 1687 5029 2524 6056 3080 599 3391 
699 3526 5047 2718 1064 5541 2320 2252 4493 
3232 4756 900 1723 2653 3790 4224 805 2264 
5855 520 643 2982 1682 2116 1201 2898 2371 
456 2014 2837 3570 4946 1022 5195 801 3317 
3004 289 3643 2011 694 38 4777 3958 4010 
5074 5542 5324 2393 3589 1651 246 789 4688 
2384 416 4868 2211 4326 5629 4287 5328 5437 
1509 1956 2378 153 5860 3895 3273 4395 3170 
3568 5043 1669 1337 3665 947 3518 5044 3159 
4513 4778 5567 5943 276 2638 5989 117 2446 
3732 1065 2742 4033 5640 898 5826 4510 2057 
4236 6060 3176 2408 2629 5831 4317 4571 548 
1721 5798 3914 427 5445 5883 4284 949 1191 
4577 305 3372 5777 3038 5036 12 4924 1036 
1413 2553 5302 4456 1415 965 3083 2501 861 
5963 3950 2201 4207 3396 5299 4998 3682 2258 
2952 3442 1290 1252 3804 2096 5631 4365 2925 
1564 1930 3525 602 522 950 3312 6027 2793 
2664 588 6002 1666 1151 1479 4423 4140 6014 
4364 1100 1291 329 4714 5035 1708 490 1602 
3302 3955 3813 4898 4000 1434 5915 3718 3157 
515 3243 3371 5741 6062 6001 1965 1630 4302 
674 4039 4639 3504 5247 5426 2413 454 67 
1295 3510 1463 1115 847 3889 4573 2554 3180 
1614 2719 2033 310 2473 4928 2139 202 208 
2788 4419 2655 3437 2854 2190 2421 2569 5768 
3756 5122 1250 5234 397 1410 3412 5038 2868 
86 4522 1124 3195 4218 5333 5376 3942 797 
4831 34 844 4731 3151 5926 5857 5135 2018 
2707 4711 3668 1968 180 4865 2451 4141 481 
4912 4107 3783 5913 4526 5219 4657 1129 295 
462 1197 1856 784 4433 4883 5275 4713 4475 
5836 3476 1284 3758 4040 4962 2635 6061 4982 
1960 5708 994 3071 2263 3787 5792 5372 4524 
3733 4241 1989 5089 403 3882 5084 4650 37 
422 2727 1718 3032 5911 3530 326 2961 5600 
4378 336 5558 4748 1060 4974 4660 5105 3792 
2835 3225 4769 1245 2359 5981 2127 4983 5467 
288 2734 5621 3017 4388 4177 3644 1411 3239 
4645 1077 2507 5512 5774 3471 4965 1717 1566 
4837 3700 1884 4093 131 5033 5643 2711 2792 
3358 224 4045 2478 4584 230 3533 2218 2409 
4370 604 1401 3138 5842 3284 242 1174 3547 
2000 4899 2208 871 441 2906 5587 941 4356 
5652 429 3012 2304 2650 4910 1278 1146 4190 
3424 1164 2394 5516 3961 2261 169 478 3164 
879 6004 544 503 3717 1633 3696 2064 4889 
5958 4911 983 5167 4674 2251 4305 3520 788 
3148 178 753 2586 3158 5261 432 2339 1892 
2567 5647 2500 3136 2625 3523 52 3624 5374 
2696 3505 1854 5656 1454 838 2670 1424 10 
2195 5049 623 1663 4672 1585 1225 3916 410 
5173 3013 2995 2620 501 413 3997 3604 3910 
566 2902 2247 5648 896 2093 412 1551 4872 
2254 20 910 1386 3817 1792 2962 1086 3577 
3025 3212 368 3515 3331 49 4744 4432 3332 
1556 4563 3488 1820 3086 5117 3367 3034 973 
5383 1465 3710 3436 609 2617 2381 622 496 
484 2318 4885 2527 1728 4886 247 4969 1520 
5020 3460 4174 2300 1675 2351 4804 1725 4101 
2580 1325 1987 5661 4006 545 2660 2001 313 
5834 2457 5214 172 2738 1018 927 5880 534 
3559 5566 5917 5747 4518 4605 5414 4376 3550 
4077 4989 3098 3824 5783 4629 54 5460 3876 
1105 3181 438 4060 1831 3458 5636 5564 4736 
3473 4206 2152 1826 4979 1206 4803 175 4354 
53 5581 3177 2851 5920 3204 5560 5673 5813 
5408 3742 4067 6044 3020 4620 3778 2715 1156 
1802 5722 5230 4497 857 2486 4535 5200 6054 
5678 4028 2231 3534 4476 1670 5683 1007 1419 
4985 1727 3789 3456 1038 1929 3517 5055 1119 
85 2274 1668 3407 1085 5452 3301 4131 5804 
2456 3363 4505 3474 1634 803 2810 4576 3321 
3686 4123 6037 4048 5303 2317 5165 3107 1377 
1899 4582 3741 1689 5494 5970 1145 5787 1894 
3681 4283 2558 5430 5242 4469 69 5433 6058 
3029 1990 725 375 1309 4504 5639 2613 4334 
4453 1255 1611 3581 5296 6034 1341 1437 913 
3355 3588 3678 1681 4386 300 527 4797 1531 
6011 1819 376 892 3562 3908 3816 4665 5727 
576 4420 5899 2887 1948 2071 1423 411 3109 
4834 2840 4462 645 4606 158 5003 4622 5895 
1833 4428 1876 2940 2389 350 297 3540 2013 
3199 5477 240 1133 2498 2357 4902 3242 4409 
5265 5169 2834 3687 5170 255 3857 1844 5129 
3091 819 4335 3039 2641 4363 2723 790 5095 
3949 5145 2352 2796 3987 2155 1656 3359 4362 
2675 3021 2591 193 5172 6055 164 2894 3893 
2360 1510 5373 2358 3300 3408 5735 2181 3929 
4243 2979 3763 3818 1514 1909 864 673 1975 
5942 2146 409 2544 3059 4790 2825 431 4004 
4732 472 3754 3369 1615 976 1071 2967 2227 
1850 1691 4519 895 2823 3031 831 5635 4913 
5240 2465 2768 3141 4151 5496 5953 2878 1726 
2156 1356 1940 1310 4852 4282 461 5254 3171 
103 2080 1244 2369 5394 4550 3535 2674 4947 
3235 2845 5995 1546 1828 3596 2616 3626 5341 
1962 2815 4542 5659 5521 594 508 6045 2622 
5980 5434 3182 2298 1578 8 4702 5377 1137 
4043 2938 1466 866 1861 4873 3345 2288 2521 
851 437 2855 4063 1280 3558 1688 1563 2530 
2651 528 4820 1905 2506 5021 1710 3904 1863 
5504 964 5721 5830 3669 4408 165 2426 1921 
4346 580 2971 2149 3880 5476 1896 1169 2713 
2921 3061 1544 2052 3801 60 5713 1967 2517 
3095 939 5118 4186 5776 5016 2407 4343 5083 
3122 5517 5820 4038 4116 4474 3503 3985 3621 
777 4422 3404 5576 1066 4276 4161 414 4261 
3190 4927 4339 1487 2702 3296 2402 3271 1807 
4651 2811 1190 2866 1496 3140 6063 2224 2175 
5885 4324 3484 4199 71 2818 1089 4887 3509 
3946 4958 36 5107 856 3891 6049 3310 5 
3167 5719 94 5898 1694 854 5407 380 1208 
426 3951 4531 3815 2422 2236 2312 5071 3835 
3438 96 1952 1294 2321 946 2504 1848 4405 
877 755 3326 4041 2460 2634 402 4411 238 
5291 3244 1970 611 3385 558 121 804 328 
810 3896 256 303 3855 2176 5457 2135 1778 
2782 1097 848 5626 1037 5736 5250 3771 628 
4044 3441 4810 263 4398 2608 4849 171 3795 
2904 1791 4129 4303 5503 2386 2839 5367 4697 
2739 3147 3005 2466 4332 2850 5945 1832 3213 
1457 115 2701 268 3068 1068 3776 2192 613 
5545 1076 2736 4658 2896 1517 923 3270 5903 
2909 2589 5137 4255 4817 1750 904 5076 1553 
4029 128 4136 239 1891 5896 1719 4073 4052 
937 3470 1063 3342 1406 3119 4644 3335 4032 
6040 4739 1342 829 3457 3196 2051 1712 1923 
3494 4808 3334 4350 1918 817 3854 3875 1014 
2373 6021 5932 722 624 2780 5745 3209 4323 
1640 1740 466 2934 4399 6007 3347 4762 5355 
4489 6051 872 306 5601 2636 1809 620 2936 
254 3767 5555 822 5119 2119 1674 3605 5063 
5386 767 2204 5728 4768 5624 6047 1849 2441 
2235 2623 1852 5267 3216 3799 2238 3123 4171 
362 1946 2370 2685 4556 2779 5115 4773 1279 
5854 1822 869 3201 2354 2831 2881 1239 5618 
113 1570 820 702 5353 1485 3576 311 1311 
888 578 4259 773 4249 76 3066 1040 3318 
1312 3102 4521 920 5176 5416 1125 5508 3054 
1444 1392 1764 2302 2481 1374 1246 5612 1608 
542 1474 332 1803 676 55 1242 2964 3541 
2992 6050 3113 3575 4609 2025 1226 5839 4066 
4539 4685 2403 5161 459 4501 1333 2775 327 
615 270 3094 5607 3636 4566 5282 4878 1735 
188 5972 1149 5398 1248 3343 1268 2076 3610 
5606 1427 3719 2382 371 140 3938 2773 3549 
646 4159 203 3490 2104 3679 1866 5737 905 
3210 4663 74 1889 779 3389 5982 836 4427 
4552 1622 2007 2390 161 5249 4569 1812 5951 
3163 2947 4018 606 3093 1767 4450 1903 3261 
2367 980 156 92 2245 3379 298 95 2749 
2008 4416 1590 3996 1167 1432 796 361 373 
1789 597 577 932 1736 4051 552 6069 4653 
4248 1051 579 386 1523 4551 309 1558 1900 
304 4437 5285 3907 110 978 4330 1222 5202 
3413 152 2278 1061 4352 4336 5988 3421 1443 
159 1932 2356 1734 1287 4737 331 125 4866 
4664 5472 1445 886 4017 5799 2423 5789 5127 
4593 3704 3708 1686 5268 5120 320 464 4984 
4473 5019 1005 884 2543 4235 3265 2728 3660 
1493 4558 387 5770 4375 5507 2717 5166 1383 
1512 3591 1765 5340 3480 2311 4429 2677 4598 
1978 5428 5106 1635 97 2630 2332 2167 5446 
883 2081 2797 3512 4053 4216 4799 3821 59 
3566 6070 1858 3376 1781 4142 2447 2754 1982 
681 1020 4950 5679 1331 1754 4869 114 2802 
2073 1376 5924 4201 2005 5968 1098 4195 5572 
2226 5632 61 1654 5985 592 4002 3894 5906 
4232 2716 3103 5848 4572 1082 5423 2542 4716 
1559 5740 149 4894 3522 958 3986 4701 248 
4019 5273 3179 5772 2355 5738 4511 2325 5237 
3400 4915 1816 2774 4263 3555 1359 1853 340 
4480 4459 2652 2406 5277 1307 5157 5781 5552 
4509 4231 3100 2520 1631 5755 2416 4557 1136 
1518 2230 5824 1534 2303 4486 1378 3002 5211 
4193 1706 1655 4763 1714 2658 860 1532 3694 
1557 4600 5605 1478 3937 2795 4103 5435 2744 
1782 5023 5843 3608 3001 5596 2794 4540 2203 
1766 5133 1797 3226 3168 5746 1536 3615 1123 
1253 4699 2342 3073 2336 2666 5474 936 4670 
3969 3978 4879 5439 4940 4719 4465 5664 237 
4966 5486 3137 3507 4884 2410 1508 3886 2708 
4457 6016 3677 3873 1096 1672 5556 3672 2571 
1805 176 4192 4750 469 3829 2997 4655 4471 
132 642 593 511 4108 4798 2965 3638 1484 
2786 2548 3188 357 2034 4981 201 4614 3830 
1659 3287 2102 2943 1751 2084 5193 1573 4401 
25 3368 212 738 191 5442 875 1116 64 
5764 567 1715 2222 574 3989 2626 261 4961 
2161 774 4242 2956 4625 5305 5495 4013 1955 
404 4455 3036 1079 5344 3072 141 5962 6026 
2062 5364 3019 3380 2198 1915 5998 5028 1560 
1605 2737 1070 2021 2165 1526 257 1770 99 
4331 2910 1044 1595 3915 4530 2966 1649 5627 
2578 727 2852 1773 302 2043 5909 72 2824 
5263 610 4806 65 223 5750 1026 2037 626 
1840 4087 2090 3124 684 651 3313 1372 1565 
145 3384 1314 3236 162 2819 4916 3852 5422 
841 1901 5689 3455 2455 4496 3524 2105 5749 
2183 2714 1455 3115 2778 424 3085 955 4729 
3556 3328 3067 1606 1476 3202 5073 2954 5818 
2374 3495 2039 3709 1154 669 182 5881 4786 
5313 4579 2790 1199 5395 4008 4061 2285 3422 
3208 5338 2477 5258 3169 632 3798 3721 2134 
1619 3431 639 1871 4289 5688 2882 2514 3502 
5375 4252 2583 2699 3462 959 3064 1846 1421 
2287 2075 4418 2299 4640 4812 1873 3047 3351 
2643 299 5533 1054 1269 2476 3096 4414 2087 
4071 2113 3052 3079 5548 1171 5850 3633 5997 
5859 1942 3972 1926 3623 3348 1472 271 2853 
4461 5964 3992 4772 2082 4678 4156 6048 4963 
4896 474 530 5492 762 2106 45 3598 5714 
5907 2549 943 5415 4754 5479 4150 3734 650 
2467 2911 23 1607 9 1364 5025 4986 4686 
3957 133 5918 3546 5513 4072 2759 4857 5821 
1000 1418 2539 3286 3044 5529 5110 170 4595 
4561 324 5393 3128 1143 363 1695 5682 4337 
5984 2637 2108 2748 5256 6030 3723 1720 862 
3315 1391 2665 6067 526 2353 5597 3573 3492 
1763 957 1347 3330 5208 1323 4712 2890 4205 
845 663 5104 3375 603 70 3149 881 5534 
679 930 3692 3921 5269 585 2217 79 2229 
4835 2862 652 1647 5867 4406 2015 5018 4590 
3253 2610 2004 4710 2969 4178 2784 2510 5775 
4225 3849 2985 5210 3447 4627 671 5103 2973 