# vtk DataFile Version 4.2
Generated by LIGGGHTS
ASCII
DATASET POLYDATA
POINTS 5997 float
-0.0094457 -0.0185724 0.0125357 -0.0152402 -0.0183659 0.0122552 -0.0109194 -0.0170481 0.0122549 
-0.0114944 -0.0210004 0.012381 -0.0131104 -0.0178119 0.0122826 -0.0132268 -0.0198457 0.0123092 
-0.0113901 -0.0190009 0.0123574 -0.00967095 -0.0218189 0.0123318 -0.0123277 -0.0204367 0.0141403 
-0.0141985 -0.0190422 0.0138744 -0.0122943 -0.0184142 0.0142256 -0.00997983 -0.0202427 0.0135273 
-0.0104381 -0.0176167 0.0141972 -0.0160694 -0.0177012 0.0143232 -0.00883229 -0.0221367 0.0142652 
-0.0141822 -0.0170205 0.0142607 -0.00623194 -0.0213025 0.0123262 -0.00398624 -0.0234676 0.0122447 
-0.00830386 -0.0202618 0.0123247 -0.00418488 -0.0212314 0.0123405 -0.00203301 -0.0238358 0.0125477 
-0.00228348 -0.0218542 0.0123434 -0.00165876 -0.0180502 0.0124148 -0.00647303 -0.0193136 0.0122336 
-0.00254837 -0.0198393 0.0123654 -0.0044765 -0.019252 0.0123591 -0.00781172 -0.0225442 0.0125243 
-0.00579418 -0.0231173 0.0130614 -0.00352949 -0.0183148 0.0139289 -0.00101662 -0.0236481 0.014312 
-0.00360827 -0.0223018 0.0139817 -0.0070078 -0.022884 0.0146361 -0.00762597 -0.0182163 0.0134616 
-0.00556577 -0.017998 0.013485 -0.0072738 -0.0208832 0.0140571 -0.00398422 -0.0202826 0.014146 
-0.00543295 -0.0215932 0.0145998 0.00189964 -0.0205623 0.0122093 0.0019793 -0.0237613 0.0122388 
0.000423605 -0.0219304 0.0123271 0.000704958 -0.0178878 0.0124101 0.00364871 -0.021902 0.0121405 
0.00258392 -0.0186634 0.0122876 0.00440624 -0.0197993 0.0122171 -3.03651e-05 -0.023881 0.0125161 
0.00560481 -0.0231281 0.0122513 0.00754875 -0.0226517 0.012229 0.00385635 -0.0236745 0.013083 
0.00210245 -0.0221673 0.0134403 0.00320562 -0.0201444 0.0138187 0.00642449 -0.0195662 0.0122075 
0.0026158 -0.0237333 0.014668 0.00634662 -0.0213299 0.0131581 0.00397055 -0.0219807 0.0141547 
0.00554747 -0.0232164 0.0143156 0.00748298 -0.0226713 0.0142969 0.00797073 -0.0207381 0.0144532 
0.0079904 -0.0183214 0.0121962 0.0081342 -0.0207407 0.0121205 0.0138052 -0.0196019 0.0121567 
0.00992581 -0.0178016 0.0122377 0.0107111 -0.0196658 0.0121442 0.010156 -0.0215964 0.0123167 
0.0156545 -0.0181658 0.0123831 0.0137263 -0.0176121 0.0123437 0.00912655 -0.0195174 0.0133697 
0.012258 -0.0189112 0.0132305 0.0146527 -0.0189564 0.0141094 0.0116226 -0.0208316 0.0135048 
0.0106437 -0.0185848 0.0143726 0.0097296 -0.0218368 0.0143451 0.00893207 -0.0176183 0.0139681 
0.0125006 -0.0174241 0.0145539 0.0117931 -0.017096 0.0124139 0.0163793 -0.0174 0.014105 
0.0144649 -0.0170165 0.0145582 -0.018411 -0.010591 0.0123758 -0.0213675 -0.0107445 0.0123162 
-0.0193742 -0.0140441 0.0123554 -0.0180787 -0.015568 0.0123579 -0.0199169 -0.0121308 0.0126009 
-0.0178625 -0.0126535 0.0124514 -0.0201183 -0.00918305 0.0123666 -0.017443 -0.0162363 0.0141444 
-0.0197898 -0.0132359 0.014266 -0.0204575 -0.0112133 0.0143499 -0.0169906 -0.0141447 0.0142395 
-0.018223 -0.0120246 0.0146393 -0.019212 -0.00931021 0.014235 -0.0221585 -0.00909517 0.0132311 
-0.0182127 -0.00857116 0.0124935 -0.0164389 -0.0167601 0.0124761 -0.0164828 -0.0110563 0.0140671 
-0.0165423 -0.00972966 0.0124625 -0.0139231 -0.0124223 0.0121871 -0.0144824 -0.0163259 0.0123893 
-0.0086809 -0.0103744 0.0123983 -0.0146306 -0.0104785 0.0124305 -0.0110215 -0.0100994 0.0131596 
-0.0120442 -0.0150037 0.0123309 -0.0159021 -0.0121002 0.0123925 -0.0159759 -0.0145126 0.0124346 
-0.0100536 -0.0152455 0.0122407 -0.0119098 -0.0126956 0.0122451 -0.0101306 -0.0117786 0.0122857 
-0.0139672 -0.0143917 0.0125759 -0.00868477 -0.0167544 0.012199 -0.0123327 -0.0165024 0.0136351 
-0.00899778 -0.0132597 0.013018 -0.0127832 -0.0110471 0.0131231 -0.0150699 -0.0135206 0.0140218 
-0.0108276 -0.0139042 0.0135176 -0.0139712 -0.0119189 0.0144967 -0.0128109 -0.0134492 0.0139133 
-0.0105338 -0.012209 0.0145708 -0.00879655 -0.0151181 0.0140801 -0.0107256 -0.015653 0.0144884 
-0.0137156 -0.00957192 0.0142005 -0.00865761 -0.0115362 0.0143737 -0.0130639 -0.00916398 0.0122761 
-0.006738 -0.0166064 0.0126403 -0.00476457 -0.0163715 0.012372 -0.00708036 -0.0130946 0.012397 
-0.00806672 -0.0148509 0.0122354 -0.00274028 -0.0163308 0.0122358 -0.00595928 -0.014751 0.0126274 
-0.00529362 -0.0109077 0.0121815 -0.0050888 -0.0129978 0.0122005 -0.000584869 -0.0119699 0.0122707 
-0.00288186 -0.0142612 0.0121801 -0.00320052 -0.0122622 0.0121729 -0.00720441 -0.00895996 0.0123279 
-0.006884 -0.0159572 0.0145599 -0.00158667 -0.0166087 0.0138777 -0.00488447 -0.0160556 0.0146425 
-0.00704656 -0.011249 0.0131687 -0.00310773 -0.0153263 0.0140868 -0.00671429 -0.0139681 0.0144302 
-0.00614364 -0.010279 0.0146726 -0.00464587 -0.0139998 0.01401 -0.00135615 -0.0146004 0.01343 
-0.00802271 -0.00960095 0.0143337 -0.00498188 -0.0120759 0.0144848 -0.00278418 -0.0133679 0.0143893 
-0.000842748 -0.0127888 0.0141273 -0.000318683 -0.0161136 0.0124029 0.000190048 -0.0141095 0.0121765 
0.000843999 -0.0104948 0.0123698 0.00294354 -0.0137565 0.0122333 0.00171827 -0.0161186 0.0123017 
0.00296042 -0.0111771 0.0121873 0.00589123 -0.0129843 0.0122757 0.00135733 -0.0124774 0.0122016 
0.00501018 -0.0105239 0.0122261 0.00789423 -0.0141188 0.012274 0.00712467 -0.011408 0.012281 
0.00309254 -0.00915316 0.0123115 0.00822346 -0.00970578 0.0122638 0.0011581 -0.0165227 0.0142249 
0.00159883 -0.0146465 0.0136877 0.000821084 -0.0115603 0.014269 0.00420703 -0.0124356 0.013224 
0.0064669 -0.00994214 0.0135755 0.00236698 -0.0128267 0.0140438 0.00578303 -0.0117096 0.0142867 
0.00268804 -0.0108375 0.0144716 0.00728829 -0.0130152 0.0138661 0.00365695 -0.00907477 0.0143181 
0.00515034 -0.00859479 0.0129017 0.00847317 -0.0163811 0.0121161 0.0147095 -0.0158625 0.0123959 
0.0103605 -0.0157175 0.0121621 0.0120808 -0.0146889 0.0122468 0.0120445 -0.0126943 0.012416 
0.0144734 -0.0100808 0.0122097 0.0139438 -0.0120086 0.0122759 0.0139636 -0.0140102 0.0122632 
0.0156875 -0.0129871 0.0122386 0.0112361 -0.0108661 0.0123693 0.00901169 -0.0122066 0.0124104 
0.0103271 -0.0137244 0.0123842 0.0125961 -0.00936991 0.0124079 0.00910664 -0.0150176 0.0136263 
0.0116732 -0.0157002 0.0139274 0.0136583 -0.0151458 0.0140134 0.0150598 -0.0115554 0.014091 
0.0128803 -0.0109534 0.0136782 0.01367 -0.0130551 0.0140251 0.0116579 -0.0137087 0.0142366 
0.0156666 -0.0154464 0.0141769 0.0143566 -0.00968268 0.0141944 0.0157365 -0.0134465 0.014243 
0.016136 -0.00988623 0.0133039 0.0103859 -0.00903668 0.0123508 0.0164292 -0.014837 0.0124167 
0.0170559 -0.0167286 0.0122437 0.0168339 -0.0113524 0.012135 0.0184035 -0.0152041 0.0122005 
0.0177399 -0.0133491 0.0126933 0.0196761 -0.013574 0.0122204 0.018809 -0.0117341 0.0121822 
0.0208019 -0.0119161 0.0122479 0.0201679 -0.0100014 0.0121642 0.0181464 -0.00984438 0.0121047 
0.0177693 -0.0159626 0.0140017 0.019054 -0.0144243 0.0139281 0.0202764 -0.0127118 0.0140482 
0.0193744 -0.0108998 0.0139099 0.0214047 -0.0107843 0.0137899 0.0172802 -0.0112663 0.0141998 
0.0220561 -0.00926369 0.0122913 0.0177832 -0.00933264 0.0143198 0.0203022 -0.00912745 0.0139862 
-0.0228032 -0.00736537 0.0123866 -0.0191696 -0.00681024 0.0124939 -0.0212399 -0.00570235 0.0124205 
-0.0178394 -0.00531811 0.0123215 -0.0179819 -0.00331397 0.0122597 -0.0232262 -0.00540663 0.0124026 
-0.0231961 -0.00147068 0.0122771 -0.0236506 -0.00341785 0.0123689 -0.0216672 -0.00364513 0.0125015 
-0.0198825 -0.00268553 0.0124123 -0.0196332 -0.00461303 0.0129109 -0.0183295 -0.00133298 0.0122923 
-0.0209141 -0.0075299 0.0131729 -0.016866 -0.00263727 0.0137963 -0.0166965 -0.00464072 0.0138326 
-0.0236607 -0.00293887 0.0143396 -0.0188219 -0.00312992 0.0141279 -0.0173534 -0.00854667 0.0143123 
-0.0227927 -0.00731187 0.0145722 -0.0217168 -0.00349931 0.0145473 -0.0197218 -0.00135104 0.013906 
-0.0216658 -0.0010933 0.0135119 -0.0238237 -0.000946147 0.0142609 -0.0164351 -0.00766157 0.0123516 
-0.0158789 -0.00572372 0.0123539 -0.00921517 -0.00843725 0.0123144 -0.0144324 -0.00766615 0.0123407 
-0.0112399 -0.00831021 0.0122722 -0.00931551 -0.00642362 0.0122901 -0.0138767 -0.00561381 0.0122687 
-0.0104434 -0.00447334 0.0124023 -0.0123503 -0.0031284 0.0123245 -0.0113164 -0.00630923 0.0122847 
-0.0158422 -0.00372517 0.0121569 -0.0152147 -0.00183627 0.0123453 -0.0103226 -0.00243004 0.0122722 
-0.0131878 -0.00125071 0.0123712 -0.0164333 -0.00662808 0.0142163 -0.0102647 -0.00780048 0.0140753 
-0.0153717 -0.0084352 0.0139697 -0.012708 -0.00743145 0.0133264 -0.00948404 -0.00595821 0.0143095 
-0.0123211 -0.00491451 0.0133188 -0.0141342 -0.00379366 0.0135679 -0.0115348 -0.00632159 0.014517 
-0.0144348 -0.00664601 0.0141155 -0.0122987 -0.00318619 0.0143311 -0.0099596 -0.00236913 0.0143217 
-0.00895004 -0.00410085 0.0136914 -0.0114676 -0.00125958 0.0135773 -0.00849952 -0.00156542 0.0122086 
-0.0165865 -0.000375481 0.0125726 -0.0101258 -0.000408924 0.0123352 -0.00544771 -0.00788643 0.0122405 
-0.00788921 -0.00501977 0.0122597 -0.00722412 -0.0031242 0.0122051 -0.00592079 -0.00537857 0.0122232 
-0.00336751 -0.00439652 0.0121627 -0.0051741 -0.0035186 0.0122055 -0.00411291 -0.00626752 0.0122399 
-0.00720846 -0.0069059 0.0123905 -0.00196797 -0.00297267 0.0122818 -0.00419346 -0.00176974 0.0122578 
-0.000756425 -0.00457393 0.0121728 -0.000105035 -0.00648844 0.0123362 -0.00064979 -0.00144454 0.0122432 
-0.00619931 -0.000806138 0.0122314 -0.00827593 -0.00766077 0.0139212 -0.00639611 -0.00829029 0.014275 
-0.00542307 -0.00659283 0.0138351 -0.00648531 -0.00423316 0.0138102 -0.00600947 -0.00230055 0.0135727 
-0.00401013 -0.00525338 0.0143951 -0.00209736 -0.00519641 0.0135224 -0.00729061 -0.00597654 0.01438 
-0.00788393 -0.00255153 0.0144156 -0.00391183 -0.00324399 0.0137749 -0.00267775 -0.00162728 0.0136717 
-0.00191726 -0.00337062 0.014317 -0.00759266 -0.000677449 0.0137673 0.00126256 -0.0082436 0.0122677 
0.0069891 -0.00813144 0.012214 0.00381697 -0.00724462 0.0122593 0.00128021 -0.00446094 0.0122011 
0.00202801 -0.00632582 0.0123332 0.00370426 -0.00523265 0.0121593 0.00602769 -0.0045275 0.0122338 
0.00365896 -0.00199339 0.0122379 0.00165688 -0.00248465 0.0123048 0.00575682 -0.00656124 0.0123374 
[...]
POINT_DATA 5997
FIELD FieldData 7
id 1 5997 int
1200 4293 5759 1276 864 4269 1753 277 2177 
700 863 2932 2234 3264 779 2381 240 2479 
351 2761 3238 5928 626 1119 38 1918 2164 
4605 5498 57 2711 3013 1700 1543 1724 5977 
1506 3880 367 5772 4587 2893 5021 1846 699 
3713 5828 65 5425 3341 420 4263 1403 2007 
3689 3862 2586 2154 5975 2103 1853 3408 5458 
5588 4521 802 5572 53 5456 4744 2612 5935 
3634 759 999 3252 4637 3245 1864 1966 3522 
4102 3075 4111 5399 1958 4363 4914 801 2676 
629 2863 5442 4508 318 5570 4222 4720 5053 
5335 1871 4796 1883 977 1720 3461 1889 4886 
5326 1863 2449 5712 803 202 5033 2956 952 
5408 5396 1901 3118 2276 3132 2497 2171 1799 
1615 321 1471 1756 5511 3911 1726 788 1184 
2658 126 5109 1487 1722 3545 602 3834 4801 
3984 6040 3032 4722 335 424 5440 2631 2550 
1881 4702 457 4516 5661 2615 2231 4665 2405 
1062 862 19 2218 4945 5213 5463 3410 5170 
281 5392 4201 673 2336 6025 4659 4848 3047 
4717 2142 3339 2963 5407 1850 867 830 324 
4418 1156 4367 5126 3415 2189 4981 3758 2492 
4407 1920 5404 4578 1708 2123 615 5501 3467 
2351 1073 3740 115 1246 5298 4329 5709 4757 
3349 31 5041 4039 1351 5071 3183 3365 4575 
1834 908 4226 5981 4967 1992 312 921 4388 
4463 3825 3328 4455 279 3558 142 850 1015 
188 2249 2783 913 6016 2314 3468 169 2507 
5576 1696 2948 4545 127 660 5970 1036 380 
5705 4543 2560 5187 692 419 3621 5788 5338 
5995 3426 1250 2955 4462 5609 2782 715 4024 
5701 3732 3744 198 3601 1750 2997 4089 3261 
3998 645 1038 5288 4075 1839 5637 545 2197 
2085 100 3563 3445 3763 3279 5449 797 5535 
4835 3618 1518 2837 4783 2609 1146 256 3691 
2567 3865 5234 78 164 4402 4777 1551 1563 
4893 3666 6053 4409 4869 1298 714 1767 5737 
992 1986 2998 5929 1101 4445 5317 742 3986 
3960 6010 971 1228 3189 1516 3769 2488 253 
1766 2200 3832 3912 3194 3260 3969 3646 823 
5755 546 2831 5533 3913 4442 2098 1302 3079 
2369 6027 844 4482 4456 3145 2762 5278 123 
4559 3817 920 2630 1392 5549 1783 2114 4087 
2890 2355 1838 1797 2325 1312 822 2770 659 
42 3569 4723 2519 2930 1815 265 2727 2900 
4081 2446 3419 753 4634 195 3502 1772 2542 
1699 1433 3370 4680 5765 5724 3342 5526 3868 
3263 1793 6019 5615 1447 1220 974 2733 1122 
4589 5997 1606 2967 5702 2719 263 2627 2655 
3886 1061 2063 403 2318 1137 506 756 3544 
1172 1283 2022 9 1453 4592 4300 4238 3828 
3434 4494 5006 5597 5063 4703 327 1365 4047 
3433 4438 747 2128 4055 1605 151 2429 3490 
4996 5202 1313 3871 5334 1160 5909 1265 4267 
2150 4499 2277 2779 3058 2616 3447 4480 482 
3351 5651 2546 5954 5708 298 4546 2435 5855 
927 5889 231 4941 619 1391 1324 932 5723 
4292 5122 3123 3819 4100 4746 3786 4415 4732 
5783 6068 5373 5306 3781 1311 2741 5100 5681 
2141 6049 124 2365 702 2136 961 1458 3720 
4202 5474 458 3198 4485 4927 911 1538 1677 
1770 1348 1339 2072 5766 4252 2579 3918 4747 
3249 2944 877 1310 4909 2088 217 709 4846 
1106 2026 2307 2126 4090 5566 3697 3184 3750 
4208 2437 721 5247 612 3389 1561 1608 3512 
56 6037 1429 336 5650 2091 728 332 1737 
4149 5930 1688 140 1389 5249 4309 1731 965 
4688 3858 3616 5673 1410 884 1745 843 4064 
5319 2167 61 836 5841 2420 4395 5654 4728 
1017 1640 2343 5729 3228 4488 4377 5940 1784 
2402 3905 789 5144 3392 1833 5867 5239 3728 
5500 2461 4358 5631 5487 787 1235 241 1449 
3424 4583 1915 686 4704 771 5591 264 1491 
5816 1113 2441 161 3489 2945 1537 766 5079 
1451 5256 2700 2377 4378 601 2791 5059 148 
5770 5492 2075 4489 631 2119 3154 3234 818 
2961 2690 4045 5389 872 832 1170 5938 270 
3690 495 1865 3745 1209 3497 1257 5613 1133 
2138 1333 5507 2983 3406 2547 3774 5951 180 
5040 1494 2135 2935 2845 3082 5382 4579 4117 
2906 4683 5164 4470 1822 4471 4241 425 3536 
1136 1755 2544 4633 3760 5255 3797 1032 4142 
1735 3715 651 4934 190 5815 3710 4877 5110 
2283 4184 981 1479 5903 5344 3276 28 5156 
1567 5774 3737 4785 2153 4491 3116 1252 1039 
5590 3916 1444 4121 1413 5494 5400 3267 672 
2370 529 4905 1245 328 2639 3210 4262 2427 
815 4466 3049 5385 5966 4872 5563 3991 223 
4242 1979 1711 3091 620 4696 2858 2776 2341 
4922 215 2698 2215 93 286 5545 429 2468 
5602 3309 2284 2021 4791 3608 5998 1290 5853 
790 4175 1515 3943 963 5092 2970 2156 2416 
4915 1967 995 3999 1394 2934 2806 1682 1512 
5932 7 2185 1758 5375 1953 1747 2190 1963 
4548 1917 4227 5528 2984 1404 4412 3970 5851 
2071 1844 819 1072 2637 2705 23 701 4048 
2600 5773 5429 1629 3332 4229 4770 3842 781 
1802 2854 500 950 1000 589 1931 4164 951 
2288 1588 2413 5845 3243 1861 3176 5361 4903 
1128 5056 758 3098 3664 2027 3700 5518 2828 
4645 5907 4686 3237 1053 1445 1830 5523 855 
4188 1637 1081 5348 2371 4495 3458 1174 4621 
1823 1478 1232 1224 3944 5262 2242 4043 5098 
2903 4449 1624 3042 5564 1502 5168 3127 440 
2981 3024 3619 2665 2832 513 586 2109 1843 
2883 1427 230 2040 3368 4304 3006 1271 487 
3659 5858 2210 4906 1746 2564 2481 910 5542 
4266 3331 2393 1517 1882 224 1603 3165 2536 
4640 5476 2458 3568 754 5128 4313 3693 2183 
3073 1939 1269 2760 5101 1028 366 2298 4874 
4383 4135 3870 1924 3956 4381 353 2222 1989 
1082 1632 5008 523 1645 4074 5244 885 4584 
2707 2237 4132 2583 2911 5538 1405 3407 3179 
3221 2002 3678 1894 5796 3812 3493 3965 3859 
5196 2415 4563 4879 5398 316 3483 5325 3271 
1546 3698 1874 5314 3451 16 3262 6026 5351 
814 4386 2881 4754 5439 3359 2908 5346 3823 
2168 3712 2066 2919 1343 2737 5565 1523 6061 
1104 4556 2732 5744 1884 2012 5936 2869 980 
4530 2050 1065 5287 4187 4314 3163 1897 4853 
4454 3922 3633 2344 4708 3277 4518 1866 3202 
4277 1714 1221 5496 5714 5668 2493 4818 3067 
416 2020 2014 3683 1630 1275 2073 4497 4146 
172 1890 5577 2767 3375 1059 618 3153 381 
4390 261 3016 3469 5251 1718 1821 733 1282 
2729 5012 4571 3552 4759 4249 4417 4727 3012 
5165 2598 5205 2120 2035 5864 340 1575 2528 
2664 394 5610 1779 2800 541 6047 4233 4572 
5861 5401 3307 4984 22 3926 4933 3229 3932 
1397 4305 2757 3931 4192 3109 5265 597 542 
902 743 5872 432 266 2425 3400 687 1658 
3306 255 1691 5920 2680 610 4857 2957 63 
4286 4113 5212 1292 5555 3957 4217 591 5225 
3113 4400 3051 235 5989 2227 2540 1486 5527 
5410 4440 5585 5231 549 3731 2095 521 1693 
5757 363 4888 5887 638 3830 3133 3173 4980 
1808 3734 4247 1322 3996 5722 3484 1425 5992 
544 5582 3682 3148 5730 997 829 5437 2965 
5784 5616 1633 5236 935 21 4203 5552 3829 
2573 3947 418 4264 1143 478 5581 3436 1954 
3108 1604 3282 3477 1554 4576 1423 5018 694 
3266 4989 5593 5688 1690 3444 4243 1361 1438 
3218 3494 749 4125 2720 3498 3247 1110 497 
6070 5349 5898 611 6065 628 959 3514 964 
2064 1468 4472 4679 1807 2715 391 2430 5155 
1734 1827 5327 679 2558 6021 2604 1432 847 
1715 3143 1914 1557 2872 1473 2292 676 5434 
81 4531 5323 2522 1820 5457 356 5002 4396 
3092 793 5286 1226 5134 4949 1697 108 3129 
2814 5060 3052 3062 4772 682 1063 5078 1577 
3643 5606 765 609 3860 4515 4092 5829 2809 
152 2626 1520 2758 4107 214 1368 4170 4731 
5987 5065 3863 2330 1891 4961 3673 2172 4856 
5420 1255 4253 4429 5374 4947 4296 1634 3499 
3147 1371 5362 1354 4557 2252 3045 4629 1510 
3356 4890 1124 2646 4154 2999 1437 4695 26 
5419 4155 1349 5946 1067 2964 5575 4178 4073 
3478 25 3457 4425 2689 1421 1961 4172 1835 
5694 1247 70 2490 2971 1142 1315 91 4059 
2746 5554 2017 2016 655 3335 4347 3855 3628 
5520 146 2565 4701 82 4405 4512 3856 2749 
453 6012 4544 1817 5742 3036 1463 731 5885 
4041 1350 387 4197 1476 24 3692 4880 4539 
3620 5690 1330 1057 43 5241 54 2503 5119 
654 2418 786 5145 3288 296 3086 2501 1511 
5879 2324 2748 3583 2571 3588 2241 3018 4919 
2647 3257 2038 5620 4978 3423 4792 5579 5416 
3642 3650 6003 4596 4511 1439 4348 2013 2989 
4678 4693 51 4174 5023 5403 5397 1596 5795 
3055 5277 3093 1190 5926 1612 147 2028 3099 
519 3241 3903 3837 1836 613 5102 3321 590 
4346 3987 5594 102 3777 5882 155 3782 3377 
3475 845 3180 4422 1158 2532 4062 5387 4078 
1003 6013 2254 66 1994 6017 2311 2853 3893 
3172 3852 1886 1492 2886 4663 5219 4023 5923 
873 5672 1960 1648 773 3622 5912 2121 5412 
2787 5508 3027 5445 1493 4212 110 895 5985 
1695 4883 1309 4441 1916 3805 86 3553 3929 
2951 5878 2394 1814 1334 2668 1418 5802 2362 
5643 2334 3386 4925 2293 909 3607 3839 6005 
2364 3188 746 630 5776 5418 1987 354 5482 
3764 4642 4303 452 3517 2939 2428 727 2090 
1904 119 1811 3582 1616 1941 456 1980 5883 
2606 46 4834 681 131 4924 1244 3360 5611 
2928 2251 894 3060 5193 1056 5857 2262 3821 
3048 4778 76 4486 5302 2401 3380 227 60 
826 5895 5640 2386 2952 1732 4814 3293 3319 
4974 276 1694 3394 128 5560 5454 2270 4617 
1876 3459 3442 5048 92 1288 4715 465 1962 
4782 1909 502 5471 1854 5750 1741 5393 897 
1097 1936 1193 925 4952 2304 2339 2986 2491 
868 3667 6057 4225 496 2931 3630 4067 4487 
1771 2250 2804 2358 2857 3977 2078 5364 2697 
4892 4944 1470 4401 5890 4699 723 201 2433 
1676 179 5793 5064 1653 1378 3675 4194 5158 
2650 2464 2873 4528 4183 3887 1647 4350 5275 
2009 3095 5733 4936 182 2742 4351 2929 503 
5658 4829 777 1274 4968 5105 2486 5568 2974 
579 5984 1984 5019 3529 3299 5481 567 710 
5836 4182 283 1847 5433 1643 4916 4858 2759 
3894 2904 5184 3557 6036 3388 716 4361 1880 
2635 5485 869 4115 2533 3708 3487 637 4819 
4076 4552 4206 528 5944 1297 3702 1997 633 
2614 3657 3496 3471 1764 2015 3430 919 1973 
4837 3572 2326 5625 866 3775 3963 4167 4999 
3141 1927 1037 5022 917 5337 2001 4256 4204 
3660 3579 4171 426 4891 480 1084 5330 4257 
2360 650 4917 2554 5289 1157 576 3168 2822 
431 926 3096 4606 6031 889 3941 4553 1068 
1964 3106 1238 2151 5339 962 5333 6045 1626 
5781 2457 978 3149 2037 3178 1377 330 3347 
5451 4963 1528 2313 125 4969 1500 2819 236 
5186 3275 111 2505 3071 5038 315 3962 4342 
4382 116 1202 1545 2108 4662 5042 1948 1077 
1125 5678 5328 1441 4840 3898 4451 1150 4299 
2291 5541 1619 2500 1568 1775 4861 5203 838 
262 4079 5133 1892 1270 2976 2093 5016 5740 
1872 1773 1013 2003 1139 4220 477 2476 4790 
6023 4006 4740 3107 4569 3966 4138 668 2866 
5260 2396 3934 4648 4847 6069 2685 4526 4258 
3554 4824 68 5607 3191 2830 14 5376 2921 
1670 4310 3217 2874 2097 207 5161 2076 428 
2353 583 3134 928 960 5819 1730 3159 3644 
4870 5093 2973 2891 1795 5221 2143 3185 1713 
1189 5036 4568 5806 2529 5254 1281 4899 2248 
2721 5913 1087 1055 3900 4359 2910 5486 593 
5034 5371 876 1981 2978 130 5813 887 234 
5185 5761 2451 4737 2897 4338 3892 2308 1329 
3881 1757 2456 3144 3289 5948 4032 1358 4734 
4496 5194 2678 2155 4072 2213 4013 1256 1237 
1498 5884 5713 4391 1107 3431 3214 5151 4235 
5749 5934 1929 1132 1535 5558 739 865 4058 
5226 1016 1436 5027 4601 399 1258 4595 1540 
4887 532 5271 5933 2459 2419 3950 4901 2070 
3465 3090 2212 3927 1341 1744 816 5973 1023 
2352 4492 1564 2982 4705 1769 1293 798 5031 
2661 990 5000 4389 2559 5790 5483 3580 5769 
2794 5250 2106 3432 4483 5779 4841 1050 1249 
3735 2923 3933 5315 137 5945 5200 677 5758 
4514 4939 4465 707 1672 808 2101 1600 891 
2502 5211 2895 401 1047 1385 329 3199 5584 
3326 775 4955 244 33 5645 595 671 3485 
2478 5676 4573 740 2191 1459 614 5230 4148 
3142 780 2995 4585 5669 924 4784 1198 3508 
4416 562 5074 3379 4265 3717 1111 4130 2216 
4533 2031 4295 1467 1319 3599 4691 4410 2878 
3097 4493 5741 427 4836 1326 3937 3897 5139 
411 712 4240 1291 3216 4434 1541 3373 2048 
1867 708 4520 5604 5571 2408 2805 4003 333 
5685 5972 2082 1490 2621 4647 4193 730 5982 
3707 3811 2158 2643 1216 2570 433 299 4288 
3742 3589 4756 1639 3391 370 3401 322 4001 
2862 5871 2157 783 273 5124 4800 1824 2775 
3798 3752 3718 3762 5461 907 4432 3624 2728 
2147 3790 2922 2765 5860 5077 2407 4319 5820 
4991 4673 2055 3343 824 4593 3795 1858 5600 
1100 1739 1988 311 3211 5567 2936 966 1060 
483 4742 4651 1970 2657 5971 4093 3954 5383 
3791 3559 3222 984 1900 2125 3513 2590 3792 
5517 4564 280 1395 2080 937 5968 5108 1051 
3397 4541 4011 145 3186 5017 6054 1591 5372 
5536 2391 3166 5931 2892 4161 4763 3455 2713 
900 5475 460 2130 4992 933 3749 1650 4752 
2253 2839 2905 441 5051 2686 1130 4066 661 
5096 2495 888 3152 2193 1761 5530 1248 1280 
841 3600 4604 4101 2483 3738 4375 4675 538 
835 2644 3014 2052 1018 1706 364 2382 5503 
3181 644 4844 2816 6066 1985 3648 4428 2049 
4423 317 1729 1079 4160 5942 3584 3581 5840 
5054 3625 807 4022 5569 1173 2636 2925 278 
2264 1148 4807 469 4091 5414 1004 5914 1383 
4574 2206 2342 455 2652 3034 2484 3958 445 
3251 3414 5603 4307 2359 1450 2996 2611 5283 
936 3084 288 3997 1088 4476 400 1788 5493 
4768 4611 744 1201 5803 343 2400 306 1911 
1041 685 1135 996 943 4755 916 5452 4773 
5441 2723 2113 2161 2366 4477 3316 4534 641 
3799 4362 5711 2205 635 2504 1671 3640 67 
3353 5808 2798 852 582 892 3919 1902 1165 
5854 4246 5832 5318 3961 2875 39 1074 3651 
3449 2056 794 1197 4852 1514 3429 2651 1048 
3208 1363 5964 2718 5639 3021 3207 5962 4109 
2940 859 1526 705 3595 748 187 1267 1386 
3833 2053 5525 1559 3395 5150 1609 3019 417 
2116 5865 4270 1091 3281 84 3757 1870 2512 
18 349 1638 2279 5405 510 5369 4845 2745 
3899 1878 1316 588 2187 4376 3000 5190 5316 
2508 1176 216 166 4681 2315 109 3596 5199 
4095 623 1364 4577 2455 534 2239 717 5052 
799 3072 734 1791 5089 1272 2666 12 969 
3439 581 3930 5635 898 3358 3684 1636 3840 
4224 5443 4994 684 2942 5363 2134 5304 1618 
2769 1710 3312 3155 2397 2555 4368 735 5728 
2112 636 4195 2834 3083 4097 1829 2506 295 
518 1026 1076 4335 858 2043 97 1740 2539 
382 5152 4560 5595 2725 359 1075 139 1066 
3768 446 5005 141 1689 2327 2024 4519 4007 
5237 1673 3422 649 4706 2219 2569 2766 2442 
2299 4324 95 3240 2214 1625 3901 4250 5532 
3450 772 3649 1550 559 4600 3603 2607 360 
5284 5939 5386 1011 4411 4200 4966 5462 3215 
1196 2916 4214 5421 3374 3953 1205 3895 617 
3378 4764 2669 2736 5061 339 1379 4236 1705 
6030 475 5025 2228 2322 4333 5720 3453 4977 
1457 2884 3850 2290 1263 2877 5918 3921 4859 
5849 3972 1983 5652 800 5366 5957 1905 3851 
809 3294 526 71 5384 2068 3323 2302 1623 
4626 3537 2204 5112 5598 1140 5891 249 4051 
1336 3951 4458 4730 3820 5798 1442 243 2907 
2915 4687 1947 2065 2950 6038 3192 4826 3626 
973 5246 2918 268 117 3028 73 103 3803 
3470 2613 4551 94 5253 5331 6041 1597 4150 
2256 5342 481 3639 3576 5085 3906 2710 4671 
2067 1214 4510 4943 1207 4281 2316 134 2323 
2885 212 3701 2660 696 3304 4205 1045 839 
2972 1169 350 3325 1819 5811 178 4986 5862 
2057 5514 3940 3046 423 2389 287 2019 4997 
4337 6000 1579 5743 5130 5076 2473 5273 4822 
768 2354 1058 476 1692 3771 4027 2041 2677 
653 3227 5657 1930 4639 881 5444 5904 3847 
2753 1912 1582 3662 5309 2196 2374 767 5804 
4056 3971 680 2465 5505 4641 4931 2084 1219 
30 1733 3085 5003 4769 3773 3080 5218 3515 
3225 1812 5324 4366 467 1786 5978 4957 667 
3915 1071 1522 2079 3973 5559 2926 3844 1027 
4896 2201 2868 1416 2312 2117 3924 3789 2959 
1937 3128 168 3756 3283 4291 305 2406 5391 
5088 1191 138 2367 3672 4725 2553 218 3425 
5586 6011 5020 120 118 3239 4610 3770 6056 
1472 3169 6001 2144 2694 1906 237 1840 5207 
2269 4244 1707 2811 4468 3845 3573 2938 6004 
5220 5489 5135 2398 4134 5671 1738 2169 840 
3064 3670 4207 719 2289 1390 5090 2033 5818 
948 2498 5043 569 3585 185 524 3254 813 
3110 5116 463 4751 720 2494 1279 3861 4799 
5175 3874 222 1080 2993 5179 4990 2300 4251 
1035 4297 5675 3081 1262 782 1683 5653 1922 
5216 2648 5580 4086 1153 1008 3114 85 461 
4070 5649 4672 3741 301 3104 5310 3754 2602 
3736 4928 2092 4926 5209 3623 1777 1578 4372 
4453 1527 136 407 107 1320 3671 3441 2332 
5916 4884 3592 3614 4804 3270 5800 1982 970 
5953 5621 5039 3059 346 4598 4982 5734 4478 
5409 3680 5562 1233 3308 3381 3290 2717 2287 
4809 5753 2777 4028 2703 2032 1566 5648 4609 
5838 1481 285 3949 1641 4153 2662 5197 4538 
5295 5596 1613 5055 5095 4970 1810 2122 1728 
3037 3806 442 4406 1934 392 62 1417 2605 
114 580 2258 3416 4397 4682 2818 290 683 
3446 2871 5320 4344 4315 4567 603 2731 4761 
3409 5047 5379 2357 568 2390 3105 1210 4403 
5272 5167 1187 5214 3355 2815 2034 2385 5574 
854 233 96 3454 1560 5261 4255 3590 2165 
3783 2823 5157 516 150 1525 1367 4513 4413 
5413 5115 4040 1587 498 3985 5868 899 1332 
4998 4793 4387 6059 2462 1801 2557 4505 436 
293 2920 406 5706 2520 58 5137 2593 3925 
4607 3722 5835 462 587 2361 1064 3011 2584 
310 5665 1660 5472 3550 4875 1121 4239 1373 
3300 571 6062 239 3399 2638 3704 368 34 
1877 5627 4108 2489 2623 536 1285 525 556 
896 5479 3435 5428 4105 5029 3785 2453 98 
4114 606 4964 5131 5626 4179 4317 5924 1440 
1411 3838 2880 5368 3681 1234 5290 5522 4558 
1539 5943 3896 173 988 2879 5001 2345 282 
5465 4667 5993 2296 4326 764 3138 4655 751 
3518 1259 2545 1460 5873 2118 3320 616 1264 
3253 5242 5601 5426 514 1996 4168 1534 499 
857 4599 2404 817 3801 2843 5229 365 2696 
5787 2793 5644 320 2595 4343 878 820 2061 
2409 2578 3923 5516 1118 3528 3162 245 1086 
1957 4710 5727 2333 3992 2563 1859 2754 1787 
1583 4131 1426 77 5294 1669 1129 4798 2380 
1179 1752 5752 713 706 4245 4420 1046 2577 
3761 221 2979 4356 5974 5955 4273 232 1585 
1168 5991 4444 3638 4283 4063 553 1580 4923 
4177 1206 448 2513 3495 2245 664 3077 200 
121 5394 1565 5459 4960 5081 2346 704 656 
184 6046 1558 4254 621 1083 2480 3151 1932 
5660 3567 4590 1959 1974 1794 3521 5696 1785 
573 2671 5721 2 250 3196 1078 5863 1607 
1475 5004 1149 1052 405 904 947 371 697 
3473 3268 3910 3562 5448 4360 886 3527 5544 
1701 3171 2962 2463 3302 5347 3464 5961 1627 
3174 3593 4823 4684 3727 3466 5976 2599 337 
5013 2909 1268 4582 383 1151 5464 3696 1230 
3139 1818 4889 1644 3269 2894 4353 3645 6015 
2018 2198 592 2596 5169 543 517 2320 5468 
5066 2556 1687 1266 1001 2509 4562 1926 4026 
1940 2267 1888 4147 4988 409 3504 3182 505 
3177 5478 632 3849 3474 341 104 4873 5636 
2102 1464 3538 2175 3437 5704 1736 3955 1318 
3413 3285 1656 4294 5707 3030 1161 4374 3438 
3248 2860 4781 879 1611 3318 5537 5927 1485 
3167 1360 3598 812 309 4268 5874 5703 2209 
4469 488 1703 3658 1095 2518 1448 1163 1649 
159 3481 167 4104 4780 4750 5259 5149 1303 
4436 2591 5037 5188 4698 5777 3301 1789 3440 
5949 5477 5548 3486 1955 3802 1508 1352 485 
4786 5980 3255 4140 5114 2023 1919 2523 5922 
1203 1800 5805 5224 2562 4862 149 4181 979 
658 515 3256 5996 470 1005 4550 1659 5623 
2744 3366 133 5979 3005 3121 3056 3611 4414 
3219 2186 3135 604 3232 2763 5917 5850 3480 
5307 4660 4738 2475 1765 1225 4979 5683 4060 
4162 3939 203 1505 1621 5140 2319 3807 4127 
439 3787 4618 1181 1208 2265 4481 2450 5826 
4652 4692 3157 4816 4811 939 4833 4237 6033 
2701 1806 32 5354 1114 3204 1393 4913 4536 
4885 4664 3311 3488 4586 3654 1159 248 4004 
3482 2941 291 5435 5106 3396 2008 4384 5632 
1093 3443 4050 622 4166 4302 2444 220 1175 
4815 4501 5732 4290 5947 5113 4234 5303 2317 
1375 153 976 1401 1499 1218 3001 3706 1021 
931 2927 5738 4775 3945 4049 3089 4965 3510 
6052 5227 2477 5814 2917 5692 2431 3679 2496 
3150 3203 2140 2236 2855 3751 3555 4030 2188 
4163 2295 5716 5504 4620 4656 2722 1654 1031 
2898 2225 535 5897 2708 435 3587 3003 5117 
3548 1668 5837 4196 3526 2771 5852 5282 4021 
4653 213 1581 4274 2054 4287 5343 4474 2551 
443 5817 5453 4805 1778 5941 4821 1570 189 
4000 4034 1284 5843 2499 3170 3888 3272 2709 
993 2629 334 492 4098 4157 755 2781 1359 
3647 5739 2632 548 6028 3800 522 4958 4753 
2808 3369 4065 3917 4588 2272 4554 5534 3908 
1301 5321 3721 5622 3776 5248 1099 4169 4279 
1651 3525 625 2756 5700 624 4321 1942 5986 
941 1635 5901 2104 4894 2309 2788 732 550 
776 846 4364 48 2511 3687 2743 2162 4408 
1185 1816 2373 2663 2574 648 4106 796 1855 
4232 957 2387 4084 5767 1029 1415 2580 2706 
113 5994 1382 434 565 2899 1828 3746 5490 
2738 2840 3338 2025 4017 396 395 2321 5276 
4739 2443 3101 5551 5067 5270 1977 5107 2395 
4464 1131 437 4159 3779 4484 174 5281 4020 
2152 4555 175 129 1879 6042 6050 693 3668 
2510 3604 27 1781 1536 3574 260 5540 5189 
5148 362 319 1109 5305 229 3705 154 5726 
4972 4743 1396 1949 3575 2347 1662 1480 4301 
1192 3303 5893 2229 2852 678 3050 2704 1398 
1241 211 4910 5460 1033 5172 2994 3920 1243 
657 4199 3656 408 5083 3236 540 2004 1620 
605 4141 5667 956 1006 2829 2452 4935 2850 
1120 5641 2702 512 314 3324 3 3274 509 
2261 3120 3411 3661 2552 5763 2087 837 795 
2836 4289 3948 5238 4619 5240 4320 3982 3372 
1372 3043 6020 4670 289 3305 3088 4711 3653 
1239 2699 1019 1782 5015 6014 4352 4831 5 