# vtk DataFile Version 4.2
Generated by LIGGGHTS
ASCII
DATASET POLYDATA
POINTS 5997 float
-0.00932241 -0.0219663 0.00599944 -0.0115612 -0.0186222 0.00600649 -0.0122905 -0.0204825 0.00599877 
-0.0155183 -0.0171016 0.00601922 -0.017365 -0.0163511 0.00626415 -0.0139383 -0.0193554 0.00599701 
-0.0105787 -0.0207684 0.00698915 -0.00951102 -0.015992 0.0060002 -0.0131974 -0.0174923 0.00621958 
-0.0114432 -0.0165395 0.00600263 -0.00967472 -0.0192875 0.00599954 -0.00361201 -0.0227513 0.00600007 
-0.000174058 -0.02389 0.00599963 -0.00563659 -0.0218792 0.00600419 -0.00820341 -0.017887 0.00600088 
-0.00753827 -0.0210547 0.00600024 -0.00183125 -0.0218302 0.00599998 -0.0038767 -0.0185802 0.00600011 
-0.00539275 -0.0198949 0.00601053 -0.00709352 -0.0193142 0.00688136 -0.00620647 -0.0177623 0.00599557 
-0.00184231 -0.019832 0.00600029 -0.00215412 -0.0172113 0.00645022 -0.00352936 -0.0208645 0.0066574 
-0.00206152 -0.0238129 0.00666482 -0.000525812 -0.0183276 0.00599653 0.00497595 -0.0211911 0.00600076 
0.00278852 -0.0198157 0.0060058 0.00643896 -0.0225666 0.00613949 0.00662874 -0.0199696 0.00600538 
0.0051137 -0.0185858 0.00603455 0.00660123 -0.0167082 0.00599953 0.00801199 -0.0184863 0.00599802 
0.000184959 -0.0219009 0.00602421 0.00430944 -0.0235482 0.00599329 0.00146378 -0.0176201 0.00604172 
0.00183514 -0.0236781 0.00600974 0.00305828 -0.0218184 0.00599666 0.000794434 -0.0199106 0.00600353 
0.00464145 -0.0166677 0.00638953 0.00842394 -0.0223794 0.00601071 0.0125397 -0.0203283 0.00600123 
0.0120172 -0.0179943 0.00599906 0.00893935 -0.0202711 0.00600244 0.0101129 -0.0186113 0.00600377 
0.0155381 -0.0177437 0.00599946 0.00990467 -0.016532 0.00600156 0.0140033 -0.0161459 0.00600762 
0.0142472 -0.0192733 0.00599794 0.0107262 -0.0211443 0.00620145 0.0174367 -0.0163474 0.00600355 
-0.0208584 -0.0116051 0.00600046 -0.0176864 -0.0102471 0.00599994 -0.0200374 -0.00978641 0.005998 
-0.0194973 -0.0130676 0.00604765 -0.0223634 -0.00861015 0.00600006 -0.0192076 -0.00771484 0.00599925 
-0.0172917 -0.00828486 0.00599915 -0.0187212 -0.014909 0.00600056 -0.0216867 -0.0101364 0.00710028 
-0.0186911 -0.00912539 0.00731521 -0.0207466 -0.00830827 0.00713632 -0.017671 -0.0122481 0.00600533 
-0.0161234 -0.0148052 0.00599852 -0.00900212 -0.00922278 0.00599711 -0.0147926 -0.00789782 0.00599799 
-0.0142711 -0.0140489 0.00599865 -0.00958433 -0.0131695 0.00599825 -0.0146281 -0.00988554 0.00603639 
-0.012887 -0.00890187 0.0059977 -0.0161034 -0.0109416 0.00700572 -0.0159318 -0.0129193 0.00677847 
-0.0144259 -0.0118685 0.00599458 -0.0114399 -0.0124299 0.00599785 -0.0130659 -0.0155289 0.00659654 
-0.0113064 -0.0144408 0.00605902 -0.0126932 -0.0108831 0.00615439 -0.0109059 -0.00861317 0.00601373 
-0.00875501 -0.0111875 0.00624671 -0.00917673 -0.0145715 0.00736155 -0.00182089 -0.0115527 0.00600023 
-0.00670633 -0.0108498 0.00599825 -0.0056852 -0.0158364 0.00601968 -0.00189504 -0.0135622 0.00599924 
-0.00388395 -0.0136503 0.00615767 -0.00317281 -0.0155152 0.00599519 -0.00714698 -0.00903734 0.00670715 
-0.00744391 -0.0127122 0.00599699 -0.00377446 -0.011278 0.00630957 -0.00745119 -0.0147124 0.00599959 
-0.00541494 -0.0123724 0.0059972 -0.00140692 -0.0152786 0.00689857 -0.00266439 -0.00964627 0.00599799 
-0.00503007 -0.00975233 0.00602695 -0.000684507 -0.00990618 0.00605101 -0.0054594 -0.00798156 0.00684586 
-0.00212191 -0.00806743 0.00710313 -0.00580723 -0.0140777 0.00695443 0.0026254 -0.0159896 0.00599942 
0.000267652 -0.015941 0.00599841 0.0080695 -0.00898686 0.00599524 -0.00011067 -0.0079618 0.00683837 
0.00423854 -0.0147507 0.00600008 0.0062372 -0.014743 0.00599787 0.0051461 -0.0129502 0.00601229 
0.00842069 -0.014046 0.00600058 0.00119238 -0.00922395 0.00599806 0.00621916 -0.00975288 0.00600065 
0.00768965 -0.0107698 0.00689633 0.00472441 -0.0110226 0.00638312 0.00716224 -0.012487 0.00600941 
0.00336832 -0.00949194 0.00620551 0.00493619 -0.00814506 0.00633815 0.00234403 -0.00789593 0.00694748 
0.00821236 -0.0158589 0.0068253 0.014635 -0.0116561 0.00599892 0.0123226 -0.0136541 0.00600779 
0.00957617 -0.010295 0.00602432 0.011316 -0.0112701 0.00599596 0.0162989 -0.00959159 0.00599994 
0.0141288 -0.00793418 0.00599751 0.00943115 -0.0122893 0.00600536 0.0162856 -0.0136031 0.00600624 
0.0143491 -0.0140866 0.00599262 0.012336 -0.00945326 0.00600342 0.0120415 -0.0157168 0.00608813 
0.010349 -0.0146233 0.00654698 0.0104653 -0.00850262 0.00599833 0.0157647 -0.0155073 0.00671472 
0.0166312 -0.011565 0.00602548 0.0141882 -0.00981992 0.00665587 0.0129142 -0.0119643 0.00696549 
0.0187572 -0.0148351 0.00599682 0.0198399 -0.011773 0.00599895 0.0197539 -0.0134661 0.00705796 
0.0214835 -0.0106367 0.00600038 0.018155 -0.0128889 0.00601414 0.0207811 -0.00813705 0.0059977 
0.0193897 -0.00957273 0.00599844 0.0221267 -0.00910511 0.00710913 0.0179779 -0.00816184 0.00610646 
0.0182909 -0.0109554 0.0069605 -0.0229504 -0.00669657 0.00599997 -0.0217939 -0.0048806 0.00599671 
-0.0190162 -0.00229486 0.00599826 -0.0219998 -0.000829589 0.0059984 -0.0209076 -0.00666581 0.00601695 
-0.0179646 -0.00614924 0.00599987 -0.0233838 -0.00367902 0.00599863 -0.0215838 -0.00278492 0.00599901 
-0.0238573 -0.00179723 0.00645162 -0.0180937 7.71985e-05 0.00600003 -0.0200875 -0.000221944 0.00601366 
-0.0238577 0.000178102 0.00671493 -0.0170262 -0.00243023 0.00599696 -0.0180394 -0.0041521 0.00599868 
-0.0200176 -0.00400502 0.00623833 -0.0232803 -0.00520279 0.00728877 -0.0195189 -0.00569885 0.00717237 
-0.0162707 -0.0050887 0.00600132 -0.013244 -0.00664015 0.00599928 -0.0111202 -0.00662635 0.00600132 
-0.00962695 -0.00152085 0.00604163 -0.0117176 -0.00209545 0.00599977 -0.0137783 -0.00137077 0.00599833 
-0.00878709 0.000367814 0.00600444 -0.0162175 -0.00695013 0.00703111 -0.00924379 -0.00725955 0.00625607 
-0.0133153 -0.00331022 0.00599905 -0.0121938 -0.00495159 0.00616969 -0.0143125 -0.00499689 0.00638543 
-0.0101555 -0.00495642 0.00651962 -0.00892036 -0.00341824 0.00605312 -0.0151625 -0.00286853 0.00662122 
-0.0111064 -0.000279655 0.00657076 -0.0157066 -0.000971648 0.00631577 -0.0130317 0.000359607 0.00664836 
-0.00565995 -0.00252755 0.00599795 -0.00700197 -0.0040042 0.00599927 -0.00265843 -0.00512465 0.006002 
-0.00317634 -0.00262973 0.00599853 -0.00446253 -0.00415905 0.00600063 -0.00131914 -0.00660981 0.00599873 
-0.00556683 -0.00618051 0.00599667 -0.000999994 -0.00251332 0.00599907 -0.00262311 -0.000710412 0.00599839 
-0.00461445 -0.000829206 0.00599873 -0.00672126 -0.000352535 0.00600527 -0.00831179 -0.00551021 0.00599816 
-0.00723784 -0.00704416 0.00668601 -0.00377229 -0.00718093 0.00604453 -0.00752172 -0.00209246 0.00657969 
-0.00100217 -0.000878419 0.00714919 -8.04719e-05 -0.00503503 0.0059987 0.000984414 -0.00323897 0.00599703 
0.0076248 -0.00563351 0.00599979 0.00424085 -0.00225993 0.00599793 0.00653767 -0.00229362 0.00599972 
0.00680431 -0.00744951 0.00615233 0.00360925 -0.00667347 0.00599969 0.00112182 -0.00663143 0.00599718 
0.00547776 -0.00596391 0.00599733 0.00239309 -0.00508776 0.00599799 0.00430973 -0.00430999 0.00600561 
0.00236401 -0.00157438 0.00599949 0.000611478 -0.00061113 0.00600029 0.00556084 -0.000554347 0.00612257 
0.0082532 -0.00382688 0.00672354 0.00630596 -0.00421602 0.00649441 0.00278549 -0.00332781 0.00685786 
0.00376956 -0.000658337 0.00709584 0.00784843 2.68967e-05 0.00599528 0.00233167 0.000410794 0.00621299 
0.0121873 -0.00744809 0.00600676 0.0160601 -0.00765828 0.00643518 0.0135522 -0.0012647 0.00599603 
0.00895398 -0.00719512 0.00599693 0.0156435 -0.00453184 0.00599768 0.0152488 -0.00239107 0.00601115 
0.0151884 -0.000120498 0.0060016 0.00844558 -0.00185447 0.0064512 0.0101276 -0.00308813 0.00623297 
0.00956402 -0.00514937 0.00599782 0.012729 -0.00552526 0.00600213 0.0137695 -0.00380944 0.00600843 
0.0101471 -0.000887726 0.00599989 0.0109285 -0.006209 0.0070002 0.0145576 -0.00608695 0.00662973 
0.011902 -0.0038799 0.00678522 0.0117452 -0.00188275 0.00667182 0.011922 7.72123e-05 0.00599834 
0.0226867 -0.00753594 0.00600793 0.021172 -0.00616453 0.00600041 0.0189903 -0.00635963 0.0059988 
0.0185525 -0.00439538 0.00599685 0.0218919 -0.0022388 0.0060016 0.0236936 -0.00135842 0.00599375 
0.0201102 -0.000843634 0.00599574 0.0170312 -0.00596772 0.00599931 0.0201093 -0.0031424 0.00600062 
0.0217818 -0.00425082 0.00599951 0.0236624 -0.00355552 0.00599959 0.0168853 -0.00117261 0.00599636 
0.0220342 -0.000238533 0.00600306 0.0238539 0.000628887 0.00599863 0.0183467 0.000219262 0.00599962 
0.0232465 -0.00561883 0.00599756 0.0170709 -0.00311814 0.00640872 0.0199373 -0.00511393 0.00724483 
0.0185765 -0.00177441 0.00687193 -0.0222725 0.00114877 0.00600549 -0.0191047 0.0055081 0.00599993 
-0.0200449 0.00374948 0.00601564 -0.0184947 0.00242677 0.00600051 -0.0238541 0.002551 0.00599956 
-0.0175848 0.00420505 0.0059984 -0.0216175 0.00507699 0.00612973 -0.0206262 0.00680372 0.00600049 
-0.0229812 0.00654326 0.00600241 -0.0203821 0.00178096 0.00599648 -0.0219353 0.00311193 0.00600039 
-0.0234399 0.00446175 0.00667518 -0.0174187 0.00657288 0.0059986 -0.022355 0.00845231 0.00599925 
-0.0203855 0.00878249 0.00605782 -0.0180277 0.0088045 0.00601911 -0.0189774 0.00729526 0.00701633 
-0.0115843 0.00156648 0.00599405 -0.0148699 0.000808718 0.00599701 -0.0100127 0.00142508 0.00721003 
-0.00941782 0.00607122 0.00599672 -0.0102311 0.00809766 0.00599712 -0.0142115 0.00452146 0.00599887 
-0.0130737 0.00288618 0.00599664 -0.0151793 0.00277869 0.00600158 -0.012061 0.00460372 0.00599491 
-0.00893985 0.00258541 0.00599752 -0.0113817 0.00647436 0.00601978 -0.0143012 0.00650882 0.00600298 
-0.0159854 0.00528188 0.00651079 -0.0128573 0.00699606 0.00729532 -0.0141956 0.00849005 0.00615309 
-0.0122049 0.00840858 0.00603411 -0.016723 0.00152792 0.00620582 -0.0101077 0.0042011 0.00610658 
-0.00874613 0.00752029 0.00719069 -0.0162241 0.00804654 0.00660668 -0.000985162 0.000759394 0.00600612 
-0.00304958 0.000757457 0.0072855 -0.00241754 0.0059426 0.0060008 -0.000869596 0.00275794 0.00599865 
-0.000387315 0.00469692 0.00599895 -0.00442643 0.00446306 0.00599705 -0.00549294 0.00676697 0.00599848 
[...]
POINT_DATA 5997
FIELD FieldData 7
id 1 5997 int
808 1303 464 5789 4231 843 5781 4480 637 
1686 4763 884 1110 669 2689 1384 4050 4765 
4193 3608 3221 2561 2374 1480 2477 3357 3555 
5187 2917 1319 3702 3930 1729 2966 1451 5444 
883 5132 2035 1498 3168 2120 2690 726 2142 
2593 2981 2124 1834 5142 4278 1376 56 2226 
1706 1021 1731 5348 2728 4201 4232 377 5206 
5605 5075 816 2795 2652 1984 4003 4002 4984 
5893 1678 5164 1213 3960 1179 2495 2243 469 
2543 258 1536 2794 1114 5616 3427 383 701 
5632 4496 3986 4987 4970 430 1112 835 3642 
13 2259 4757 4575 5738 732 1926 4917 5788 
4286 2323 5440 5337 757 2102 1692 2198 3231 
1449 1399 3149 4256 1853 5925 5147 1417 1438 
4101 1202 1005 2573 550 4705 1489 5283 4701 
1506 1816 1056 4059 2281 4953 5182 1322 4247 
5526 507 2627 4114 2663 5292 6009 1433 3529 
3018 1843 5356 4846 1653 1775 708 1237 4799 
1020 473 3420 3397 4143 3211 1078 705 155 
593 3103 3131 911 3014 3544 4284 1359 4314 
101 2059 1008 4718 5280 3320 2994 4529 4168 
4684 4894 4142 39 142 690 5688 482 5273 
106 5668 5574 381 5650 2017 1107 3693 3055 
2325 1559 3416 1381 5156 4160 2551 2874 629 
1973 1758 602 750 3690 3443 4492 4581 2372 
1708 1041 3777 5502 5237 5699 1770 3280 5846 
5676 4915 2308 889 2137 1915 2861 2411 2789 
2205 2700 122 4263 3786 1275 4331 2746 5971 
5570 4942 3373 5323 3126 2511 6050 452 1139 
3144 2025 4878 1360 1161 3514 970 853 1142 
5948 2587 3966 5468 5088 3405 969 384 5982 
5934 2900 3040 2029 1461 1389 2177 4117 2572 
1650 5602 6023 2168 1552 5466 2691 4102 2827 
2496 1632 5453 402 334 1429 2430 2529 4479 
325 3207 3785 4165 4591 897 4387 1140 4025 
5557 5082 3685 4078 5406 3806 2322 4413 2536 
4153 691 3625 3713 3477 3658 4828 5111 1369 
1878 621 3753 2215 4914 316 3519 1238 5315 
4222 1777 4775 1075 1375 1193 1203 5339 712 
4560 1577 470 818 2012 3377 1352 446 2009 
5204 3938 1226 307 1149 2773 2148 3490 3663 
3087 5809 4018 1268 1866 646 5607 1812 1825 
328 2107 3093 3795 3607 849 4700 55 2949 
5606 5550 3343 3956 3575 5489 3549 2131 5736 
435 319 1293 4666 423 203 2634 1791 1709 
150 2452 4230 4405 2479 2460 3023 747 5351 
2950 2999 2968 1748 3567 5171 3815 323 962 
1428 3878 3210 284 4534 5869 2382 5385 3097 
4005 5944 2888 768 460 190 3276 905 3163 
382 2280 3042 2939 2615 631 1028 4105 3599 
4122 635 2180 371 2395 4972 3362 161 908 
3606 2007 194 2110 2054 4569 4011 4042 6003 
2104 3389 1979 1767 5308 5054 5249 3745 779 
1622 90 5007 140 2947 2390 491 4427 1889 
579 783 3791 1042 2101 2858 5737 304 5120 
220 3660 5724 1307 3455 4515 3773 1766 5239 
5716 4553 5072 5619 3709 1372 5836 6024 5435 
3647 996 2092 1470 2412 915 3651 3200 5321 
4473 2044 2364 4851 151 5923 5685 693 1676 
3139 1241 2178 2006 3217 940 5341 4786 5246 
5482 1494 2562 105 739 961 4167 213 3501 
2090 4254 2618 2030 4058 4932 4113 3720 3582 
2173 5238 5149 425 5855 2344 3046 1722 1016 
2914 1764 2569 5447 1522 2805 5792 4895 456 
2557 3536 984 5140 4702 3814 4588 11 4698 
2072 1680 2329 4369 349 4407 1597 944 116 
864 2509 5691 1500 1841 279 2171 4516 479 
3880 1817 4346 148 3130 5226 1136 3457 2609 
580 1661 2115 40 1904 3100 4020 1247 4934 
4470 3051 1282 555 5863 680 1749 4295 601 
3328 5242 2599 2830 3142 1703 198 5518 599 
5591 2894 4949 2635 1949 4391 2518 1169 3937 
1594 4063 4783 5326 5334 778 8 4767 5155 
2768 1772 5834 4804 5359 4175 1546 405 754 
4311 1244 3171 3833 5851 4418 538 4084 3669 
5504 4921 450 504 259 1588 1123 1654 5106 
3265 3894 1382 2980 4491 3057 2601 5045 791 
4017 3566 5500 5423 858 5604 917 2513 2379 
5216 5201 3874 3551 3191 4235 5924 5740 2754 
2745 958 5205 3886 4905 2301 6010 387 2946 
3877 4090 5848 1150 4716 2355 2350 149 4579 
1404 2744 2542 1210 3844 5772 2566 3677 3630 
985 4502 5818 4086 5248 5770 3370 4600 2519 
686 419 1026 4968 5393 5211 1096 2547 2603 
215 3011 1655 3721 5927 1253 4876 4306 4509 
5365 1240 5596 4329 4097 5127 1478 2319 2397 
3512 2708 841 3179 938 80 1613 4348 2285 
1532 5228 3991 5087 2145 2230 5912 3468 357 
4393 5507 1586 5784 5073 4795 584 2770 2297 
4061 3169 1256 1996 3111 2843 4215 2659 639 
5778 2476 988 129 5317 3927 5850 3980 2425 
5552 3283 2480 1840 2975 4200 2346 3240 2114 
2959 5143 2037 3805 1981 1257 5458 3569 4891 
535 2579 5179 162 1862 3967 3807 2002 3931 
4130 4693 5779 2349 5961 4717 5513 5527 113 
5609 1430 4794 4494 5811 3293 1814 5091 5090 
1458 2644 3614 4678 68 5725 2493 2972 4823 
1236 700 3598 5824 5935 5178 5537 3577 3353 
4568 2755 1628 4542 4219 2877 586 5048 4610 
1220 1095 4237 5464 721 1229 1340 5957 5300 
3479 6029 5295 2580 5974 4608 4185 322 4977 
4628 4603 4829 3445 4118 5592 4145 63 5034 
390 2656 4417 2385 2815 6067 1254 1962 1726 
3957 3561 974 66 3460 2660 1820 717 2179 
1408 3488 4931 5830 3249 4550 5918 2544 650 
1837 2857 4229 1975 1593 2681 4514 1126 1407 
3971 5441 2757 3486 1665 2225 2855 1728 4720 
5251 4372 1881 2388 3845 5098 2398 5410 3454 
440 3193 3655 1325 5771 5377 2585 2971 2777 
4630 6045 1391 3750 863 3294 3060 5704 953 
2266 4618 118 4351 5990 5569 1131 1043 2590 
4816 3746 5136 2427 5866 1969 4292 4951 250 
3255 5215 5559 1249 1667 3185 1183 4404 2157 
455 2687 5785 956 5878 3751 3010 1230 3571 
1913 4892 1646 5870 3554 3423 5700 4146 2482 
3411 4682 742 828 5068 3539 183 2294 1917 
2233 3464 6046 5260 372 2926 4840 1267 1148 
5424 396 4127 2128 5279 5633 1091 3356 3065 
262 2248 3553 4819 4952 5657 4999 4903 1109 
5252 1835 2126 132 4349 2899 1302 1672 2439 
4317 4900 745 5002 4468 2903 2499 1188 5906 
1754 3978 5780 2885 1484 2462 126 3827 2571 
4275 219 2915 681 191 5486 4950 2077 5391 
572 2786 4448 4774 4750 2408 1017 4089 2316 
3914 4925 2193 3325 3287 1805 5929 4814 2729 
4379 2650 4293 1781 61 2767 548 3922 5193 
1827 201 5094 792 3545 752 4571 3372 5556 
959 3829 1411 3073 1659 1153 3462 4798 12 
3188 1286 3635 4082 1508 4998 955 3064 2965 
4510 5299 5474 749 2943 98 1473 738 4577 
5036 4368 3354 4714 740 731 1178 5613 3400 
4631 4019 1564 1187 5847 761 127 3289 3132 
5431 993 1658 243 3944 5505 5658 179 2822 
4675 574 3524 5375 861 4614 5638 5954 3302 
965 2122 1232 2287 18 3779 5984 4361 1744 
918 5877 2882 1846 642 2062 1413 592 4809 
81 2433 1421 3972 4253 2549 6048 2084 1951 
4986 5858 1116 2774 3309 5979 104 5256 2806 
2956 1958 1373 3645 3028 2546 5706 3308 4239 
1251 4228 2326 4589 627 4380 5915 3734 5533 
4401 1836 206 1801 5562 3804 4980 160 695 
2951 3257 2416 2560 340 5637 924 1502 5442 
2 2019 2556 945 5511 1724 5815 2505 776 
2063 981 1524 1080 5651 1715 1416 3472 2162 
728 793 70 4754 1540 543 1285 1397 2747 
3699 5110 1518 1793 1304 57 1589 4511 1434 
1955 154 4322 3989 5028 5409 5151 2324 556 
3380 235 4120 5794 5889 4358 141 567 2931 
3646 4459 2290 4500 2838 4000 3953 4728 3899 
3890 2920 3810 4024 5006 3263 1371 5871 3738 
1362 2199 5040 1541 4104 4815 4661 2484 2246 
2998 2219 4609 1642 509 4299 3954 339 1400 
5702 5515 1436 3439 2443 2284 1746 3197 3887 
1328 4288 5061 5696 4616 3303 3541 1242 3858 
2396 3636 1505 5686 4390 5243 421 4501 4871 
406 4749 4517 3747 5723 1333 4162 1608 5282 
5800 5549 200 5159 3975 1101 5523 1366 414 
2964 5161 2992 3296 537 3089 5535 3327 4964 
1533 4271 3935 966 2776 4484 4483 1696 4562 
1872 5278 4842 2327 852 3684 2026 5217 2286 
4512 1398 3030 2402 1582 3446 1409 4624 4135 
5949 4074 3850 3228 1298 1569 4694 1851 5053 
4766 3951 4488 2848 5873 2098 5695 27 2024 
2333 899 1396 3703 4548 2392 5046 2312 4863 
2050 4291 5614 355 5360 3081 280 5754 3404 
2702 3534 94 636 1425 3381 2334 1823 2808 
5461 5245 1034 3933 3675 946 5207 1538 516 
1175 1848 16 2191 2064 1049 4119 834 4172 
1050 2533 2916 2365 813 809 4180 3063 5825 
2863 1786 595 4623 2606 5987 2629 4594 2141 
5457 3114 3879 2061 1568 2491 5760 3727 5336 
3506 4194 4645 2624 3581 1952 2335 5890 1542 
2576 6005 5227 4134 3246 1393 4826 1611 2434 
2970 704 2069 3496 1959 1442 3820 5000 234 
5030 5742 4943 2907 3560 1936 3592 3033 4197 
3943 4839 2428 3165 3706 2314 5837 562 2216 
4081 5042 2485 177 1079 4139 4250 1983 4960 
5062 1511 4849 2176 4411 1294 2236 6034 2678 
5551 3698 5092 3292 5433 30 3038 5967 5071 
5503 3995 1855 6058 494 1657 5010 3068 2782 
1076 2756 1743 1191 5070 529 238 3835 3388 
4212 3045 1819 4012 3463 2859 1122 968 3666 
3393 4357 434 821 2928 6052 4691 3968 3307 
374 787 4095 2640 2619 2435 1147 3243 5126 
4681 5672 3430 1545 4843 1029 3392 1177 1583 
3390 3648 5598 2362 1882 4898 2292 1141 4443 
1039 954 4922 400 5610 525 5381 2404 2279 
4057 1895 2682 3900 5369 1062 4880 5362 4821 
1439 4741 2751 143 337 5817 5367 3994 1747 
5344 1922 1134 1093 2732 4373 2733 15 1467 
1939 5938 3336 1539 5405 108 4559 1664 4436 
1024 2032 2602 1235 4098 741 5849 1860 5221 
2816 2283 3781 1219 685 794 975 1519 2503 
3414 4954 6008 2056 4265 231 2418 1435 5158 
2020 3264 1113 1874 2662 1196 5004 1515 3924 
2210 1258 2614 1459 5064 1830 2814 1579 670 
4671 4523 486 799 3075 933 1335 3426 1944 
6035 986 1083 3563 570 2563 4451 3543 3528 
1919 415 3976 1127 3272 3928 3731 1426 748 
3113 606 74 2240 1132 2856 836 1957 3094 
4549 3224 221 5951 5972 887 5795 4996 676 
4385 1305 6018 5839 3491 327 4310 3739 5841 
873 5969 3774 4159 3679 4410 3106 5806 5718 
3962 1037 1496 4499 1281 293 4309 267 1208 
1972 4339 2232 4324 3920 2076 2504 2422 848 
2632 4552 2935 1365 4069 763 5448 4147 493 
3428 4546 4398 2990 990 4077 1469 3730 3310 
5874 2207 2175 3662 5880 856 2444 2537 333 
4166 4128 5588 3990 1427 531 4464 804 277 
755 2321 5626 3049 2904 3896 3344 4257 4604 
4303 4583 660 4676 1778 3932 1422 1549 4412 
3266 1348 5389 5733 2368 3406 3583 1157 1769 
583 5177 558 5674 5796 2892 2125 5192 3452 
4184 2220 1395 1288 2684 1450 4708 3513 5775 
1988 3056 1011 3447 5726 1338 4870 1321 3438 
807 4226 2957 4022 4531 4234 4065 4939 3771 
3223 225 1788 1097 5031 268 3326 436 3719 
3441 5291 2166 4041 3988 4129 2027 877 2550 
5947 4746 2209 41 1768 1023 2192 3762 1012 
3244 3716 4632 4528 119 2185 4971 2377 771 
4771 1277 4827 2483 2255 823 5258 2722 3797 
4904 5649 5986 3897 4663 5767 5398 2908 4023 
123 5900 1248 1886 1385 420 96 5769 6040 
22 1084 5250 3379 3934 2475 4734 810 5510 
3834 1492 83 4052 1626 628 128 2886 3639 
1903 3024 978 3186 3688 480 2984 6069 196 
4051 4188 5622 552 1932 4450 832 3776 2228 
5690 1719 870 4785 5125 1537 2117 4191 1701 
5791 2488 4882 4537 999 4068 575 4787 1785 
4449 2739 2913 2269 2065 2277 2375 4730 3261 
2245 3788 5335 5599 1554 135 4955 89 3977 
1883 4753 92 4021 980 840 3620 4202 4646 
2897 1 4403 4788 4100 4141 5996 29 5973 
764 619 2221 4280 5922 1995 1189 540 971 
5752 5443 711 5027 3819 4319 2038 2464 1838 
3156 2633 3587 3090 2849 4176 688 3274 1051 
229 907 308 1662 1759 5189 4653 1370 4743 
2812 2704 3022 4592 483 4654 1898 2472 3258 
2847 1055 2807 2431 4692 1483 5017 3203 1088 
3653 3382 4973 2724 3674 4673 1490 5813 347 
1192 3401 5581 4527 3784 5366 563 1211 4564 
1574 5805 4169 4209 1182 1152 4430 3434 351 
4121 4269 445 379 4454 2066 1047 5573 806 
222 5682 4860 3872 5680 827 1610 2068 1561 
5654 1128 1104 2832 1645 359 5112 546 1897 
2531 1061 5803 5478 4015 671 523 1753 5538 
3175 1806 2686 407 3610 1167 2055 341 502 
766 4204 1963 1412 772 361 2051 360 2809 
1900 2781 278 796 4580 577 3485 1789 3907 
386 1985 903 760 597 2242 1059 3632 4290 
5395 5960 5521 4916 5150 3080 1314 1493 894 
2040 5582 1015 5600 5908 1773 5611 1378 2112 
900 614 4946 801 2717 5786 3570 1138 5157 
5067 972 1810 4909 3297 3234 2643 5019 291 
3259 6017 4709 145 5857 5930 1054 2846 4046 
2597 4990 2421 3531 2116 1022 3346 4634 3032 
2468 1163 2876 4756 4806 5180 3790 1669 1576 
295 2359 684 1201 4152 265 4462 1687 3863 
1444 5059 902 1757 5703 1771 3007 1971 5400 
5259 5494 2159 4164 3852 3970 5330 3964 217 
3092 1733 3181 625 2449 5327 2075 4174 922 
872 4241 2252 2043 4026 4225 4759 2415 3241 
5394 5854 1675 1682 3735 5342 5729 4040 1947 
134 205 2506 3600 3323 1828 5891 5029 1058 
4366 653 4383 4854 488 3664 4704 3260 2577 
3235 4157 767 1704 5942 4957 4249 2001 773 
1299 4711 508 2154 492 437 2685 2674 247 
5661 1863 391 1905 536 28 5199 471 4294 
2938 1074 5635 4243 461 2450 501 4558 1082 
138 3965 5015 3229 3912 4216 59 1982 5418 
1098 4486 1858 3267 4195 2447 2276 5814 2406 
4053 5572 1978 5439 2802 1902 1627 960 5968 
345 2716 312 3694 2833 4778 4375 1361 4956 
5428 1154 2203 4587 5603 1557 1525 3548 5909 
4109 4769 5799 3873 3565 4103 5623 1534 3780 
2303 4388 458 4557 4879 2474 2011 2336 4192 
2109 1714 5843 4367 3268 4312 3431 4545 2423 
2330 643 3911 1512 4598 3883 3067 4540 5566 
289 947 860 5153 2821 2393 2399 5263 746 
1901 1118 3108 4841 948 2835 4593 288 3391 
5271 5536 4079 1368 4273 5689 4493 4983 3741 
1279 1730 2045 2099 1732 3077 4945 3109 891 
2933 2837 3796 5097 5844 4008 4582 3232 5698 
2714 497 4974 2516 4386 3502 1455 429 47 
5727 187 5621 517 3435 1824 6012 3071 530 
3459 2487 5659 5130 1215 4584 500 4446 2758 
4308 5069 5981 5620 600 3192 2800 1510 2592 
1105 3792 193 3037 4881 3515 5262 3585 3893 
4356 2625 790 3611 5081 4203 4906 6000 5373 
3041 4760 3929 4703 300 3633 4255 3961 166 
1668 2003 2884 662 4715 45 3407 2250 3595 
4852 4947 5172 4877 158 5191 3763 5634 6055 
2481 4099 133 5277 3715 5415 3395 3609 144 
2227 4072 1850 831 655 4341 1310 5392 4325 
103 622 673 5496 5254 2156 3689 1751 817 
3451 4056 5648 5311 1792 2796 3086 1000 3332 
363 2010 2896 4872 4963 5743 3987 710 5316 
3885 2521 5509 528 5253 765 1720 5269 5578 
3573 24 442 1612 5322 6030 910 3862 5950 
964 2574 4155 5746 5425 2353 93 545 896 
3740 2748 5229 2270 5114 5419 1482 6039 2121 
2095 1698 2932 2213 2867 5864 315 5730 433 
453 3146 5403 1045 475 2669 3629 1320 2769 
4976 5343 5224 2074 2960 1010 719 2275 3299 
3050 5264 1223 2053 1270 2875 1162 1920 163 
5488 1868 292 3984 5008 5241 3016 2525 5050 
5032 4833 4320 443 449 19 21 672 2223 
1452 5966 4262 3187 5831 977 3152 147 3768 
581 5640 3374 4699 2974 925 276 4108 3631 
2410 612 4457 949 176 2134 5991 1390 4920 
1019 4780 237 2520 3176 2005 2342 2880 3083 
4884 2514 5963 598 1813 2169 3564 2073 4924 
4252 1884 4719 3822 1721 2201 5223 2057 2693 
4438 4967 591 4755 2291 1908 2720 2409 5399 
4414 5675 4655 5374 3682 4007 1476 1937 3809 
4859 1278 3507 3618 1260 212 2583 3396 4456 
3696 4287 1488 2790 424 1269 4033 4640 2208 
4981 2666 3697 2339 656 3672 5379 305 5643 
1036 2954 850 1873 1146 5883 3085 871 3615 
5749 3002 1892 2711 1633 1472 1259 3402 2218 
5467 2299 169 3816 4370 1717 185 4992 3798 
5296 4910 131 3517 1437 3700 5512 5197 1797 
3623 3304 2699 5539 1974 5290 3351 2697 5167 
329 1695 2979 5117 1787 5714 2696 1942 3047 
5964 5003 4471 25 3638 2261 1171 3052 5859 
5656 3818 4163 1164 3523 4207 2034 5516 3222 
2376 2548 788 52 4461 3505 4772 2360 2952 
1204 3148 1401 3162 3164 2567 4674 2470 2251 
4595 1997 4834 4374 3659 3311 1811 1573 3418 
926 5079 3009 4285 5404 3415 1927 5129 3580 
5479 2793 5445 5301 2772 2106 3128 3725 2853 
5463 5997 6026 2196 4625 950 1290 1697 3044 
661 2113 3830 654 5364 774 404 5962 261 
3157 1916 3019 4423 1252 4270 2918 4455 23 
4844 5631 2340 2647 5350 5861 1009 4297 2955 
1526 4874 1471 5645 3983 2315 465 4764 5208 
1707 5484 1994 2942 5579 2910 2096 2710 5449 
3450 664 4392 3542 3923 3036 4242 1521 3206 
5310 3003 173 3262 232 2512 4543 2165 3525 
1779 3831 251 982 2735 2688 5495 99 3856 
2626 4140 17 6027 2186 4668 4158 4495 3769 
5669 874 5901 3707 188 4539 510 332 4520 
5146 1190 1592 5352 3027 5396 3366 3205 4467 
4434 1741 4031 1924 5499 4066 5999 459 4685 
270 4161 6049 5812 2305 1620 1803 4422 4301 
3061 542 2775 2866 564 2873 5921 6033 1737 
5 4651 36 5776 2249 4930 1351 4574 647 
4327 4196 5946 4304 3676 2224 5033 4344 4149 
5709 1660 1102 2172 3516 5845 380 5220 3364 
5589 5005 5462 3948 4126 3112 5134 3946 921 
2136 4276 559 2766 2317 3000 4261 5576 4677 
5840 3509 5212 3861 5885 706 3271 2458 4181 
4477 1066 5194 5506 2328 2170 3349 1363 2456 
1565 4695 7 4227 992 5748 3594 2613 5955 
4463 1941 326 5804 1677 1030 5124 1117 979 
1214 171 1507 3823 5939 5838 735 855 4696 
426 91 4453 1155 2448 1970 743 5722 3190 
5347 3174 1334 5653 2347 2293 4599 935 880 
5001 5575 1301 4260 4092 2289 281 6059 5916 
5085 2642 1255 1711 4576 318 3498 1038 4662 
3865 3908 418 5956 4567 2605 3601 4083 4710 
2671 4902 3444 427 762 240 3588 3855 2553 
3442 5052 5798 2071 4482 2135 5734 5993 3270 
3683 4340 4316 2760 3385 1891 1998 2197 2891 
3765 3386 3562 3355 3394 2534 5065 4853 1980 
1069 4334 2331 375 611 121 1604 5687 5782 
2977 1057 115 4384 2380 5477 1516 3466 1205 
2649 1558 1121 5101 5615 256 2361 2839 5975 
5320 5790 1906 2930 498 1547 3340 720 199 
2348 1342 2400 833 4991 2174 4485 1679 4389 
5977 2940 3871 4648 3409 2872 4189 3847 4458 
4689 2988 3419 4027 3634 1976 5493 1457 3118 
6038 5852 1133 2761 2386 4933 476 2948 3147 
5325 613 2750 3947 358 5937 4570 904 2363 
6004 5121 573 5480 4321 1002 846 3782 5387 
3619 571 5266 3826 3654 634 1004 1447 4240 
3410 2987 4415 1630 2532 668 3333 4442 1738 
4818 1964 1587 1877 5744 867 1218 1481 3245 
5231 3649 1013 264 5823 3737 1966 3979 2725 
3290 1890 4070 317 780 1600 82 3417 4245 
46 3248 2860 1700 5886 3482 5584 2919 4761 
995 3440 782 648 539 2607 2060 1216 5380 
2103 3680 5577 5233 890 1332 1603 3350 2048 
4137 5407 5612 854 4958 1807 4861 837 4566 
514 35 4116 6064 4186 2508 3484 5363 5707 
1735 1160 2818 4267 6042 615 2310 112 587 
5719 428 1946 3153 2811 4503 1374 532 5103 
1795 3167 4206 4944 4731 2921 3301 3122 3778 
3775 5026 3891 5992 4601 2715 1977 5913 6043 
4524 1685 2779 815 331 5713 4355 3095 3904 
5693 4350 3742 3503 124 4296 3909 3945 2673 
2343 3172 4848 2785 5083 1403 2540 4555 4927 
5940 4824 388 356 2296 210 4680 2492 2239 
3321 1357 1486 2036 3166 4620 5390 1865 2086 
100 5473 5113 3508 5926 1025 1899 4800 2780 
5051 5565 1673 1649 5801 3253 5122 878 2244 
5561 5116 3322 4733 1475 1595 3101 1207 3031 
4923 785 1948 5274 4067 1989 4244 1893 4926 
3084 2764 2871 2257 5244 2555 2461 3121 1184 
1567 5063 2194 2646 4472 2636 4736 3849 3339 
1448 744 5459 5497 2986 1173 4737 2143 2752 
5865 5109 85 5753 5545 4004 4378 5731 649 
4994 5896 1761 1345 5408 43 4220 5234 4808 
2274 5144 4518 859 4664 3196 4073 4399 1640 
6013 5853 5671 5174 2459 3102 3851 1068 1406 
723 4554 590 4136 1938 2701 1003 3347 495 
1035 2568 4332 5903 1287 786 3182 2934 2631 
1441 2466 3996 309 32 1194 5827 2079 1087 
1736 4489 1523 5184 4248 1336 95 916 1740 
3918 3334 3345 87 4858 3399 3008 3074 4721 
1311 4530 5832 1581 2008 1432 2600 928 1935 
1910 608 1590 3252 4124 1513 1503 3478 2983 
373 2437 5717 110 298 2538 2721 4938 3337 
1693 2828 156 5202 4807 1072 2367 2150 932 
4416 3752 734 1914 2771 2453 4330 4975 2273 
4421 2130 1934 5414 1555 3802 4038 5642 3985 
5673 1185 3864 3020 2667 5160 5783 2486 2969 
5952 4474 4338 876 1713 5721 1089 4626 3403 
2441 554 175 1276 2517 1313 5941 5517 5835 
1887 4907 2621 3361 4223 5210 4847 2973 4173 
364 3383 4656 5382 934 1159 4183 2004 3091 
865 348 1379 5086 3559 5402 3324 5625 5376 
4636 272 5386 180 3942 4435 666 3005 3043 
3150 2945 5761 1324 1111 4199 137 2083 2337 
5917 3499 2152 5810 3705 1273 2229 678 466 
4049 2267 2271 3421 2278 607 802 2146 5525 
3799 1443 4032 5285 4233 5665 451 5988 3313 
3422 3772 4112 2865 3473 5876 2097 5910 5897 
4864 4431 6007 2713 4336 4742 730 2288 2588 
2127 1222 5750 3198 3001 2936 4888 5715 1543 
5628 4768 5662 1209 2119 3605 5154 5421 2144 
4437 5580 4323 4762 6022 181 2373 254 3494 
888 1431 130 4352 5472 3413 2298 4519 1923 
5353 4796 2528 444 1570 314 5756 1580 4959 
2820 5427 2878 2206 713 2118 5268 3643 2978 
320 694 698 5195 97 2653 4429 632 1383 
5198 4830 2311 5181 5340 3137 4010 3078 2081 
1635 3591 5446 2419 2797 4224 346 287 3641 
5540 5766 2212 4707 5451 4937 5219 6041 4115 
2414 3787 38 3770 2088 1060 1064 2524 3574 
76 2743 5089 3183 5313 58 5236 3895 3194 
5630 4748 3941 1265 3298 805 3665 2058 5663 
5677 3572 630 520 2158 5456 2042 1119 6032 
417 306 3161 1221 2723 6056 3319 3143 4428 
3070 618 2784 4722 4642 2260 5213 53 3714 
236 2047 1405 4490 5011 244 2683 5384 5186 
2651 5697 1224 707 3408 2995 605 1514 3889 
2184 3021 366 1170 2354 3540 4282 4043 1086 
1752 1987 2554 3558 1520 20 603 496 973 