# vtk DataFile Version 4.2
Generated by LIGGGHTS
ASCII
DATASET POLYDATA
POINTS 5997 float
-0.00999161 -0.0197393 0.0115454 -0.0150403 -0.0182401 0.0120238 -0.0166629 -0.0169536 0.012185 
-0.010491 -0.0176699 0.0120909 -0.0135647 -0.0195942 0.0122901 -0.0125212 -0.0177809 0.0122164 
-0.0119119 -0.0207265 0.0121246 -0.0101666 -0.021619 0.0125279 -0.00848427 -0.0179758 0.012064 
-0.0080681 -0.0199684 0.0120775 -0.00814112 -0.0224167 0.0123512 -0.00645066 -0.021248 0.0118994 
-0.00502463 -0.0197625 0.0122489 -0.00649258 -0.0184565 0.0118289 -0.00252601 -0.0237427 0.0122563 
-0.00615263 -0.0231392 0.0125811 -0.00489798 -0.0171113 0.0124088 -0.00106603 -0.0217969 0.0121493 
-0.00034566 -0.023675 0.0124213 -0.00289648 -0.0166933 0.0126437 0.00107774 -0.0219683 0.0123593 
0.00324387 -0.0216917 0.0124578 0.00350791 -0.0236903 0.0125022 0.00298866 -0.0197016 0.0126469 
0.00157378 -0.0238048 0.0130684 0.00483358 -0.0205445 0.011961 0.006039 -0.0189231 0.0120617 
0.00538454 -0.0229321 0.0120731 0.000978718 -0.0196972 0.0123474 0.00436983 -0.0179841 0.0126416 
0.0072435 -0.0226619 0.0127919 0.00715604 -0.0206311 0.0123284 0.0123957 -0.0204171 0.0124331 
0.0104922 -0.0213912 0.0120124 0.0107527 -0.0192704 0.0124771 0.00902162 -0.0201654 0.0129327 
0.00900408 -0.0182848 0.0122408 0.0141099 -0.0193711 0.0125259 0.012473 -0.0182483 0.0122122 
0.0156664 -0.0181359 0.0127711 0.0140822 -0.0170721 0.0119185 0.0170652 -0.0167231 0.0124461 
-0.0169239 -0.0153135 0.0110068 -0.0198223 -0.0101534 0.0115859 -0.0185564 -0.0116994 0.011938 
-0.0206821 -0.0115835 0.013048 -0.0179865 -0.0156124 0.0129094 -0.0180431 -0.0135528 0.0125928 
-0.0218336 -0.00971046 0.0131111 -0.0206778 -0.00838756 0.0120042 -0.0137929 -0.0163536 0.0115441 
-0.0108105 -0.0156864 0.0116616 -0.0165843 -0.0121734 0.0129921 -0.0105622 -0.01164 0.0119185 
-0.00882669 -0.0104751 0.0120722 -0.0160003 -0.0136893 0.0117655 -0.0125788 -0.0127246 0.0121673 
-0.0146268 -0.0123382 0.0124873 -0.00955497 -0.0141338 0.0122479 -0.013222 -0.0110459 0.0131386 
-0.0122121 -0.0146482 0.0128178 -0.0139997 -0.0142076 0.0118986 -0.0084852 -0.0124047 0.0126992 
-0.0156551 -0.0103925 0.0124987 -0.011871 -0.00984003 0.0122704 -0.00874179 -0.0159538 0.0118858 
-0.0139783 -0.00921781 0.0124695 -0.0151939 -0.0156626 0.013014 -0.0094897 -0.00859089 0.011939 
-0.00101735 -0.0110826 0.0114809 -0.0066629 -0.0124158 0.0118384 -0.00276791 -0.0144734 0.0117237 
-0.00681186 -0.0164658 0.0120184 -0.00726639 -0.0143142 0.0121616 -0.00672882 -0.0104479 0.0124359 
-0.00262358 -0.0120337 0.0123183 -0.000856352 -0.0165609 0.0127188 -0.00469908 -0.0130137 0.0123433 
-0.00525712 -0.0150344 0.0122025 -0.00312358 -0.00904887 0.0130931 -0.000722538 -0.0145666 0.0120767 
-0.00553758 -0.00882673 0.0129337 0.000269213 -0.0126939 0.0113775 0.000570707 -0.00941149 0.0119095 
0.00152263 -0.0147371 0.0122834 0.0051734 -0.0160749 0.0128824 0.00412221 -0.0129679 0.0129649 
0.00207877 -0.0128319 0.0125982 0.00347036 -0.0148816 0.013029 0.00323886 -0.011112 0.012722 
0.00532778 -0.0113807 0.0128065 0.00723379 -0.0107717 0.0130328 0.007098 -0.0155207 0.0127216 
0.000860623 -0.0111798 0.0130264 0.00450315 -0.00956305 0.0124714 0.00259513 -0.00920199 0.0129715 
0.00643243 -0.00893887 0.012437 0.013505 -0.0124459 0.0116041 0.0155678 -0.0157174 0.011537 
0.0129892 -0.0105247 0.0119236 0.00857521 -0.0120471 0.0122726 0.0102246 -0.0131766 0.0122132 
0.012098 -0.0138787 0.0121394 0.00893532 -0.0162473 0.0123979 0.0122951 -0.016261 0.0125613 
0.00867685 -0.0142847 0.0128464 0.0105866 -0.0151362 0.0127007 0.0136998 -0.0150311 0.0118026 
0.0112536 -0.0114575 0.0122939 0.0149942 -0.0102816 0.0121745 0.0149982 -0.0121743 0.0130185 
0.0154598 -0.0141308 0.0129864 0.00860836 -0.00944824 0.0123626 0.0166332 -0.0128736 0.0119581 
0.0130061 -0.00863045 0.0126108 0.0173126 -0.0148126 0.0119088 0.0192222 -0.0141907 0.0121817 
0.018461 -0.0120445 0.0122757 0.0203818 -0.0125669 0.0125422 0.0213708 -0.0108374 0.012351 
0.0183889 -0.00999137 0.0122955 0.016766 -0.0110577 0.0128067 0.0220927 -0.00913205 0.0131346 
0.0202838 -0.00913469 0.0122584 -0.0228339 -0.0061571 0.0114962 -0.0235 -0.00419809 0.0112846 
-0.0188634 -0.00578673 0.0125888 -0.0187925 -0.00778466 0.012336 -0.0209131 -0.00647455 0.012673 
-0.0166635 -0.00480956 0.0121718 -0.0225355 -0.00788961 0.0126018 -0.0197738 -0.00395549 0.0122785 
-0.0219876 -0.00332253 0.0122616 -0.0176223 -0.0030013 0.012547 -0.0238389 -0.00237075 0.0122025 
-0.0204007 -0.00214746 0.0129287 -0.0186417 -0.00118724 0.0125568 -0.0219702 -0.00121073 0.0120722 
-0.0237901 -0.000352163 0.0121881 -0.00926725 -0.00668741 0.0112681 -0.0112837 -0.00589663 0.0113172 
-0.0132664 -0.00736122 0.0119334 -0.013306 -0.00529747 0.0121015 -0.011341 -0.00786394 0.0117128 
-0.00904609 -0.00438041 0.0118671 -0.008904 -0.0013003 0.011867 -0.0116165 -0.00430833 0.0125265 
-0.015897 -0.00833693 0.0121685 -0.0149615 -0.00637308 0.012842 -0.0103493 -0.00277494 0.0119793 
-0.0123576 -0.00237336 0.0123208 -0.0166242 -0.00117836 0.0127632 -0.0109096 -0.00088824 0.0123413 
-0.0128184 -0.000383788 0.0120256 -0.0148112 -0.000513887 0.0121418 -0.00484595 -0.00712757 0.0115221 
-0.00305864 -0.00516734 0.0116309 -0.00184629 -0.00352797 0.0113229 -0.00508828 -0.00512445 0.0114603 
-0.00709569 -0.00232089 0.0115367 -0.00452402 -0.00321738 0.0117275 -0.00529666 -0.00136545 0.0119172 
-0.00759548 -0.00787717 0.0122832 -0.00668443 -0.00608734 0.0122433 -0.00694845 -0.00411402 0.0124798 
-0.00306637 -0.00710604 0.0124997 -0.00150055 -0.00545753 0.0128822 -0.00308508 -0.00189761 0.0122555 
-0.00112009 -0.00832396 0.0122272 -0.000232941 -0.00255795 0.0123154 -0.00144046 -0.00110377 0.0131352 
0.00470023 -0.00165056 0.0115561 0.00653276 -0.000819726 0.0116342 8.19838e-05 -0.00463601 0.011873 
0.000114496 -0.00667546 0.0120141 0.00665265 -0.00492518 0.0122586 0.00229417 -0.00731595 0.0123717 
0.00467301 -0.00560981 0.0119969 0.0051591 -0.00357642 0.0120937 0.00677658 -0.00695471 0.0124391 
0.00437382 -0.00759667 0.0119921 0.00297323 -0.00284526 0.0121067 0.00710296 -0.00272483 0.0121787 
0.00147728 -0.0056263 0.0131067 0.000500618 -0.000692773 0.0127029 0.00232125 -0.000383644 0.0118906 
0.0109374 -0.00352651 0.0116159 0.0152819 -0.00181773 0.01138 0.0160428 -0.00360534 0.0119248 
0.0105517 -0.00596237 0.0121131 0.0133993 -0.00665679 0.0126343 0.00850313 -0.00564664 0.0128115 
0.00923468 -0.00756273 0.0120999 0.0111886 -0.00779396 0.0126402 0.0123274 -0.00501427 0.0121051 
0.0143178 -0.00485666 0.012391 0.0132835 -0.00306473 0.0125451 0.00914612 -0.0031684 0.0125693 
0.0161684 -0.0076256 0.0119818 0.0161633 -0.00564207 0.0122535 0.0106546 -0.0014497 0.0121681 
0.0130718 -0.00105879 0.0127141 0.00845557 -0.00121032 0.0121402 0.0148839 -0.000108221 0.0128319 
0.0232847 -0.00543135 0.0121089 0.0210865 -0.0062887 0.0121726 0.018033 -0.00631549 0.0119614 
0.0186962 -0.00806036 0.0129035 0.0199555 -0.00460663 0.0122888 0.0218397 -0.00413964 0.012783 
0.0179922 -0.00415448 0.0120621 0.0236593 -0.00336517 0.012349 0.0194705 -0.00220044 0.0119442 
0.0174388 -0.00202243 0.0118742 0.0227328 -0.00724705 0.0128464 0.0216038 -0.00206591 0.0123814 
0.0227745 -0.000439206 0.0118875 0.0186224 -0.000355542 0.0122401 -0.0231545 0.00565107 0.0118609 
-0.0238446 0.00163203 0.0125516 -0.0218247 0.00196619 0.012438 -0.0204641 0.00345192 0.0125032 
-0.0202538 1.67108e-05 0.0124951 -0.0177289 0.000595496 0.0125469 -0.0193201 0.00181326 0.0123024 
-0.0186152 0.00420696 0.0121303 -0.0236095 0.003664 0.0122049 -0.0212561 0.00532499 0.012426 
-0.0194127 0.00604323 0.0120596 -0.017296 0.0026123 0.0124038 -0.0174972 0.00651974 0.0123824 
-0.0208997 0.00735489 0.0123835 -0.0228069 0.00729793 0.012994 -0.0167307 0.00482435 0.0116468 
-0.0189943 0.00798776 0.0122679 -0.00944561 0.0071376 0.0115774 -0.0113836 0.00426467 0.0118791 
-0.0149416 0.00327668 0.0120898 -0.00949708 0.00358845 0.0118027 -0.0158809 0.00119812 0.0120775 
-0.0108463 0.00215387 0.0121716 -0.0139271 0.00123358 0.0126978 -0.00952075 0.000564137 0.012437 
-0.0129039 0.00293232 0.0123789 -0.0130805 0.00533994 0.0121914 -0.0150384 0.00525567 0.0126791 
-0.0113344 0.00629175 0.0119458 -0.00965562 0.00545163 0.0126436 -0.0137476 0.00724166 0.011797 
-0.0156116 0.00717082 0.0125975 -0.0110833 0.00829165 0.0118589 -0.00202912 0.000274264 0.0115175 
-0.00212857 0.00486279 0.0115861 -0.00402055 0.00571828 0.0111738 -0.00011843 0.00533394 0.011316 
-0.00760207 0.0080041 0.0116814 -0.00730135 4.25307e-05 0.0117621 -0.00823259 0.00204998 0.0120205 
-0.00517432 0.000779705 0.0119964 -0.00386745 0.00376232 0.0117866 -0.00160834 0.00286569 0.0117419 
-0.00779066 0.00482969 0.0116535 -0.00574267 0.00451807 0.011682 -0.00615899 0.0025373 0.012115 
-0.00339299 0.00181969 0.012386 -0.00608657 0.00648129 0.0119732 -0.00168533 0.00686057 0.0117963 
-0.00295132 0.00601754 0.013098 -0.00791356 0.00640166 0.0129062 -0.00367865 0.0075462 0.0119911 
0.00414864 0.000369512 0.011398 0.000418133 0.00335892 0.011739 0.00203931 0.00598239 0.0113083 
0.00703627 0.00584745 0.0115999 0.00332661 0.00763933 0.0114112 0.00255455 0.00361002 0.0118558 
0.00591814 0.00140654 0.0118071 0.00754943 0.00295113 0.0119258 0.00440123 0.00483698 0.0119301 
0.0081037 0.00078889 0.0117458 0.00529041 0.00688842 0.0117515 0.00300189 0.0016868 0.0123879 
0.000464315 0.00131432 0.0123573 0.0046634 0.00280781 0.0125308 0.00592393 0.00431943 0.0131214 
0.00388553 0.00638368 0.013152 0.000261036 0.00748166 0.0115993 0.00200421 0.00738277 0.0129511 
0.011335 0.00257393 0.0110504 0.0145878 0.00104756 0.0105332 0.00869645 0.00450424 0.0108127 
0.0120662 0.00431162 0.0103677 0.0120355 0.000112058 0.0112234 0.0138246 0.00325258 0.0114228 
0.0157505 0.00486516 0.0109984 0.016367 0.00697467 0.0109175 0.00950739 0.00254089 0.0120367 
0.015768 0.00272036 0.0117734 0.00999176 0.000530283 0.0123789 0.0109766 0.00341343 0.0131451 
0.0128886 0.00164882 0.0124045 0.014991 0.00419517 0.0129877 0.012888 0.00413945 0.0129993 
[...]
POINT_DATA 5997
FIELD FieldData 7
id 1 5997 int
1200 4293 2863 5759 4269 864 1276 351 2497 
3118 240 2761 626 2276 3238 2479 2171 3880 
367 6040 2893 5975 5458 2154 65 1853 281 
3408 1846 4702 2103 759 4981 5588 5170 4521 
5392 2492 2189 1920 4407 4578 4637 4757 3349 
4329 3245 5709 5041 5071 318 4222 3328 850 
2955 629 1901 3558 3911 1696 5053 4720 1487 
4455 2783 3132 1015 1871 3621 1839 1615 3032 
1799 321 419 4722 424 1471 1756 715 335 
1250 5440 545 2405 4945 457 1881 2631 1062 
5661 2998 3047 4516 5637 5463 5535 3666 5404 
4869 3415 2142 673 4201 4659 4848 2336 3758 
5737 3969 4442 2123 6053 3832 1298 1708 115 
3260 2098 3194 3646 1302 2831 823 4039 5549 
4575 31 3183 6016 1351 1392 1783 5187 659 
42 2114 4087 2890 5788 2314 2249 3468 188 
2560 263 4543 913 127 692 753 4634 3502 
1772 195 5995 4462 4024 3426 5701 5609 2022 
5338 3601 1750 2782 3618 2719 2085 78 4703 
1563 4438 3763 2197 797 100 3563 5449 4835 
3279 3445 1551 2837 5909 4893 2200 4546 5723 
714 1986 1101 4409 992 1767 5708 298 2488 
3912 546 231 4732 5889 6068 5681 4559 5755 
6027 3817 1458 920 3720 2365 702 123 2141 
6049 4485 4252 4723 1838 2930 2355 2325 2519 
1797 1312 822 2770 5526 2967 2579 2088 3419 
3918 1688 1699 1433 3342 2542 3370 3263 5765 
4680 5724 1122 5997 4589 2126 2307 3184 3544 
1061 2063 4055 4688 2627 1453 2655 403 2318 
3886 1137 506 756 1172 1283 1365 3433 965 
747 4047 1605 1160 5954 151 2429 3490 4996 
2128 3871 5202 1313 5334 2779 4267 5239 5651 
2435 3819 5122 619 4941 5855 927 5100 1391 
1324 3123 5373 4100 1311 4076 4746 707 961 
1348 2136 1339 832 270 5766 4292 3702 932 
5474 458 4202 124 1770 2741 2072 2151 495 
2101 1133 4747 3249 877 2026 2944 217 1310 
4149 4090 5566 2437 3389 5930 1561 789 1389 
3750 3697 721 4208 5247 612 6037 332 5249 
140 4309 2135 2138 5255 884 5673 1745 3616 
836 5841 2167 843 1410 1784 4064 3858 5319 
61 5654 1017 1640 4728 2343 3905 5144 1449 
5500 241 1833 2461 2402 4358 5631 4583 1235 
5867 3728 2700 3424 5487 2441 771 4601 4704 
28 787 5591 1537 4877 601 2377 5770 2075 
5492 4378 2791 766 1451 3154 4489 5816 3745 
5938 872 5613 3690 4045 1170 5059 818 148 
1209 1865 1257 3497 1333 5507 3406 3774 4117 
2983 2906 4683 2547 3082 5040 5951 1822 4241 
425 4470 1136 3536 4471 5815 3276 3392 5156 
5164 2544 4633 3797 1032 4142 1755 3715 1735 
4491 2283 1567 3737 981 2945 3710 4184 1479 
5774 5903 4121 3954 3116 672 5344 5110 3222 
4785 984 3267 3916 5494 2690 1413 5256 1444 
2961 2370 661 5079 513 1753 5570 2177 4886 
4796 1889 277 5109 3461 1966 2164 700 863 
4111 1883 2234 2932 2639 3210 1882 2381 4363 
4262 4466 2427 3264 952 3049 1245 1119 1603 
5326 2956 754 5966 4872 4563 5928 5772 2615 
5021 4587 38 1918 1726 790 5498 57 788 
2711 126 4605 3013 4879 1700 779 1543 1724 
2970 1184 815 5385 1506 5977 4175 1515 5668 
699 3163 5773 3332 5425 2185 5496 2854 3943 
1000 4263 1403 3410 3713 420 802 3341 5572 
3339 2007 5935 1802 5456 2598 5429 3689 2586 
2612 4744 5828 855 2035 1445 4188 4229 3862 
1053 3458 4770 1629 1174 1221 4621 4572 3237 
5348 5401 1575 4717 2963 3634 2371 5205 3842 
6047 4984 5523 3619 589 3944 1931 3229 1275 
1823 53 999 1830 3252 615 4418 5501 5407 
4367 5864 1637 5861 1081 2120 5212 5555 1292 
2665 4400 4495 5265 1486 2227 6025 2528 591 
340 3051 3109 3467 4286 5527 4233 5410 3307 
1478 2680 549 3931 2676 3075 1834 1864 801 
586 312 3522 4914 230 5399 1958 2109 1843 
5722 3365 2883 5784 5730 1517 2040 3368 1427 
1992 4102 279 5576 3732 142 5335 4508 602 
977 1720 1863 5970 169 3261 2449 5018 1715 
2507 5712 660 3282 3568 2415 224 5033 1939 
803 5408 3165 5101 202 5442 3477 1361 2536 
5396 4640 523 5476 3693 4313 2458 1820 3494 
964 694 2658 3744 2948 1554 4125 1438 1874 
3483 4226 4545 5593 5616 1028 2183 2760 3218 
611 4772 2550 3834 3984 1722 5511 3545 1518 
4665 198 2231 316 4801 5398 3859 2344 3633 
3271 1897 5314 5196 4708 1255 1914 5325 1714 
16 3262 1546 5714 3451 3698 3092 5606 862 
3277 3922 793 1891 1226 3045 6026 5351 5565 
2493 2908 814 2881 2737 2073 682 1063 4497 
4154 19 2218 1866 5213 1146 4853 4454 4518 
4277 3202 4818 3067 416 3683 2020 2014 4146 
381 3036 3335 4253 1397 3986 172 4197 3932 
3153 2503 4933 4390 5577 2767 3288 902 1349 
1142 5126 867 1156 324 830 1850 742 5929 
3145 2800 1779 2746 3740 22 5610 2664 394 
2957 541 1817 5742 4174 1246 3957 655 453 
5920 4305 3926 4857 4192 3099 1476 1057 24 
4217 5554 5023 3692 4445 4247 3837 4347 731 
2351 235 5594 3628 2418 5533 5317 2757 5241 
2540 5225 4511 6012 1836 5397 5145 542 54 
2425 5872 5231 4062 3583 521 2501 1808 2853 
3996 2532 3086 1073 5298 3913 2013 3079 3113 
4113 4596 3734 51 2989 1190 5926 5989 5585 
1322 519 3241 3987 613 2369 5403 1612 5102 
4348 102 844 4678 147 4440 845 3180 1439 
2028 3777 2311 5387 5757 3475 2886 3893 908 
921 4967 5981 4463 1604 1425 3569 3027 3825 
1648 773 5992 3484 4388 5582 3148 5437 997 
544 1633 3682 5445 829 2965 935 21 2446 
1916 2727 4883 5878 1815 895 3622 630 456 
1143 1418 2334 5802 5705 380 4576 1423 1036 
1690 3868 4243 3143 3266 3444 749 4989 5688 
2720 1110 497 3498 4642 6070 5349 3247 5236 
3514 5155 5898 2064 1468 4472 4834 3380 3998 
681 3048 6019 1811 131 1941 4592 1807 847 
4679 6021 2604 5640 1732 1694 2997 2609 645 
4075 4089 1473 1038 5288 2872 5323 2522 2292 
676 1557 5434 3129 4531 3643 356 5362 81 
1697 5286 5002 4396 5374 4429 1288 4949 2814 
5060 108 5134 3052 1577 3062 765 4629 1193 
9 4961 3442 609 4515 4300 1854 4092 5078 
2809 5829 4107 2490 4401 4783 5234 3691 256 
3865 3673 4059 2567 4402 164 1634 4777 482 
2172 4856 4947 5420 4296 4557 1510 2252 3855 
1354 3147 5419 1437 4890 1124 2646 4073 4155 
4695 3356 1463 3478 1371 2974 1315 2742 3960 
26 3499 3675 4351 3660 1265 503 25 2016 
4194 5946 5158 5275 2929 2999 3457 91 2964 
2971 296 5575 2748 1421 2241 3473 5289 1643 
4916 971 3769 6010 1516 1228 253 1766 3189 
2017 4415 3786 5520 2749 4512 146 2565 4701 
4041 1350 82 4405 4544 3856 3657 3487 387 
786 5885 4880 4539 3620 5119 5690 1330 654 
1511 3903 43 5416 5579 4837 4792 3423 917 
3496 480 4078 5783 637 4819 4999 3141 3471 
4206 1084 426 6003 3642 1596 633 2326 4257 
3018 4919 2571 3257 4978 3852 3650 1001 2554 
5038 4482 2762 4456 3055 2630 3198 911 4927 
6045 4693 5278 3093 5795 3321 590 4346 155 
3782 5277 5333 3106 5923 2037 1626 4422 5882 
6013 6017 1492 2254 1158 1003 1886 873 3377 
4023 5672 4969 1500 926 6031 5781 2313 4606 
2614 1538 2819 2457 236 3172 1960 111 1964 
3178 293 4663 3275 4387 1587 5219 1332 3598 
812 309 3071 4268 3962 265 5412 5912 1493 
2121 5508 4212 2900 4081 4662 2787 1309 3553 
1695 4441 2951 3929 5776 1125 3805 86 1814 
2362 2394 5418 110 1987 5985 1892 4909 2291 
4303 4846 4299 5678 1334 2668 5328 5541 4079 
2003 4648 3386 5643 3188 4925 3319 1793 1447 
354 5615 452 1220 5482 3764 3517 974 2733 
3582 5702 1606 2428 727 1980 4924 2939 2090 
5883 894 1904 1244 2606 46 119 4778 3360 
4486 2251 5611 227 5302 60 2386 2401 76 
3060 5193 2928 5895 826 1056 2262 5454 5857 
3821 1876 1616 4824 5254 1139 5393 5471 4067 
1608 1013 68 3644 5161 4899 3293 2952 2270 
4568 3134 2396 4220 5560 3394 4814 128 4617 
2265 1086 5221 3459 3828 3434 4494 4238 5006 
5597 5048 5063 4782 1962 1909 925 4715 5750 
502 465 1741 897 1097 2339 2491 6057 4952 
2304 868 3667 4225 2250 496 2986 2931 2804 
4487 1771 3630 567 1936 1378 92 327 4032 
1653 3228 5761 2155 1256 5733 4829 2248 2420 
2358 2857 3977 2433 2451 1329 1237 5364 5064 
2697 4892 2078 201 4699 1676 4944 1107 1132 
5226 2277 2150 4499 3058 2616 3447 2546 4183 
2650 3887 2464 1647 3095 182 1274 2009 4968 
5658 4528 2873 5019 3529 777 5105 1984 5984 
2486 710 5568 5481 5836 1847 3557 283 4182 
4350 3580 4936 532 2759 5485 869 3299 4115 
3894 5433 2904 4858 5184 1880 6036 4274 4480 
4552 3781 3351 3708 579 528 2015 5944 2533 
1297 3775 3430 919 1997 1764 866 3572 4171 
5625 5337 3963 2001 4256 4891 1973 4204 3579 
1037 1047 4167 5022 4148 3168 2895 1385 3485 
5330 650 329 2360 1198 2822 401 5200 4585 
1157 1926 576 4963 431 2995 3369 595 5306 
889 1677 4553 3941 1068 3096 1238 4130 962 
1377 3149 978 5339 4691 125 1927 5451 330 
3347 5186 1202 116 4410 2878 2216 3097 4917 
4295 2505 427 1528 315 4342 1545 5703 4382 
2108 4784 4836 4106 1948 1077 709 5042 1619 
2500 1441 4840 1106 1568 5133 1270 1775 5203 
2976 262 838 4861 5740 3898 4451 1872 1150 
336 4240 3934 928 2874 1730 5819 5260 180 
4003 2093 3159 133 5979 1773 3135 2643 2143 
5650 1429 728 2091 1737 3512 56 1731 2476 
6023 4740 4790 4006 3107 477 4847 3966 5607 
3191 4526 2830 4258 2685 2353 2921 960 1670 
3554 6069 5376 3217 14 583 3185 4870 2529 
4138 4569 2866 668 2076 4310 207 428 2097 
5813 1494 2408 2157 2570 2973 5093 1713 1281 
2805 1216 299 4395 4496 3214 3216 4520 2891 
4481 5826 1795 1189 5036 4692 4833 5806 2025 
2721 4488 1087 1055 3900 887 5486 4359 593 
5034 2910 2897 4737 5913 5729 234 4377 1757 
5185 2456 4338 3892 3881 2308 3144 3289 1498 
5948 4072 5194 2678 2213 4013 4734 5371 1358 
5713 876 2978 686 130 5940 5884 3090 1981 
1016 2212 1970 5151 5749 4235 3431 4391 651 
5934 5558 1929 1535 865 739 1436 1988 1540 
1113 399 264 5027 2419 1491 1258 1915 3927 
5933 5271 3950 4595 1341 1744 816 5973 2459 
4705 2982 3465 4901 1023 2559 2352 990 5000 
4389 4492 1769 5790 4887 3489 798 2106 4841 
2794 5769 5250 2070 3432 5483 4483 5031 4939 
1249 3735 677 5779 137 2923 3933 5315 2391 
2054 5758 631 1672 808 3234 1600 5584 3326 
2502 161 775 3199 4955 33 614 2478 740 
1293 5676 244 2191 3142 1459 1564 5230 1280 
4375 2119 2661 671 1050 5669 780 3508 1581 
1018 4416 3800 562 1111 4065 5389 5645 891 
5211 4533 2031 1319 1467 5741 3599 4101 4265 
1248 411 4573 4493 3379 2382 538 5139 1326 
5074 2816 3937 1291 4017 2935 2845 1541 4434 
5604 5382 2048 333 730 4647 5685 3707 5571 
4193 5972 3373 4579 1867 5982 2082 2158 1490 
2621 322 708 3811 3760 1639 3742 3589 3401 
4432 4288 433 396 4756 3391 5276 370 2862 
4001 273 5871 783 3718 3762 4934 5124 4800 
3624 2922 2728 1824 5461 3798 2765 4319 5820 
3790 5860 2775 907 2407 190 4991 5077 4673 
3752 2147 824 2055 3343 2892 2657 4011 1858 
4593 1100 2936 966 3795 3211 5567 1739 5600 
1060 311 1039 1252 4465 3559 2153 5383 3792 
5517 4564 5590 280 1900 2590 3397 1395 937 
3186 4541 1051 2080 2125 3791 3513 145 5968 
6054 5017 1591 3166 5971 4161 5372 5536 5475 
460 5931 2130 4992 900 2713 4752 2253 2839 
5051 2905 4763 933 3455 529 4066 841 1130 
4905 888 5096 835 3152 2193 3738 1761 5108 
5530 3717 2495 3600 2483 2644 4604 4675 3014 
2052 3181 6066 1706 644 364 5503 4844 5400 
4242 5563 223 328 5128 1269 1979 1711 620 
2858 3991 3091 2215 2698 93 5858 4696 4135 
286 4922 5545 215 1758 2776 2341 2468 5602 
4074 3309 429 1645 1394 1953 1989 5998 2284 
4791 3608 963 5932 1059 5092 2413 5845 2156 
2288 2416 1967 4915 995 7 3098 758 5056 
2934 1747 1512 2806 1682 5851 3999 2190 5375 
701 4548 2071 1917 3243 4048 1128 2027 950 
3700 2600 1861 4227 1963 3970 1072 5528 5803 
2828 5518 500 4164 781 5262 4903 1224 951 
5098 618 5361 1588 1232 3176 2242 2903 1502 
3207 5907 4645 4449 5564 3024 1316 4943 261 
1624 440 3127 3899 3042 597 510 4845 4510 
4043 3731 5168 2981 2832 4671 363 610 4376 
1878 588 1930 4095 2354 3227 3906 3133 4639 
1058 2095 1693 6041 1214 3771 881 5887 134 
3847 2745 623 5804 768 5552 3006 4304 3659 
4203 1271 487 2210 1746 910 3331 2481 3085 
4906 4266 2393 5542 3072 1791 734 3829 418 
478 4366 3947 3436 5089 1272 3073 366 4383 
628 3956 4381 4874 353 2298 3493 3870 2222 
1924 5008 5244 3407 1405 2707 885 2168 3221 
4584 2911 2564 1082 1632 2237 3179 1894 2583 
4132 3239 2397 3965 5457 3773 6065 3083 4195 
5538 5796 2002 6056 1683 4386 1890 4754 5439 
1630 3359 3860 2012 5346 3712 3823 6061 1523 
2919 2066 3469 2732 1343 4556 4314 5936 1104 
1884 2869 5744 1065 526 2607 772 980 3649 
4530 1550 559 4751 809 4966 1067 5039 1080 
1279 222 5287 5384 3323 4187 5580 3215 3921 
2065 2228 1718 743 3016 3375 1821 1691 4727 
4249 733 2729 5251 1282 4571 687 1983 4417 
3381 5165 4551 4598 3012 5012 4859 2256 5652 
2613 5849 3972 255 4759 4150 3552 800 5085 
3294 1207 5342 62 481 2689 2038 346 4406 
1658 4281 5743 5694 1442 4028 2316 5957 2302 
3304 5379 3400 432 5879 2324 266 3470 3830 
3306 1597 5273 5253 63 4888 66 3985 94 
5331 3639 3576 2067 4337 2710 653 2885 212 
2323 1912 6000 1692 3325 1579 3940 1582 5130 
4513 5137 2677 4822 4998 5444 5309 2647 2462 
571 839 2019 30 5620 58 1045 4205 5514 
4997 1187 2385 2374 4641 2623 638 3173 476 
4980 498 5413 1994 5115 5657 4027 2041 5904 
1219 2520 2753 4056 3662 2196 4239 1373 5706 
406 587 5868 4040 3300 2361 368 2593 3011 
5627 899 6062 2557 1801 2584 4108 2489 767 
4931 3704 536 1285 525 5428 2573 5581 3108 
4264 5003 4769 467 2880 4317 3080 1954 5218 
3515 1786 2117 4957 1812 1522 3225 667 3924 
3973 5324 2312 2959 168 2879 120 1416 2079 
3789 1937 5020 909 118 5924 5978 5368 5001 
6005 3138 5207 3839 3681 4725 2345 2118 282 
746 1071 3915 3128 2553 3253 2430 959 2715 
3169 840 1734 1827 5327 4974 1432 391 1840 
237 4610 2578 276 2409 679 3770 2169 3064 
1472 2269 4244 3845 2558 3992 3254 1738 3573 
782 3110 1669 77 524 813 878 5516 4710 
1520 3923 185 2694 4207 3585 1998 1179 706 
713 214 1368 2626 2758 2330 4170 152 5987 
3861 4731 3059 4799 5065 5175 3863 4297 3495 
553 1035 5653 3874 2092 463 2993 720 1922 
4251 5216 1320 2300 5179 1153 2494 2648 5675 
2777 4928 4926 3081 4990 461 4086 1008 621 
5209 2717 5081 1982 1785 1247 1959 4178 3680 
5793 2346 1470 704 2245 1974 664 1168 5696 
3614 5649 3290 5116 3741 3623 5953 3270 5004 
1961 4425 4172 5621 1835 5409 5734 4478 3308 
70 1934 3268 4982 1233 285 5753 5562 2287 
4809 1641 3446 1417 4153 2703 2662 2032 4344 
5574 3949 2818 2258 4567 3464 3806 442 4403 
3269 5961 1566 5095 4970 2122 3590 3696 4538 
4889 3588 580 2605 114 392 2357 290 4397 
4682 683 1266 2871 603 5320 4315 4761 2390 
3416 3182 462 505 1210 2731 3409 5047 5272 
568 5214 2815 3105 4413 854 2165 3177 5707 
150 1877 2509 1736 3955 4793 5478 3925 4562 
3504 4781 1940 632 3849 1318 1611 3355 5167 
5472 1656 5224 2034 34 1560 1367 4374 2823 
3783 3438 1525 2549 1400 2864 6059 4505 4607 
436 2920 159 1360 3481 5149 3722 5835 606 
1064 310 5665 1660 3785 3550 4875 4964 1121 
4780 4104 3399 239 896 2638 5131 2453 4105 
1919 1955 5805 2523 4786 2023 4750 167 5259 
2591 1303 658 515 1005 4140 1095 3802 5922 
4114 488 1508 5029 451 979 5037 2562 1659 
5378 98 557 5120 4550 2166 1406 722 162 
5016 2293 5626 3607 1440 4179 1411 2364 3896 
3528 820 1234 3838 5522 4558 3518 1259 1539 
5290 988 5465 5993 2296 4326 2545 616 1460 
173 2696 4667 764 751 1534 499 5644 5873 
320 5943 5787 3807 2763 5917 5229 2793 604 
1225 1426 4979 3232 3320 4599 3787 1585 4004 
1093 3005 5140 203 4655 1264 2933 5426 365 
3939 2061 1957 4652 3162 1118 5727 1583 1129 
2754 4131 3638 5294 3204 4283 2563 2333 3801 
1752 5752 232 3396 1859 5955 947 3157 248 
5974 939 4444 3488 4798 1787 2979 1327 245 
405 4063 2317 4816 5435 1046 3716 4273 763 
723 4923 1580 5890 179 4177 3077 1206 448 
184 6046 656 200 1083 1558 2513 1932 121 
2480 4254 1565 5394 5660 3567 4590 5991 1794 
3521 3151 1052 5459 904 4960 5738 1654 371 
5721 4030 3910 1149 2140 573 3174 2671 3196 
4656 697 1031 5863 716 4361 4360 3562 5448 
886 1701 5544 3527 3171 3593 2962 1627 4684 
3727 5976 4823 3388 3526 2635 2463 3466 1151 
337 3139 2599 5013 2909 1230 1268 4582 3645 
4353 1818 3888 1475 5347 2771 189 383 5066 
5464 4034 993 2894 5468 592 1644 2399 517 
6015 3561 1687 5509 2556 4026 3437 3474 1888 
341 924 3302 522 104 4873 409 5636 3538 
4294 2175 3486 2267 5704 3285 2102 3413 3248 
2320 4554 1464 4988 5700 4147 1301 3256 3030 
3525 4753 2198 879 1161 3167 3721 5537 3452 
4954 1649 941 2860 5986 5901 4469 3658 5874 
2209 1448 2663 5777 3301 1163 5188 4436 1789 
1352 4698 3440 1703 2518 5980 5949 3255 5477 
5548 4862 485 1203 5114 1800 5994 149 5996 
5623 470 3366 565 3100 3746 434 4084 113 
2387 2580 2574 1415 5767 5546 2744 1828 796 
5557 4181 1382 634 3235 74 2738 1780 3808 
4156 2224 3056 3121 4414 4237 3611 3219 3480 
5850 4660 4738 2475 1765 5307 5683 4060 4162 
2319 439 1621 1208 4127 2186 32 5632 1181 
291 5732 1131 4302 1159 4646 2701 3101 1505 
4618 3008 3443 2232 2634 2450 5354 4811 1806 
3654 4913 4536 4885 1114 4664 3311 1393 4384 
4586 4234 5106 4050 3482 2941 2444 2008 4166 
4484 220 4815 437 174 1879 2855 3587 2443 
4555 6033 4020 4290 2994 1175 5303 5281 1178 
5252 4676 5113 3848 4775 3555 5947 6042 3258 
2046 622 3158 1665 1933 4501 5807 976 3001 
4058 4049 153 1218 3706 3945 1401 1021 6052 
2927 1499 1375 3089 2917 3510 3751 3203 2496 
5692 5716 5227 3679 4965 4163 2295 1241 2722 
4620 1668 2477 2188 2236 5504 1949 5814 229 
2229 1109 2431 154 3003 931 1536 2898 5837 
3150 1284 5172 2225 535 1398 4259 5117 435 
3548 1620 837 5852 5282 5945 4021 5343 4653 
4474 2551 443 213 4805 1650 1778 5817 4821 
5453 2499 5941 5843 3170 3948 3647 4514 3120 
1570 2632 3305 1359 334 3272 2629 2836 4503 
492 2709 4789 5739 1898 2178 5810 3687 4122 
5534 5010 2808 5622 274 3776 4287 3 5248 
2610 1099 1942 2515 5321 1816 4279 4189 4289 
4000 4321 548 625 1530 3908 3917 624 4588 
6028 2756 1635 2781 2620 2788 4169 4364 2309 
776 2743 4921 550 5297 2975 732 4894 2104 
1651 648 3897 4958 712 1855 1144 2272 957 
4232 1029 584 4613 2840 2899 5490 5166 395 
4739 5551 4464 5067 5270 2395 666 175 4159 
2152 129 1094 3779 6050 5107 3668 693 1977 
27 3604 5305 2510 4199 2321 3575 211 3920 
1781 4141 3928 1127 1474 5736 5341 3656 5356 
3574 3705 483 5148 4742 260 4972 362 4651 
5540 5726 5893 5189 4301 4743 2347 678 1192 
1396 1480 2704 2852 1243 3303 1662 3050 319 
1006 1033 956 4910 657 5667 2452 605 2829 
4093 795 3088 5719 2004 4046 408 5083 540 
5460 1120 4797 5641 441 3411 2702 3324 3749 
512 5238 2552 509 3274 5240 5763 4670 4320 
3043 4619 6020 4711 3982 3653 3372 1372 4935 
5015 289 6014 314 1240 3976 2628 5 4831 
1019 5717 2850 2699 1782 2243 3418 3661 2434 
4942 2686 4908 1985 2263 2203 4461 2261 2087 
156 5350 2538 1497 1887 5524 5291 1935 4697 
1896 2990 5258 930 5655 3057 3813 20 4325 
278 3625 2021 4428 2049 4423 1290 3648 317 
1729 1450 5603 5853 5054 1079 807 5840 3155 
2555 4160 3584 4022 1076 5569 4807 1173 2925 
5462 1911 5942 1148 1383 916 2636 2264 685 
4307 4574 469 4412 3664 2984 2996 1088 2637 
2705 1844 1404 23 819 3449 306 343 794 
1201 5386 2611 5283 3084 3997 288 4773 2359 
936 2718 4236 744 400 5493 4768 4476 1788 
1041 943 4611 1135 996 2205 4477 5808 2366 
3353 4109 67 852 748 2056 2940 2116 5441 
1363 187 1267 2053 705 859 3208 1386 5865 
1623 2736 3316 1197 2651 3429 1048 1514 3021 
4686 5405 5964 4852 5366 1559 5962 1169 5639 
5525 3395 1526 3833 3019 3595 2279 4270 1609 
5150 3281 4681 1638 2068 5369 2187 2508 1176 
3596 5199 166 2315 1364 2389 4986 3578 5316 
2660 3000 5190 534 216 2656 109 799 4577 
1261 345 527 2239 4433 2751 4311 2888 4357 
5699 2752 2455 4820 12 969 3581 581 2811 
3439 898 518 359 5635 3358 1710 4224 1027 
3684 1636 1625 1618 305 3840 2289 3670 6011 
5088 1842 4896 2868 2942 5443 2666 3930 3312 
4368 735 4097 1673 3812 5728 3678 1262 1196 
6001 3104 295 2050 2112 1829 636 2834 360 
4335 3422 2144 85 2506 858 382 1707 97 
3414 3374 4560 2043 6004 1026 1740 2539 5152 
569 5983 649 3450 3768 4112 446 139 5005 
1689 5595 2877 3378 2398 3114 136 4333 882 
101 3953 2669 5489 4453 141 3895 4600 6030 
1947 2400 5939 4200 2916 3603 4214 5284 4070 
4411 4609 3736 5421 475 617 5025 3754 1578 
1705 1205 4764 1011 2322 2602 1527 1336 1263 
5061 339 5916 2204 3626 2772 5112 2918 4672 
1481 4424 3851 71 696 3537 243 2057 5811 
2972 2950 1140 4626 5891 1905 4051 2907 4687 
3701 2473 6038 3951 5598 249 4458 4730 3889 
973 268 73 1044 3820 3028 4865 103 4031 
3803 259 5798 2882 4826 2915 3412 1709 5831 
75 3995 5159 1123 2160 5862 3542 2846 1115 
4083 5619 5295 350 4328 2803 5055 752 1294 
875 3192 1254 1819 178 5269 287 5076 2238 
3046 566 5624 2937 2436 2274 423 1895 3565 
3053 2817 2603 5958 1155 508 5762 2410 1278 
680 3843 3454 516 5261 135 4625 5771 2465 
1792 1229 205 1152 998 3971 1733 5044 5505 
50 2084 5479 59 2384 1180 3044 1716 3136 
3546 4316 2625 3516 3435 5358 4946 2174 2349 