# vtk DataFile Version 4.2
Generated by LIGGGHTS
ASCII
DATASET POLYDATA
POINTS 5997 float
-0.0168514 -0.0168928 0.0121701 -0.0154469 -0.0183282 0.0121118 -0.0115181 -0.0210092 0.012173 
-0.00973883 -0.0198106 0.0123028 -0.00949453 -0.0218236 0.0122515 -0.013799 -0.0194614 0.0121142 
-0.0118412 -0.01903 0.012176 -0.010204 -0.0178724 0.0121103 -0.0135375 -0.0174768 0.0121882 
-0.00820024 -0.0178927 0.012099 -0.00758768 -0.0226354 0.0121821 -0.00788877 -0.0206335 0.0121599 
-0.00308143 -0.0236476 0.012402 -0.00485012 -0.0197193 0.0121189 -0.00295891 -0.0203686 0.0120267 
-0.00599558 -0.0213692 0.0121329 -0.00667856 -0.0190855 0.0126309 -0.00423403 -0.0178397 0.0124476 
-0.00416385 -0.0217145 0.0129145 -0.00537269 -0.0232764 0.0122439 -0.00229786 -0.0184083 0.0125976 
-0.00619715 -0.0171753 0.0122779 -0.000603755 -0.0171596 0.0123786 -0.000455587 -0.0191595 0.0123437 
0.00469818 -0.0195707 0.0122097 0.00678404 -0.0192568 0.0120163 0.00397986 -0.0214737 0.01246 
0.00126434 -0.0202936 0.0121168 0.00333268 -0.0236814 0.0123347 0.00525873 -0.0231103 0.0121355 
0.0020648 -0.0221228 0.0123608 0.000909907 -0.0237767 0.0121272 0.00290745 -0.0196406 0.0131048 
0.00593488 -0.0211823 0.0120742 0.00129888 -0.0180314 0.012288 0.00671624 -0.0173916 0.0127501 
0.00330689 -0.0179532 0.0120936 0.00725989 -0.0227419 0.0122362 0.00795914 -0.0208742 0.0120746 
0.00494263 -0.0167155 0.0121171 0.00860043 -0.0181229 0.0127258 0.0113649 -0.0207432 0.0122207 
0.0129768 -0.019555 0.012203 0.0148403 -0.01882 0.0122167 0.00961243 -0.019757 0.0121762 
0.00969907 -0.0218502 0.0122823 0.0120427 -0.0175564 0.0121697 0.010125 -0.0169787 0.0121163 
0.0139812 -0.017018 0.0120792 -0.0182311 -0.0154397 0.0121381 -0.0194619 -0.0138633 0.012148 
-0.017562 -0.0136812 0.0128273 -0.0203924 -0.0123708 0.013112 -0.0185985 -0.0120627 0.0122743 
-0.021309 -0.0108335 0.0121878 -0.019399 -0.0102299 0.0121744 -0.0173249 -0.0102295 0.0122321 
-0.0220977 -0.00898955 0.0121732 -0.0165971 -0.0120927 0.0120867 -0.0163076 -0.0152067 0.0131556 
-0.0147514 -0.0158916 0.0120785 -0.0117524 -0.0165789 0.0121138 -0.011963 -0.0126446 0.0121597 
-0.0135211 -0.0143154 0.0121358 -0.0154636 -0.0137453 0.0120726 -0.0139296 -0.0121334 0.0120476 
-0.011521 -0.0145951 0.0122017 -0.00980747 -0.0159043 0.0121872 -0.0152407 -0.0106285 0.0122403 
-0.0122653 -0.0108266 0.0129344 -0.0092302 -0.00985951 0.0121904 -0.0111462 -0.00924579 0.012415 
-0.0136861 -0.00941233 0.0126247 -0.0159705 -0.00876576 0.0124064 -0.0077479 -0.015916 0.0121746 
-0.00254231 -0.016421 0.0123133 -0.000996674 -0.0151799 0.0125815 -0.00378894 -0.0125717 0.0122074 
-0.00633968 -0.0111582 0.0121892 -0.00450062 -0.0157907 0.0120693 -0.00569676 -0.0133055 0.0122786 
-0.0073985 -0.00966329 0.0129942 -0.00438765 -0.0106669 0.0120886 -0.000293424 -0.0132829 0.0121075 
-0.000696666 -0.0113122 0.0120616 -0.0027478 -0.0142818 0.012117 -0.00190626 -0.0125628 0.0130478 
-0.00107869 -0.00934728 0.0121272 -0.00307266 -0.00915955 0.0121876 -0.0056481 -0.00899252 0.0122121 
0.00553049 -0.0137505 0.0120191 0.00759658 -0.0137658 0.0122484 0.000934686 -0.0148621 0.0121662 
0.00180378 -0.0117277 0.0121227 0.00657109 -0.0120478 0.0121742 0.00656075 -0.0154734 0.012146 
0.000842875 -0.00995137 0.0120712 0.0040166 -0.0113993 0.0122762 0.00393735 -0.0149838 0.0120612 
0.00312993 -0.0132049 0.0124894 0.00709752 -0.0101339 0.0124287 0.0023969 -0.0162047 0.0124784 
0.00515094 -0.00974829 0.0121356 0.00330105 -0.00895297 0.0122917 0.0136895 -0.0110783 0.0121684 
0.00852762 -0.0116356 0.0122648 0.00852067 -0.0157942 0.0124253 0.0104368 -0.0149793 0.0120601 
0.0101092 -0.0129035 0.0122078 0.0117812 -0.011675 0.0123699 0.0119617 -0.0137045 0.0122881 
0.0138599 -0.0130733 0.0122684 0.0135987 -0.0150493 0.0120894 0.0120456 -0.015731 0.0131776 
0.0100758 -0.0103755 0.0120514 0.0119386 -0.00965422 0.0121676 0.0155672 -0.0102562 0.0121098 
0.0157824 -0.012522 0.0122965 0.0159294 -0.0165876 0.01227 0.0159597 -0.0145771 0.01228 
0.00869296 -0.00894105 0.0122261 0.0138552 -0.00908512 0.012131 0.0105667 -0.0086163 0.0132119 
0.0190865 -0.0143842 0.0122643 0.0178335 -0.0159415 0.0123377 0.020263 -0.0127729 0.0121281 
0.017563 -0.013236 0.0128608 0.0173122 -0.0112335 0.012335 0.0192895 -0.0110187 0.0121363 
0.0212986 -0.010985 0.0121141 0.0202792 -0.00947888 0.0129671 0.0174187 -0.00924114 0.0122014 
0.0221233 -0.00908849 0.0122999 -0.0196233 -0.00625264 0.0122419 -0.0232908 -0.00514606 0.0120597 
-0.0200106 -0.00427151 0.0121416 -0.0219274 -0.00368601 0.0121489 -0.0193386 -0.00823144 0.0122555 
-0.0227664 -0.00709214 0.0123135 -0.0174953 -0.00747425 0.0124934 -0.0181683 -0.00350458 0.0122693 
-0.0177911 -0.00546878 0.0124217 -0.0236496 -0.00348557 0.0131719 -0.0214452 -0.00553937 0.0127457 
-0.0171144 -0.00180278 0.0122896 -0.0237023 -0.00171409 0.0122446 -0.0202161 -0.00117264 0.0121797 
-0.0220077 -0.000370902 0.0126007 -0.0184166 -0.000248655 0.0122415 -0.0127993 -0.00765217 0.0122703 
-0.0153059 -0.00683013 0.0122316 -0.012702 -0.00565456 0.0122159 -0.0144102 -0.00459872 0.0122838 
-0.0107292 -0.00528337 0.012197 -0.0120346 -0.00376806 0.0122355 -0.00935677 -0.00380378 0.0121417 
-0.00877493 -0.00572476 0.0121838 -0.0108032 -0.00728026 0.0122801 -0.0161733 -0.00361897 0.0122018 
-0.0144338 -0.00259522 0.012233 -0.0107081 -0.00228771 0.0124531 -0.0126736 -0.0020323 0.0129965 
-0.0085495 -0.00198989 0.0124357 -0.0100813 -0.000376243 0.0125172 -0.0137609 -0.000539032 0.0122192 
-0.0157519 -0.000329022 0.0123343 -0.01199 -0.000154138 0.0130719 -0.00795047 -0.00784268 0.0121393 
-0.00425842 -0.00754603 0.0122558 -0.00104003 -0.00620135 0.0121725 -0.00227101 -0.00407281 0.0121836 
-0.00317583 -0.00585852 0.0121962 -0.00484695 -0.00468346 0.0122815 -0.00651737 -0.00310297 0.0122184 
-0.00274387 -0.0021272 0.0122336 -0.00616772 -0.0069408 0.0122284 -0.00687864 -0.00507128 0.0123049 
-0.000593908 -0.00452896 0.0131751 -0.00474722 -0.00215575 0.0122407 -0.00645358 -0.001105 0.0123812 
-0.00813739 -4.23034e-05 0.0121705 -0.00203111 -0.000254995 0.0122249 0.000180355 -0.0077855 0.012208 
0.00296778 -0.00697381 0.0121784 0.00114545 -0.00502674 0.0122626 0.00667369 -0.00817194 0.0124013 
0.000501883 -0.00313415 0.0122394 0.00496142 -0.00711255 0.0123606 0.00655483 -0.00586858 0.0122424 
0.00709255 -0.00373488 0.0122336 0.00204615 -0.00185251 0.0122462 0.00635365 -0.00186408 0.012135 
0.00402181 -0.00102981 0.0122802 0.000292101 -0.000885697 0.0122157 0.00827601 -0.00698127 0.0122768 
0.012081 -0.00766336 0.0123158 0.0156779 -0.00825797 0.0121878 0.012852 -0.00566108 0.0121562 
0.0161902 -0.00345993 0.0122371 0.0102751 -0.0068014 0.0123418 0.0156126 -0.00624925 0.0121481 
0.00949247 -0.00320873 0.0123273 0.0145271 -0.0045698 0.0121647 0.0125716 -0.00367788 0.0122269 
0.0109936 -0.00491782 0.012182 0.00862918 -0.00501212 0.0123177 0.0139688 -0.00719743 0.0127854 
0.0142496 -0.00258932 0.0122106 0.0112198 -0.00220454 0.0122447 0.00906975 -0.00124768 0.0123694 
0.0162992 -0.00147428 0.0124992 0.0142047 -0.000588634 0.0122269 0.0109819 -0.000221476 0.0121459 
0.0173203 -0.00520406 0.0121363 0.0173776 -0.00720322 0.0121183 0.0233432 -0.00503864 0.0121305 
0.0192017 -0.0080239 0.0121121 0.0228622 -0.00703553 0.0122373 0.0214172 -0.00565186 0.0122837 
0.0191733 -0.006025 0.0122198 0.020037 -0.00420492 0.0122102 0.0181973 -0.00340381 0.0121943 
0.0218977 -0.00377971 0.0128226 0.0209024 -0.00746206 0.0130012 0.0237801 -0.00296813 0.0121362 
0.018856 -0.00151606 0.0121639 0.0220848 -0.00189595 0.0121732 0.0238521 -0.000936116 0.0121802 
0.0206016 -0.000600468 0.0125376 -0.0238534 0.000279792 0.0121902 -0.0204671 0.000815605 0.0121339 
-0.019749 0.00454228 0.0124833 -0.0223226 0.00156547 0.0121356 -0.0186934 0.00174009 0.012149 
-0.0237752 0.00294573 0.012188 -0.0228684 0.00472718 0.0120681 -0.0180976 0.00560973 0.0121029 
-0.0178679 0.00356493 0.0121399 -0.0207639 0.00280049 0.0123486 -0.0211987 0.00592692 0.0127884 
-0.0167367 0.00141166 0.0123992 -0.0229387 0.00672843 0.0122069 -0.0195855 0.00694564 0.012185 
-0.012461 0.0048481 0.0122703 -0.0130296 0.00144632 0.0122455 -0.0110232 0.00137968 0.0121948 
-0.0138209 0.00332262 0.0122224 -0.0100569 0.00313755 0.0122634 -0.0158197 0.00319963 0.0122369 
-0.00928607 0.00498705 0.0122838 -0.0119551 0.00301106 0.0128913 -0.0149394 0.00499753 0.0121385 
-0.0166374 0.00476558 0.0131772 -0.0148534 0.001322 0.0130699 -0.0106678 0.00648584 0.0123136 
-0.0136432 0.00652305 0.012197 -0.0162975 0.00661193 0.0124625 -0.0121635 0.00757247 0.0130855 
-0.00844809 0.00194367 0.0121773 -0.00930172 0.00806719 0.0123158 -0.0149118 0.00805468 0.0124558 
-0.00397014 0.00410975 0.0122168 -0.00145351 0.00363235 0.0121293 -0.00326365 0.00220564 0.012215 
-0.00242589 0.00539103 0.0121692 -0.00644581 0.00105547 0.0122502 -0.00132348 0.00163189 0.0121777 
-0.0055545 0.00285947 0.0123016 -0.00764203 0.0037752 0.0121406 -0.00593143 0.00481448 0.0121161 
-0.00424033 0.00618149 0.0124901 -0.000883477 0.00666128 0.0126051 -0.00793439 0.00645524 0.0121339 
-0.00267363 0.0074239 0.0121429 -0.00745603 0.00808195 0.0131989 -0.00504963 0.00801751 0.0124398 
0.00238329 0.000118683 0.0121934 0.00371933 0.0016206 0.0121735 0.00762584 0.00228731 0.0121882 
0.00536381 0.000474275 0.0121756 0.000623545 0.00108677 0.0122033 0.00532972 0.0056043 0.0121481 
0.003209 0.00592222 0.0121026 0.00668497 0.00407838 0.0122399 0.00183686 0.00396272 0.0121888 
0.0038699 0.00366652 0.0121157 0.0078194 0.000293744 0.0120886 0.00809383 0.00551578 0.0121136 
6.0982e-05 0.00495073 0.0121447 0.00548377 0.00248845 0.0125334 0.000271024 0.00290811 0.012994 
0.00126039 0.00663681 0.0121646 0.00674091 0.00702448 0.0120983 0.00445313 0.00738331 0.0126814 
0.00885037 0.00377437 0.0127466 0.0154862 0.000947363 0.0121602 0.00962137 0.00125893 0.0121328 
0.015263 0.00293754 0.0121852 0.0100858 0.00525923 0.0121955 0.012164 0.00472831 0.0121494 
0.0136582 0.00159703 0.0126618 0.011744 0.00162773 0.0120778 0.0107129 0.00334088 0.0121491 
[...]
POINT_DATA 5997
FIELD FieldData 7
id 1 5997 int
332 3217 397 1217 31 1586 676 1284 1972 
1649 808 756 176 158 162 729 764 1840 
2669 3476 706 611 2049 2836 983 151 1901 
1221 812 23 2482 2275 1007 37 1305 1875 
16 1555 479 580 64 920 48 856 773 
388 493 1241 364 210 72 489 1320 1163 
791 2464 1856 246 285 86 689 212 1067 
366 259 223 649 166 1474 781 2226 1096 
503 145 20 1119 641 403 1400 2558 626 
718 243 970 899 186 1473 704 452 709 
14 83 1141 624 1921 3022 1375 2017 102 
2091 87 621 1692 107 480 100 849 379 
2298 213 1811 1013 160 1499 565 1733 728 
105 286 637 108 988 661 261 550 1121 
68 1430 818 799 754 820 488 1066 1389 
1299 606 433 295 558 1829 1089 392 1390 
684 2330 497 1267 878 761 2070 568 991 
2868 1172 554 142 34 719 581 804 2258 
1493 1627 318 643 1765 369 913 1369 2127 
759 1505 824 2016 184 592 1425 3151 2116 
2187 994 1664 2 1492 543 1062 1772 1757 
445 1604 124 1088 316 1540 711 442 109 
779 408 491 712 1755 1570 1 92 1126 
469 870 1900 371 695 144 974 1769 796 
690 751 577 354 57 367 950 420 1041 
254 361 1222 961 1159 137 270 1322 882 
271 180 887 939 414 1190 1058 1265 844 
727 1124 1197 1230 1808 200 2343 1490 467 
1658 1483 677 1636 1314 1582 2451 29 651 
1419 1398 1077 2720 713 234 1899 301 1227 
168 1545 1104 2263 944 1746 2143 817 2401 
1629 2440 2780 1229 1035 1881 1624 390 1365 
2069 1481 2823 1527 4229 2753 348 2133 2313 
741 2681 1958 94 743 1589 2169 150 2114 
2130 734 4084 2173 771 359 281 132 227 
1680 1603 277 766 1523 1132 113 76 1200 
2692 1642 1904 666 1106 784 610 292 505 
601 1848 1565 3124 800 1735 507 1410 1263 
353 1213 1026 1333 1475 1595 2508 534 4062 
857 2224 3762 1912 1858 2605 2327 481 2503 
841 989 509 333 3340 5042 2350 1264 2399 
4521 275 517 458 972 1279 1610 1607 985 
1991 787 1944 146 3585 579 1443 2735 1282 
2713 1559 33 3478 428 7 471 1182 1744 
3989 832 1167 2390 747 2597 683 1098 1444 
74 2244 175 4381 4557 3906 4225 79 730 
47 3184 3746 1751 4816 3153 979 1105 1645 
4919 1108 1592 2229 5357 4559 3018 28 4478 
2030 536 1368 4795 3748 5174 3963 5573 1330 
4671 5082 5390 3837 502 2757 1812 1562 3163 
483 2883 587 2025 4968 1810 1968 13 1045 
1111 1129 3570 65 3166 4480 1449 2038 2444 
644 4112 1008 2824 3770 2048 1150 4829 4348 
2414 3324 4351 4907 5447 614 2593 2398 618 
671 1016 1670 2911 3637 3273 5960 3339 2997 
157 4475 3758 4905 2981 5561 4724 3632 4237 
2520 5370 4596 4320 2854 4825 4809 4200 5959 
5201 3593 3621 5120 6027 2529 3472 5310 5427 
5609 5957 5706 5799 5304 4286 2727 302 1528 
4306 2845 409 1631 3495 85 595 2595 2103 
1372 2072 2728 2243 2673 2741 1571 3371 2633 
5536 3668 4387 3807 4409 2609 3697 570 5326 
4549 4683 5705 2703 5790 5255 3498 4934 4094 
4321 3596 3292 5476 4916 4346 5879 5155 5618 
5143 5180 1690 5509 6023 5038 5796 5998 4733 
578 61 702 597 154 46 230 657 179 
1254 760 962 3207 875 1051 916 215 2384 
1513 1995 3188 2301 59 3977 1599 3272 5006 
3659 185 3821 1639 4305 1699 5809 1552 1186 
11 484 1064 1760 2424 2296 3584 2805 1059 
963 3032 419 1501 2364 447 473 1114 1711 
1307 2376 3225 2576 1136 5420 2074 2304 2271 
4935 3327 5376 3274 1411 1983 1580 4446 3789 
3412 4389 3725 2190 3874 1866 4868 2342 2234 
687 884 453 2453 2135 2804 2408 2652 2877 
1304 917 2740 4166 5224 518 463 3381 1787 
1404 279 802 3029 1215 4610 4717 2458 5068 
2423 2417 4631 3664 1502 2717 5223 2655 3930 
3712 5146 5015 5074 4431 1383 163 5768 3221 
5043 2847 3708 4025 5818 4944 2708 5228 5781 
5106 3401 3200 1534 2374 2598 1681 949 2552 
1838 1337 218 1913 1694 98 1269 2716 69 
3109 770 2366 2339 2946 3002 237 511 2193 
2388 3400 1339 1021 3396 2040 1698 5195 3937 
519 3790 1353 2242 1191 3073 2410 2572 5605 
3683 4527 3202 1714 2058 3019 4598 5629 4283 
2203 3777 2954 2354 131 1747 342 472 274 
749 1110 1039 1730 504 1100 1738 1906 181 
1176 395 2856 880 4466 1228 1001 1648 675 
2442 4129 3390 2420 3794 2770 2062 1891 4211 
2684 252 902 3970 2138 3513 3623 4136 5490 
5215 5065 5915 5086 5734 3275 3160 3546 5806 
2637 2297 2799 1526 1775 3308 4456 3162 3606 
3402 4744 1942 1893 1504 3158 3397 2228 1695 
640 1824 1543 1729 973 425 1073 439 155 
475 1776 1399 138 1406 1509 633 91 206 
1360 1857 1554 443 848 1165 122 731 1880 
1338 631 1070 625 1722 1302 1226 3331 1347 
2626 733 3012 1767 278 2748 437 2278 2429 
1506 737 1584 2456 1046 3862 1723 957 1209 
224 273 172 3164 1614 540 894 732 378 
854 156 432 71 110 619 890 748 298 
4 56 627 115 1002 995 123 62 17 
1193 77 193 647 692 1071 783 723 232 
1346 714 208 908 881 1177 368 235 935 
904 541 2471 2338 1402 219 830 211 126 
2067 2541 2212 1511 1010 3565 1329 3544 1421 
2073 2792 889 2454 2409 1482 2290 461 1538 
797 183 686 1379 2842 2230 560 2507 81 
2509 562 1691 1718 2530 2151 2285 1412 1199 
2152 3665 2467 462 1118 3010 2843 2387 600 
1779 3813 2944 2345 2383 1122 980 1343 769 
708 226 241 2372 599 805 464 3548 2513 
15 1237 966 1801 1672 3078 1766 863 971 
2085 860 97 1378 656 2331 2560 2833 174 
3075 3391 3945 2134 2416 2893 1261 936 1207 
2337 1354 3053 2299 2155 2341 1532 2480 1457 
3564 1635 1745 3366 2778 1954 2904 1546 269 
1768 1262 546 1019 326 1074 553 2100 2039 
2005 58 1103 3 456 564 1318 50 2115 
1637 427 1655 2264 789 1703 2629 3553 1651 
1220 1032 1300 1525 2846 2014 117 1633 530 
2253 3232 2495 864 3284 1797 4252 2385 3851 
3732 2670 2925 1998 1817 2902 1920 363 103 
2567 1930 648 1084 32 2293 1042 788 1842 
2084 1630 2724 1195 1308 1783 1068 3287 1742 
1006 3348 1491 3352 1535 2222 2915 1777 513 
1189 478 1468 716 2129 1520 1567 650 380 
2457 2764 960 1792 2527 3229 2254 247 1453 
195 2344 4258 312 3329 3501 2158 1426 1094 
228 905 1248 2255 573 1205 1675 413 943 
169 18 396 393 926 1666 1218 1815 598 
344 636 340 347 1294 63 794 251 1146 
508 2612 1662 111 752 1183 2499 981 1550 
2288 2317 1594 482 964 1047 255 1770 557 
2693 1581 529 910 2273 1202 1408 1667 816 
1578 1325 2080 1295 202 1887 1394 457 391 
861 268 171 373 1367 343 1043 798 328 
38 978 325 531 586 668 582 1028 383 
362 238 999 526 214 35 199 1587 630 
30 1572 740 1015 1429 1843 1223 455 1049 
549 1351 679 998 1017 525 593 846 112 
1256 93 898 976 257 178 262 310 588 
1359 866 1724 945 815 242 1579 885 744 
297 1065 662 755 372 608 2240 940 2470 
1283 352 2076 1441 2403 1564 544 284 22 
1249 931 173 189 450 912 494 959 1885 
3234 36 3001 2320 1250 2533 1253 879 2906 
1956 424 623 407 2432 2023 2707 2028 3341 
3556 2421 1786 3192 3148 1268 2581 2677 330 
118 2007 2183 2446 3378 2450 2378 3033 2351 
3034 2706 2512 1953 182 635 819 1428 1063 
670 2112 672 2098 40 3037 2208 537 2998 
2762 5 1376 334 244 1440 694 1187 426 
801 21 2697 1276 852 921 955 777 1969 
1646 1168 375 2043 1919 2916 253 3100 2018 
2389 1030 3518 1753 552 3297 937 356 2744 
2483 327 3383 1952 1316 938 49 3752 1653 
1679 2400 2427 2360 2081 2037 1415 833 1933 
1529 825 2756 1576 1668 3462 3444 1669 778 
2274 4519 2648 1619 2613 2658 2113 2249 2592 
2583 3082 3572 5735 823 2287 2650 1036 1807 
3159 2696 2732 947 2907 2687 1476 1510 2501 
2711 3118 2433 1370 3238 3823 2602 2053 1130 
2957 1214 742 3294 3903 2261 350 3554 3427 
3629 1876 4310 3058 4756 4896 3322 2201 5005 
2774 2965 1332 2474 1152 283 2171 1275 2869 
3960 2645 2701 351 444 1979 355 3277 2498 
3569 2958 1678 1761 1079 2065 3394 1717 2986 
2051 1936 3958 3239 4022 2924 299 3831 1973 
2534 2930 4273 3540 1990 4172 1451 501 3266 
1488 3672 1849 1472 3633 2206 3300 2830 3049 
3521 2665 3624 3224 4468 3734 2880 2962 2875 
2967 2968 4817 2806 2608 1331 1652 128 2890 
1386 1907 1781 1225 25 1932 2659 2550 161 
2594 265 1143 313 2736 745 1137 3374 2332 
2539 3358 5896 2083 1850 1641 1939 810 3178 
822 1752 1813 1336 2139 753 248 2019 4753 
603 613 3594 448 3081 5168 1834 2828 3244 
205 315 1432 73 681 1020 1350 320 399 
660 907 309 1278 152 1272 466 249 377 
1033 622 96 1198 276 8 2167 539 89 
620 291 4336 1153 735 793 900 2825 1845 
2031 1435 1203 843 400 874 116 498 1029 
1147 3510 3386 1204 239 2738 1174 1288 506 
836 402 1161 1025 813 55 1107 877 140 
922 845 669 2192 1424 646 2239 1626 2776 
2463 951 659 197 1101 1281 4308 928 3531 
516 1175 365 1566 27 2213 1240 2905 4231 
891 2063 3119 3283 3693 2102 1676 2452 763 
1544 2422 3103 3909 2425 2625 5278 1947 1427 
566 2059 3452 2319 2561 258 2794 3728 3219 
4230 3512 4970 3289 4024 699 5393 2353 807 
2695 3489 4307 1986 4411 3014 3558 4313 2698 
3539 3552 3670 4959 4053 4190 4524 2929 3333 
2630 4641 4361 3996 3526 3416 3271 5243 3380 
2266 5810 4090 1173 3648 4679 4860 5481 3741 
5254 3384 4246 5642 2979 3004 4065 4223 3883 
2943 4966 4382 3172 4272 5140 4870 4097 5200 
4617 3407 3781 4597 4473 5309 5801 3694 5091 
4104 4472 2940 4505 5921 6059 4030 4037 4096 
5753 3215 2537 3494 1928 220 3193 3776 2631 
2912 2839 4372 4369 4263 4785 3311 3932 4248 
4015 4396 3990 5353 3170 3367 4623 3520 4070 
3739 532 5868 2812 2596 4437 3506 4329 4232 
3086 4108 2179 4512 5478 2945 4023 3900 3907 
5829 3470 2941 5121 5350 3388 2036 2162 3009 
969 1080 2555 2198 4191 3901 4703 5409 3586 
6017 4700 2803 2646 4955 2600 4068 2280 1889 
5941 2983 5288 4124 4537 4762 3069 4086 3791 
4454 3595 4819 3661 2689 4792 2269 2733 2870 
4300 4746 3913 5739 1027 5482 1072 3610 2838 
2154 2221 159 382 1321 1640 2071 1549 2950 
3590 423 1946 634 256 946 1820 3527 4119 
4451 5386 3355 5772 4458 4985 3068 3316 4737 
5098 2207 2373 3413 2050 2365 4234 3559 4731 
4433 3985 5282 3313 4909 5550 4581 4958 5014 
3140 4256 4490 2122 5847 3440 5911 2009 3657 
4370 4533 2647 2683 4654 4120 4181 1993 3312 
3560 2438 2101 3346 4146 2316 4796 3165 4141 
4582 4495 4406 4202 2811 4315 3984 5589 3253 
3946 2879 3066 4632 4883 5275 3496 4835 2322 
1606 4979 3711 4880 5813 3350 4572 3785 2564 
4107 4354 4850 3301 4713 3865 3662 2578 4357 
3433 5917 4262 4343 3195 4158 4147 2821 5729 
5750 5103 5702 4667 4422 5193 5623 5719 5564 
4294 4646 5884 5115 4327 4347 4591 5416 1890 
4162 5204 4392 4605 4932 4624 4890 4532 3236 
5510 5659 2585 4383 4280 5862 5662 5828 3924 
4340 4206 4643 2760 5982 4773 5056 2809 4535 
5761 5176 4249 4580 3306 5202 4971 2777 2849 
3680 5413 5794 5410 1081 4551 4565 5711 5359 
2705 5421 3795 3784 4858 5538 5671 4011 3479 
6064 4664 1459 4449 4534 5876 4745 5189 5571 
5627 2109 5099 5914 5283 5540 5211 4393 6053 
5156 4760 4621 4424 6046 5592 5694 5333 4241 
5262 5608 5824 5157 5485 5365 5075 5122 4602 
5277 3825 4199 5697 6036 5451 5986 5520 5630 
4987 4496 5029 4864 5507 4980 5836 5893 5603 
3999 4187 6041 5444 5133 6009 5955 5497 5844 
5263 4673 5687 5683 4266 5316 5841 4965 4410 
4855 5621 6057 5969 5506 4995 4460 5391 4699 
4522 5654 5677 4201 4312 4401 4666 4876 5933 
5470 5486 5950 5054 5268 5843 4558 4402 5373 
4705 4326 2160 4888 5956 5392 2928 5423 5383 
3491 3465 2765 4333 5595 3017 5615 2250 2528 
4939 6022 4137 3293 4514 5131 2518 5111 6055 
3779 4721 5788 2723 5759 5953 4140 5440 4462 
4750 4350 3859 5184 4917 3549 1879 2531 5947 
3723 5820 2772 4840 5125 4655 3227 229 5551 
1754 1037 338 3652 2121 1464 3811 293 1945 
2281 304 129 837 3699 2739 1232 2008 1484 
4042 5300 918 1977 2874 2276 2412 925 3774 
294 4118 680 1465 3418 975 545 5135 5269 
4789 2466 4127 4650 1500 2510 2223 5927 5857 
4981 2124 5279 3780 5419 4526 5241 4875 4652 
3475 3968 2131 5704 5496 4982 4906 5434 4135 
4712 4463 5105 5032 4618 1937 5138 1455 2406 
1980 3736 4892 2181 3211 4457 4378 5235 4793 
3625 5714 5113 5632 5848 4788 2899 5034 5755 
4824 4984 4506 4510 3885 3852 3756 5374 4403 
5238 4956 6070 4799 5619 2566 5094 3591 5533 
4076 3214 4784 5347 5182 4235 4649 5641 5253 
5725 4498 4688 5628 6032 4054 4545 4238 4071 
5459 3843 3368 3630 4693 5991 5382 6024 4738 
5582 5965 3505 5036 5789 5023 5348 1401 5340 
4161 5002 5989 2952 2664 5749 5475 4702 4665 
3317 3052 5701 5680 3240 4999 5874 5100 5331 
4846 5860 5778 5377 3566 5474 5770 5647 4398 
5178 4600 5563 5643 5512 5116 5541 5607 5784 
5442 5569 5863 4772 4215 5181 3074 3603 5539 
4543 2927 4647 4450 4861 2817 2545 3436 3038 
3743 5751 4969 5454 5354 5117 4836 2568 4075 
4859 5299 2922 4687 5045 4285 3995 3065 4563 
5814 3460 4184 4777 4976 4638 4150 3827 5585 
3992 4513 4885 5433 6016 4743 4500 4435 4986 
5379 3122 5069 4267 1521 2001 528 2096 2657 
3690 2371 496 296 1391 3127 67 1661 757 
1053 416 3183 628 3822 4168 3817 2057 4798 
2797 305 2078 1720 5397 3525 4672 2917 12 
2118 3925 3246 2386 1902 4461 2006 2045 2745 
1257 3719 1489 45 1112 862 782 70 602 
693 1486 609 1048 1319 147 148 404 1285 
720 1151 1297 703 584 967 446 1169 436 
1539 1728 346 2289 930 1290 2108 527 1233 
454 1178 1602 691 1865 10 201 896 673 
1115 314 2819 3535 4101 982 1638 1461 1940 
2245 4057 3085 1507 3093 2126 449 4440 1518 
3488 3486 3524 1950 2515 336 1924 3519 3678 
2641 2788 4961 3455 3445 4216 4637 3796 5467 
3700 2026 2700 2519 3702 1671 4186 2603 4019 
4823 1247 3671 5492 3146 3025 2999 2186 2579 
2455 3154 3751 3096 4983 5888 2610 3422 3453 
2910 3080 1773 1790 3286 4418 3733 3998 2496 
2312 3376 3873 4660 2159 2975 2761 1326 3802 
1854 2876 1628 1301 2850 2294 66 2734 3614 
3698 2493 3641 3457 3256 2816 3972 2426 2790 
3459 2336 3451 3031 4152 3041 5372 4254 3395 
3090 4779 2966 2394 4165 3760 4504 4218 5774 
2477 4678 3571 4491 3507 5688 1363 2569 2793 
3410 4465 5682 4046 4448 2953 2358 1894 2786 
1702 4689 3466 3189 1784 1158 2976 2617 2303 
4017 3059 2832 4952 2923 2088 3389 4691 1748 
3077 3279 2095 2465 5057 4292 5221 4886 4578 
3431 3138 3514 3403 4550 5766 3133 2853 790 
3599 4179 4375 5516 3750 4822 6030 4967 5322 
1454 335 3013 5906 5306 5939 3050 4414 3337 
3415 1965 3839 3079 2829 3449 3773 2369 2892 
2300 3577 2191 2521 2808 2532 1938 3372 1315 
2439 9 3679 5097 2971 2815 3545 2535 3467 
1309 1090 3749 4270 5613 2145 3315 1763 2660 
2544 3912 3918 2861 3828 5167 2165 4801 3481 
2807 3950 1994 1955 4151 2937 4720 4586 3542 
4928 4539 2908 5404 3658 3726 3051 2292 1418 
2963 3573 3955 3504 2200 2176 95 952 847 
2149 1054 1078 785 1978 52 2865 1235 2855 
1364 1605 207 1131 583 585 1598 705 1289 
300 474 370 99 130 440 133 2318 2077 
663 1830 104 2021 492 2413 1352 1463 1982 
260 1612 2710 1910 1310 3611 851 1004 1113 
495 263 290 101 287 1382 127 384 357 
329 909 604 139 470 240 750 953 1244 
522 685 984 655 1673 774 1116 88 1120 
1286 1095 136 765 867 1771 738 1563 435 
1644 412 567 1075 1149 827 821 997 317 
1056 1739 639 289 758 1731 1632 75 51 
1494 1715 4130 3799 4493 3199 2570 3027 3155 
1243 2730 1970 2959 3855 2270 3030 1588 2992 
1701 3547 3966 2988 3437 4316 2618 3949 3710 
3263 2148 3689 3942 2591 2961 2719 2060 2851 
3893 3429 2575 3393 1469 3529 3399 3259 2233 
3006 4134 2721 1155 3982 2858 3974 2359 2947 
3303 3091 3469 2587 3067 1609 3007 2771 3523 
1384 1836 3000 2333 2215 2903 3298 698 1157 
2178 3745 2666 191 2346 3060 2064 2436 2478 
2615 4026 2678 1922 2125 3071 4317 2554 381 
2644 3615 3602 143 2702 3252 2837 401 3480 
2785 2972 3364 4337 2184 2835 3265 1512 3361 
3740 1361 2468 2491 4644 2859 2246 3040 1145 
2000 3724 1092 1819 2490 3268 3194 5483 941 
3360 3338 3808 4805 2926 2196 3502 3493 2307 
5260 2712 3581 3908 4089 3008 1802 5344 3643 
3262 3196 2635 3638 3704 3894 5343 3270 3727 
2506 3503 3763 1706 2994 4356 3830 3414 3654 
3997 1057 4250 3975 3604 5479 3131 2795 3369 
4531 1663 1127 3398 2661 3986 3136 2329 2691 
3771 2775 4063 3857 4176 3332 2628 2942 2256 
4583 322 4553 3149 3645 2759 5746 4332 2718 
3209 4820 2046 4459 3916 4561 2931 2755 4399 
4787 2750 4110 1210 3928 4080 2798 3537 3290 
2767 4436 4904 3578 2164 3872 2791 4255 4189 
2153 4245 5552 3890 3005 4314 2185 4723 3419 
1918 4391 5477 2919 5046 2485 1888 658 2818 
2136 2511 2107 701 3897 617 2238 892 4715 
4515 1093 2434 1185 1340 2978 1585 141 2075 
1433 965 1423 2989 3104 4217 2580 1825 1872 
616 3343 2251 2306 1976 2199 1405 2586 697 
1883 3114 831 1898 2443 121 5077 323 2494 
4251 2370 1827 1822 422 987 2348 868 231 
1517 1273 389 1700 3607 726 1569 1992 1611 
1170 1277 1139 2543 1895 968 337 1140 2237 
1024 5187 2210 893 4592 829 707 638 321 
460 1548 2411 1925 1133 1687 135 3054 2448 
4839 319 1821 551 198 591 153 1496 78 
1022 594 1948 2948 1960 859 4344 2479 3919 
2779 306 2459 2763 2900 883 476 3213 2202 
2252 924 2079 1686 547 2012 3636 2841 3094 
934 2913 2619 929 1721 1280 2571 1756 2227 
2117 1439 1208 2577 1868 1531 1791 2461 2286 
1929 2170 2382 1162 2277 990 1837 3592 2884 
4589 3788 4204 4103 2147 4173 4908 2827 3261 
2524 2562 3490 2826 3842 1541 2624 5000 3609 
3601 4764 2087 3555 3941 149 4198 3446 1622 
1713 4044 3463 4167 1623 4726 4363 1192 1194 
2309 4552 2214 4180 1298 1737 2141 2447 2679 
2676 3424 1206 282 1608 2305 2548 2504 5840 
2549 1709 3962 4540 5207 3522 4900 3895 5165 
2990 4484 3681 4577 3910 2964 3497 4464 3634 
3323 3483 4575 4055 3886 5861 4368 5090 3994 
5655 5566 3896 3583 5929 5242 5952 4010 4599 
5319 4810 3260 5700 5491 4188 5286 5526 5439 
5922 4309 5060 4682 4304 5402 4716 510 2671 
3764 3695 3844 5718 1804 3471 5731 3819 4298 
3967 5661 5599 2431 2742 5035 1997 2752 5291 
2951 2995 2974 1397 2380 4069 5236 3838 4656 
4612 1931 2462 3840 2743 1869 2891 1697 3644 
3628 2882 1882 4704 2150 3420 2093 1892 1385 
3055 3320 2873 4930 5752 5634 418 722 3083 
3561 2781 5919 3226 3677 4937 4768 3441 2649 
2863 4734 2267 5728 3152 5522 2840 3319 3251 
3421 3448 2397 5039 840 4882 2938 2405 1759 
1896 3223 1503 2553 4653 2235 1877 4323 1099 
4670 4608 2068 1181 1558 2685 1923 2180 3635 
1342 1852 2538 2055 3425 2487 2725 6007 2584 
3347 2437 3940 1349 1712 2189 1961 2404 5930 
2157 1219 1794 4033 4871 3731 4938 1839 3482 
4808 3129 2430 2622 3276 2844 2536 4827 1456 
2209 4920 1498 2029 438 4482 3759 4001 855 
4925 2247 2054 394 2970 1568 4159 2334 4009 
2314 2435 3113 4497 5973 2396 2690 2621 5318 
5549 5443 3575 3111 4567 4476 4355 54 3177 
5901 5574 4207 4585 3620 4685 5422 5673 3428 
5161 6011 3674 2852 485 1833 5920 5992 4518 
4100 5872 4749 3713 5913 5568 5707 4887 3876 
5083 3686 4815 2540 3447 4525 5399 5875 3854 
4028 5678 888 4416 477 2260 236 2391 5949 
2241 903 3639 4771 4590 3043 5803 5849 2265 
1855 465 1417 3245 4269 1296 1160 605 4964 
2377 24 3653 1878 1355 5666 5588 5765 1311 
2881 3406 3102 3477 3181 5556 4775 1533 1515 
487 1600 5590 5977 762 3248 2955 1485 4945 
1886 3576 4866 5266 5346 2909 4352 5951 814 
4021 5717 2497 2097 1125 3980 1547 3344 5312 
3868 1949 932 4051 3866 1789 2110 1750 2220 
2144 1144 1313 3688 5763 5823 3121 2934 3191 
4940 4830 5301 5183 4722 5428 5437 5132 6066 
5019 5892 1234 4593 5908 4626 2218 4949 5112 
6052 4953 5375 6060 5514 4923 3285 4996 5743 
5935 5808 3353 5013 5727 4692 4748 4530 2325 
4365 5212 4763 5025 5894 5887 5412 4913 2987 
5107 4132 4657 3783 5274 5166 5981 2956 4570 
5270 6031 5923 5885 2747 5147 4847 3649 4219 
4487 5150 6001 3597 5130 5586 4177 5089 4078 
5742 5899 3267 4873 4445 4197 3171 4912 4706 
4004 3987 6006 4542 3988 5882 3650 3515 4106 
1069 1934 2056 5339 674 2259 5450 3084 3655 
4791 5153 5932 4220 5842 4259 5645 2878 5565 
5145 4628 3454 4501 5280 3856 542 5487 2796 
5164 3818 4144 2599 1593 1274 3729 1138 134 
1003 4208 3028 1716 1239 1148 3735 3120 5017 
4926 4452 1816 5203 3800 5500 4228 3309 4092 
5869 1470 2283 3351 4765 5488 4214 5558 3915 
5247 5169 2714 4287 2638 2082 5567 5453 5726 
4114 3829 4634 6010 3715 2090 4236 4709 4499 
4455 5679 5001 6005 4142 3772 4865 4128 4290 
4426 5926 5877 4328 5258 5685 4711 4429 4175 
3168 5079 5907 5328 5553 4243 4145 5943 4277 
4951 5059 4000 5777 4253 5297 5591 6065 4770 
2993 5361 5968 4802 5101 3357 3667 4895 5996 
5206 5198 5261 5954 5411 4806 5149 5505 5596 
5963 5698 3914 5524 3969 4012 4853 2800 5446 
4407 3917 6054 5758 4752 3703 5593 4319 4710 
5123 4899 5942 4170 5334 5403 5324 4111 5898 
5044 3921 5199 5542 4719 5137 2379 5756 4342 
5710 5997 5795 1951 5674 5637 5811 5903 3201 
1732 5931 4684 4686 4003 4425 4786 6008 5041 
4818 5883 4894 1171 4877 4380 3983 3682 5827 
5740 5837 3243 3953 2349 4284 5579 3302 1009 
5797 5028 4767 2505 5738 2194 2601 642 3304 
5675 4568 2672 576 4636 1438 3291 1334 222 
2662 2980 4074 2920 4064 632 2225 1846 1884 
5559 4384 5897 2099 3880 4271 977 858 3530 
2011 4039 5296 307 1236 556 1987 267 1327 