# vtk DataFile Version 4.2
Generated by LIGGGHTS
ASCII
DATASET POLYDATA
POINTS 5997 float
0.00533121 -0.0226664 0.0129576 0.00310812 -0.0237097 0.0130384 0.0111029 -0.0183247 0.0130927 
0.0211652 -0.0107257 0.0130195 -0.0169054 -0.01684 0.019444 -0.0131363 -0.0198972 0.0138017 
-0.0110941 -0.0190348 0.0138724 -0.0157715 -0.0179382 0.0141081 -0.0114787 -0.0209971 0.0142176 
-0.0137421 -0.0172687 0.0140091 -0.00944275 -0.0201468 0.0140859 -0.0146322 -0.0188841 0.015511 
-0.0124549 -0.0203738 0.0158535 -0.0125667 -0.0184669 0.0151175 -0.0105694 -0.0176361 0.0153466 
-0.0165017 -0.0172593 0.0159134 -0.00991113 -0.0217223 0.0152346 -0.010305 -0.0195836 0.0158225 
-0.0136964 -0.0195265 0.0171774 -0.0106862 -0.0212068 0.0170928 -0.0117998 -0.0188631 0.0169884 
-0.0136858 -0.0174046 0.0164942 -0.0153455 -0.0184022 0.0173247 -0.0122438 -0.0205105 0.0181446 
-0.0099107 -0.0179673 0.0172343 -0.0115006 -0.0210175 0.019946 -0.0104775 -0.0195519 0.0183222 
-0.00985726 -0.0216722 0.0189731 -0.00984871 -0.0198814 0.0202003 -0.00999785 -0.0216799 0.0211063 
-0.00929309 -0.0177736 0.0191649 -0.008873 -0.0221025 0.016982 -0.00859252 -0.0183247 0.0139994 
-0.0088361 -0.0197258 0.0171911 -0.00415794 -0.0207749 0.0137995 -0.0021945 -0.0213252 0.0136775 
-0.000707109 -0.016687 0.0137618 -0.00114583 -0.0235498 0.0136632 -8.90099e-05 -0.0218178 0.0137477 
-0.00849132 -0.021846 0.0135685 -0.00735624 -0.0201284 0.0137972 -0.00547309 -0.0192423 0.0136096 
-0.00321021 -0.0235782 0.0144038 -0.00601274 -0.0231189 0.0137292 -0.00174977 -0.019244 0.0140385 
-0.00315114 -0.0176612 0.0140499 -0.00687541 -0.017294 0.0138981 -0.00584268 -0.0213468 0.0147582 
-0.00326082 -0.0198619 0.0154303 -0.00131807 -0.0202437 0.0157203 -0.00834694 -0.0181275 0.0159914 
-0.00812864 -0.0208506 0.0155231 -0.00638509 -0.0195072 0.0154393 -0.00490494 -0.0230574 0.0156668 
-0.00197689 -0.0221696 0.0155258 -0.00505644 -0.0175653 0.0148843 -0.00697951 -0.0228472 0.0154706 
-0.00211811 -0.0180938 0.015714 -0.00147104 -0.0239079 0.0164734 -0.00652756 -0.0213036 0.0166668 
-0.00642303 -0.0176417 0.0163413 -0.00343443 -0.0235939 0.0169426 -0.00349169 -0.0214524 0.0166313 
-0.00100601 -0.0214937 0.0172741 -0.00357767 -0.0165961 0.0159974 -0.00602944 -0.0231527 0.0173336 
-0.0068646 -0.0194739 0.0174271 -0.00194378 -0.0194915 0.0175142 -0.00466183 -0.0187965 0.0164105 
-0.00242603 -0.0173671 0.0175926 -0.000922449 -0.0166456 0.0164621 -0.00524315 -0.0176906 0.0179731 
-0.0077221 -0.0211368 0.0183298 -0.00763905 -0.0176686 0.0180155 -0.00502029 -0.0215172 0.0179767 
-0.00447745 -0.0233962 0.0186441 -0.00265501 -0.0219924 0.0183873 -0.000758961 -0.023895 0.0183542 
-0.008179 -0.0223931 0.0198262 -0.00811534 -0.0193889 0.0192689 -0.00633983 -0.0230814 0.019345 
-0.00616778 -0.0211039 0.0197048 -0.00613453 -0.0190896 0.0193164 -0.00421136 -0.0216686 0.0198272 
-0.00387621 -0.0198525 0.0181178 -0.0026539 -0.0237202 0.0194012 -0.00192625 -0.0203664 0.0194054 
-0.00732337 -0.0173475 0.020092 -0.00250726 -0.0217612 0.0209035 -0.00809928 -0.0206516 0.020826 
-0.00702354 -0.0190063 0.0212241 -0.0045363 -0.0234086 0.0207629 -0.000881903 -0.0238835 0.0203579 
-0.000305446 -0.0184716 0.0186948 -0.000403713 -0.0220064 0.0211364 0.00187222 -0.0214397 0.0133848 
0.00147211 -0.017416 0.013772 0.00113948 -0.0235971 0.0134957 0.00456212 -0.0186886 0.0136406 
0.00745301 -0.0226537 0.0133735 0.00826387 -0.0203192 0.0132073 0.000391163 -0.0199015 0.0142905 
0.00247616 -0.0192762 0.0140476 0.00399179 -0.0206442 0.0140149 0.0065656 -0.0210776 0.0143499 
0.00710037 -0.0187219 0.0138945 0.000206295 -0.0179743 0.0152707 9.23954e-05 -0.0238743 0.0152078 
0.00170293 -0.0198954 0.0158593 0.00220949 -0.0226959 0.0149789 0.00337315 -0.0175011 0.0150919 
0.00532654 -0.019546 0.0153636 0.00415479 -0.0235359 0.014941 0.00666833 -0.0228869 0.0152576 
0.000343358 -0.0214916 0.015691 0.00594966 -0.0172755 0.0147505 0.0078369 -0.0198457 0.0155075 
0.00479235 -0.0215043 0.0157465 -5.97519e-06 -0.0192188 0.0168551 0.00236976 -0.0215992 0.0168698 
0.00283832 -0.0236938 0.0166194 0.00256739 -0.0170241 0.0169841 0.00356662 -0.0198625 0.0166286 
0.00521983 -0.0231136 0.0168967 0.00659919 -0.0211743 0.0165733 0.000495132 -0.0229497 0.0170682 
0.00200945 -0.0189417 0.0176502 0.00438553 -0.0213917 0.0177212 0.000776408 -0.0207894 0.017906 
0.0018099 -0.0237796 0.0184109 0.00394823 -0.0236611 0.0184127 0.000299436 -0.0223333 0.0191005 
0.000168422 -0.0203947 0.0197844 0.00266599 -0.0206807 0.0186697 0.00112358 -0.0237845 0.0202992 
0.00190578 -0.0183938 0.0195789 0.00457847 -0.021159 0.0197714 0.007067 -0.0227894 0.0177656 
0.000773156 -0.0167274 0.0198736 0.00277091 -0.016909 0.0206972 0.00183159 -0.0214596 0.0204035 
0.000216774 -0.018593 0.0206783 0.00768904 -0.0220043 0.0197396 0.00311755 -0.0198524 0.0205128 
0.00571213 -0.0231049 0.0193831 0.0031991 -0.0237091 0.0208306 0.00614368 -0.0208977 0.0211426 
0.00847767 -0.0201513 0.0208276 0.0156674 -0.0181186 0.0134229 0.013737 -0.0175741 0.013504 
0.0107739 -0.0212218 0.0131636 0.0131487 -0.0199168 0.0132312 0.00852071 -0.0178508 0.0154759 
0.0098479 -0.0167278 0.0140658 0.014283 -0.0192397 0.0149955 0.00922234 -0.0220897 0.0141222 
0.0154046 -0.0166122 0.0154978 0.0115618 -0.01829 0.0150778 0.0133811 -0.0171049 0.0154692 
0.00980296 -0.0193242 0.014944 0.0125938 -0.0203115 0.015292 0.0107173 -0.0210889 0.0151818 
0.00857828 -0.022349 0.0160122 0.00899456 -0.0220993 0.0182106 0.0152347 -0.0182671 0.0166968 
0.00938272 -0.0196153 0.0170037 0.0113255 -0.0191304 0.0170142 0.012223 -0.0168846 0.0172043 
0.0100115 -0.0167533 0.0174478 0.0106393 -0.02135 0.0172437 0.0136749 -0.0195045 0.0169062 
0.0165986 -0.0170498 0.0175415 0.0142637 -0.0168851 0.0180549 0.0121831 -0.0205122 0.0182147 
0.0107586 -0.0180255 0.018797 0.00972402 -0.0197635 0.0189878 0.0121635 -0.0166456 0.0191875 
0.0138142 -0.0195683 0.018909 0.0154672 -0.0182781 0.0189895 0.00977588 -0.018504 0.0206074 
0.0100991 -0.0215493 0.019803 0.013281 -0.0178765 0.0203042 0.0118939 -0.0206578 0.020207 
0.0112103 -0.0170493 0.0210721 0.0152042 -0.0185258 0.0210841 0.0135652 -0.0197858 0.0209803 
0.0168253 -0.0168732 0.0202917 -0.0172159 -0.0164628 0.0139989 -0.0184347 -0.0148563 0.0139463 
-0.0190833 -0.0105696 0.0142515 -0.0197885 -0.0133785 0.0143063 -0.0207583 -0.0116498 0.0146331 
-0.021789 -0.0100262 0.014031 -0.018888 -0.00858098 0.0141119 -0.0208525 -0.00825927 0.013905 
-0.0180791 -0.0123046 0.0141161 -0.016919 -0.00900292 0.0142467 -0.0177001 -0.0159891 0.0210718 
-0.0175587 -0.0161508 0.0176806 -0.0179477 -0.0157324 0.0157558 -0.0222493 -0.008864 0.0155951 
-0.0203731 -0.00952495 0.0153833 -0.0189445 -0.0115308 0.0160159 -0.0198341 -0.0133032 0.0163051 
-0.0181168 -0.00951893 0.0159384 -0.0208462 -0.0116021 0.0166324 -0.0179189 -0.0136906 0.0155537 
-0.0188298 -0.0146237 0.0174409 -0.0218052 -0.00994759 0.0172274 -0.0206702 -0.00832896 0.017539 
-0.0193916 -0.0118582 0.0179927 -0.0196533 -0.0100517 0.0171744 -0.018695 -0.00842348 0.0178406 
-0.0196646 -0.013587 0.018962 -0.0211208 -0.0111644 0.0187313 -0.0220877 -0.00923051 0.0190732 
-0.0177828 -0.0129067 0.0174292 -0.0173195 -0.00967094 0.018583 -0.0202801 -0.0125574 0.0205731 
-0.019126 -0.0110808 0.0198492 -0.0213177 -0.0107995 0.0206912 -0.0199296 -0.00943 0.0190557 
-0.0222191 -0.00890094 0.0210642 -0.0192266 -0.0142512 0.0210324 -0.0184368 -0.012434 0.0213563 
-0.0183182 -0.00932782 0.0204038 -0.0202201 -0.00906412 0.0210017 -0.0178093 -0.0142502 0.019318 
-0.0174328 -0.0116388 0.0189377 -0.0172093 -0.0108545 0.021078 -0.0172873 -0.0109811 0.0170394 
-0.0172442 -0.0140537 0.0213265 -0.0169369 -0.0108751 0.0150546 -0.0113252 -0.0165857 0.0169346 
-0.00904746 -0.0165827 0.0207724 -0.0151506 -0.011591 0.01384 -0.0125717 -0.0122748 0.0139166 
-0.0111822 -0.0105835 0.0138139 -0.0131837 -0.0103607 0.0137869 -0.0122677 -0.0164834 0.0151715 
-0.015581 -0.0164143 0.0174795 -0.0106097 -0.0160059 0.0140105 -0.0152728 -0.0159824 0.0140681 
-0.013394 -0.0151615 0.0141186 -0.0163006 -0.0132373 0.0140421 -0.0113394 -0.0141133 0.0140581 
-0.014297 -0.0133713 0.0142273 -0.014991 -0.0096113 0.0142082 -0.00995646 -0.00841706 0.0142576 
-0.0102434 -0.0123688 0.0139466 -0.00922905 -0.010283 0.0141792 -0.00927397 -0.0142645 0.0144216 
-0.00924073 -0.0159174 0.0158878 -0.0145559 -0.0156772 0.0159161 -0.0126979 -0.0135025 0.0155445 
-0.016243 -0.0147707 0.0153313 -0.0163451 -0.0124848 0.0160854 -0.0147272 -0.0136751 0.0161608 
-0.0109813 -0.0144487 0.0160195 -0.011384 -0.0117084 0.015495 -0.0138361 -0.011798 0.0154019 
-0.015119 -0.0105118 0.0165241 -0.0103777 -0.0095901 0.0158424 -0.0127535 -0.0101271 0.0158636 
-0.0162449 -0.00881698 0.0162417 -0.0142509 -0.00873119 0.0158953 -0.0119079 -0.00844833 0.0151765 
-0.00966314 -0.0160313 0.017914 -0.0129221 -0.0149909 0.0169189 -0.0165404 -0.0144694 0.0172947 
-0.0117573 -0.0127967 0.017183 -0.0138223 -0.0123406 0.0173493 -0.0114765 -0.0108077 0.0172981 
-0.0154265 -0.00924994 0.0180885 -0.0110879 -0.00886152 0.0175684 -0.0134731 -0.00901298 0.0177244 
-0.0157101 -0.0118523 0.0179174 -0.0146381 -0.0146764 0.0179019 -0.0112771 -0.0146058 0.0179906 
-0.014155 -0.0107559 0.0185555 -0.00915036 -0.00825892 0.017735 -0.0159335 -0.0145971 0.0199176 
-0.0163493 -0.0125255 0.0203674 -0.0158601 -0.0105532 0.0196287 -0.013004 -0.013711 0.0185581 
-0.0113051 -0.0117248 0.0190675 -0.0148063 -0.0131122 0.0191932 -0.0130694 -0.010118 0.0201166 
-0.00949894 -0.00910503 0.0195321 -0.01223 -0.00844894 0.0191883 -0.011481 -0.0135614 0.0198502 
-0.0100012 -0.0148877 0.0195539 -0.00974783 -0.0108128 0.0205858 -0.0132599 -0.0122514 0.0201399 
-0.0111696 -0.00939982 0.0206159 -0.0149826 -0.0111229 0.0213345 -0.00972904 -0.0130902 0.0206942 
-0.0117266 -0.0113181 0.0210234 -0.00861574 -0.0161063 0.0137653 -0.00841868 -0.0146649 0.0207586 
-0.0050407 -0.0157309 0.013843 -0.0073312 -0.0142694 0.0138163 -0.00755684 -0.00914764 0.0143064 
-0.00351497 -0.0141732 0.0139369 -0.00395403 -0.0112476 0.0142048 -0.00593822 -0.0103538 0.0141577 
[...]
POINT_DATA 5997
FIELD FieldData 7
id 1 5997 int
2485 4740 1466 5830 5680 3756 2190 5704 163 
3437 3010 5122 3298 2018 1250 4745 5552 2966 
2109 1361 279 5781 3100 5262 2455 4829 1215 
2303 917 758 4112 5768 2387 2707 5066 4951 
2576 2271 5241 2788 5333 3671 233 5785 1461 
5372 3760 5135 2417 3234 5219 2023 4218 4789 
5099 1718 1580 1316 3945 2569 797 1885 3108 
3341 2841 2436 4509 3263 5694 1575 250 2128 
2421 2416 1207 197 3259 5224 5157 1136 4231 
1501 2520 2876 5600 4709 148 4486 953 5824 
2744 2230 3007 4779 401 3327 5890 3256 5646 
5064 691 1644 1542 2814 2216 952 2026 3297 
1049 260 1983 2376 5699 4217 4440 1657 1435 
30 339 3768 2383 516 3228 1813 2292 2213 
3033 830 3544 5866 4127 2074 1243 659 1591 
1433 5878 1786 1954 2454 4080 520 2916 2448 
3685 795 2496 4240 5980 3904 3426 3736 2020 
906 3417 4845 1056 1919 5158 2453 866 1539 
1756 4057 2288 1874 370 2506 2032 3410 4820 
5231 1752 463 1579 2009 3853 881 235 4586 
3006 4856 296 2602 5504 3782 11 2233 3464 
4522 5641 4526 5894 5281 2275 6039 5403 4393 
6053 5376 4733 4657 3915 3453 3783 5132 5712 
5927 4087 4530 3780 3353 5910 2124 3772 5107 
3221 5314 4128 4214 5017 3105 5935 5419 3401 
5232 2747 5485 4765 5032 4367 3725 5234 1782 
1536 3475 2294 4962 2590 5857 5755 4784 4618 
5361 2960 5279 5235 5732 1917 4378 3761 4983 
5084 4711 3942 5926 3702 2406 462 288 3412 
2090 1989 4419 4912 4831 4748 5818 5627 3664 
1199 3524 2635 3211 4865 5909 3667 1518 1532 
4175 3814 3852 5190 5371 4602 4431 3455 5983 
2819 5239 2374 1534 1412 3445 3269 3383 3422 
4278 2223 182 5050 2186 4299 4650 4780 1245 
2848 5488 1924 3564 5105 3882 336 6061 5558 
4274 569 5467 1681 1773 2961 2778 576 2285 
3067 3709 3766 2183 2359 3029 2519 3721 6024 
4769 3733 3816 562 2699 2347 4389 3625 1660 
4025 5838 2279 5453 4153 1238 5092 5938 5315 
3658 4828 2174 1711 3943 5030 2507 1691 5070 
374 2331 5802 5598 1310 2362 216 1908 2361 
3242 5653 3893 4826 3305 4648 3949 3973 240 
3091 337 1596 2751 1940 297 4463 831 2085 
2533 5493 2478 5169 2859 3740 1344 5793 765 
1688 1387 4439 4098 2512 2315 4975 3563 3220 
5534 82 1861 1203 5670 3135 2668 440 574 
3222 1083 1684 5724 5721 4492 5720 5021 3535 
893 679 4720 964 2905 5208 4308 1896 2149 
1994 1661 170 2622 3692 2618 1535 2761 3051 
70 2273 2530 2164 670 5668 1285 5188 894 
843 1506 4511 3862 232 793 2145 757 2046 
4757 1256 2165 1408 740 4109 302 5297 812 
756 6009 3593 2854 31 397 1045 689 568 
719 86 1829 353 200 4855 4312 4626 4475 
1968 3668 4806 2824 2868 1129 3476 65 285 
295 4642 5497 162 4460 1649 1631 1901 3217 
223 145 72 1197 684 1856 3166 1810 554 
259 808 318 4426 764 2593 2398 3339 4166 
2444 210 2464 1490 1159 467 651 137 1474 
5334 3926 1505 5013 4706 5329 5879 4791 4402 
1400 1808 301 168 507 509 2552 452 4040 
4916 2836 5038 824 1284 34 2016 326 3465 
37 5836 3151 5621 184 2451 4496 5263 4824 
5427 3758 1067 4306 3017 4673 3495 1119 1670 
626 403 2037 5484 706 1840 2039 4786 4729 
3899 4164 5595 4683 5956 1372 2049 709 2558 
369 841 1104 5689 5822 5625 85 5130 3618 
1388 3848 3169 3299 3700 4074 5089 3981 1823 
5705 4078 1007 970 16 5245 2991 3948 6023 
2928 3792 3115 4579 639 5336 1060 4982 3530 
5360 6054 4227 4139 5639 5955 4197 2003 5683 
5981 2734 3678 3698 4665 4504 2714 4797 5727 
527 4462 2800 1455 5881 5796 725 2643 645 
1154 4008 4606 4812 3843 2599 3046 5518 4751 
3881 2755 4914 3968 5742 3409 3519 2272 5817 
4941 2674 4004 4843 6052 5145 4443 3666 4570 
1941 5519 5172 2013 2796 4350 6005 1962 461 
5496 3393 3430 4947 6038 5095 3359 5942 4446 
177 2358 895 4960 5253 3689 1418 4337 4157 
3283 3597 3408 1793 5492 3072 5256 3451 3998 
5269 1447 5928 2820 4047 4331 3338 4854 2662 
3669 431 2575 5635 1806 5185 4064 5380 4242 
2270 3345 1560 1665 2426 3031 1715 3450 4282 
1471 1828 5771 5394 4801 945 5936 5527 4931 
5341 585 5638 5905 3395 1095 4130 1821 2944 
1044 5251 412 1955 774 4630 4921 3971 924 
3418 4133 5458 324 4928 5495 5229 5434 806 
984 198 3179 4408 314 130 1563 3898 3612 
5345 1612 5578 5851 5226 1202 2308 567 2910 
746 4898 5502 1319 1724 1597 2719 208 1292 
2509 5961 584 2349 201 4950 2672 4725 1486 
5642 800 882 1124 1265 1735 292 1230 1263 
3746 4381 4731 4158 2244 3711 5917 3153 4518 
54 3018 1314 1475 79 2540 5913 1410 180 
5481 534 4433 3559 3876 3984 784 4590 844 
1595 610 5750 4107 3313 4713 3181 1026 3124 
727 2578 5546 2015 4557 1565 5422 3864 3849 
1106 3906 4490 2564 4225 5707 4202 4835 4354 
5920 3177 4585 4100 4182 5568 3499 3349 53 
4629 481 2605 4141 1606 4816 1746 1592 4028 
5702 5872 4525 2327 4262 4162 989 4850 5200 
2941 5678 994 1227 1912 3301 5662 1296 3433 
1419 4505 5875 487 4206 1105 2274 4605 1899 
2127 4883 2810 3384 3195 5564 4979 5566 5275 
4582 4272 4406 3407 4535 4469 3208 2852 1576 
3686 5103 3253 3474 3741 333 5992 4382 4037 
5286 2229 3447 3363 2486 4800 1689 5970 5588 
4420 3322 5765 2613 1668 3292 899 5589 2720 
1077 316 5042 1398 1039 2263 4495 5082 704 
3785 4484 3496 3713 5111 787 4681 5593 595 
4327 1425 234 2069 3648 2907 4880 4964 69 
5790 833 2498 2756 3444 4357 1855 5218 913 
5899 1473 4679 158 3588 5734 3109 3540 3994 
5350 5987 151 3823 2732 3260 4334 5760 4283 
4386 4877 641 5373 1546 1768 2940 759 4472 
6011 2979 1997 1833 5735 5254 5682 4913 3390 
4321 1545 5744 1738 6008 621 2442 1747 1062 
1664 2503 1375 1369 1519 5786 5031 2723 3892 
4409 5995 1108 5255 409 472 4888 283 5932 
4519 1141 3171 5131 1906 648 2741 5041 102 
2823 3044 5953 4542 2878 3596 103 2845 536 
363 6055 4335 335 23 5882 6031 349 4541 
4358 1881 654 5615 3987 5674 3243 4407 504 
2568 675 3266 1973 3673 5440 5114 4523 5283 
4721 3880 3182 3655 3754 3800 3921 5004 3237 
5339 2056 87 5487 1169 5246 222 2161 4625 
3542 5450 4873 3859 5240 2831 5586 5759 2103 
2528 5521 3832 4783 4285 3953 430 5651 5726 
4325 5650 5815 5531 1069 4934 4208 4848 6013 
5565 4170 1555 2072 5788 2259 1816 5247 5034 
5500 5142 3964 2225 642 2822 5950 5425 996 
1863 4056 2737 1053 5244 967 792 3582 2987 
165 3642 5175 4452 5827 533 5177 1710 1934 
3649 4954 4346 5509 5864 3487 1115 1500 5274 
4767 5923 5889 2996 2573 3434 1981 5743 2556 
1470 490 2700 2638 4487 5511 5591 5028 5579 
4847 4554 3647 2325 1593 2956 4412 3715 5691 
556 2980 5330 4113 4915 2195 5850 5037 5164 
5676 5280 6006 3856 2140 2004 4749 4815 4520 
2746 3101 4508 3887 4390 5867 5813 485 5460 
1371 4727 3218 120 4067 3236 607 2621 1867 
19 4736 5018 4990 873 990 2969 4627 2680 
6018 4544 4919 3722 589 811 5088 4668 4942 
4315 5692 5008 4624 3738 2392 4661 4034 5557 
3684 4264 5747 5666 3613 2295 3954 4268 5055 
5352 4574 5660 5575 1160 3016 5949 3824 1826 
5399 5695 4281 5871 4633 84 3278 5673 853 
4695 524 4123 1085 1452 2642 4178 4839 1685 
4362 3963 5709 1533 1882 2640 5320 1890 5614 
2322 4933 4413 1878 5461 4373 5053 3477 1396 
4775 486 5975 4943 5406 6021 3879 5977 5748 
4591 1600 5590 4821 3365 3753 5601 280 4988 
1677 3307 5085 5825 264 834 2834 3806 2168 
5265 2172 5937 4560 2872 5271 4922 1050 3626 
5672 2616 4852 5062 1341 164 1134 3235 4442 
1624 2440 4671 3875 5139 5849 3245 4559 5222 
5862 5056 5357 1144 3494 1944 1991 880 624 
817 2585 933 6051 275 3854 4148 3600 1279 
3116 5342 1809 5115 5309 1730 972 1417 3241 
3070 1527 722 5659 5634 5555 2636 4295 2143 
2260 1229 2645 5317 1330 5174 4612 2924 1616 
4049 5994 4632 1862 1180 107 3193 1879 458 
2809 5884 465 1716 3028 479 2298 108 5832 
4750 342 1481 2354 3066 5421 712 1264 741 
1755 4521 3680 1013 1875 1692 5184 2609 1772 
1921 1570 640 2713 661 4372 4249 5353 2780 
76 820 580 1100 2243 2091 3009 144 4643 
213 100 2735 1282 4795 4229 1368 2401 109 
743 3498 1824 2241 728 3585 2036 124 4084 
445 408 988 2173 4478 3479 1958 160 379 
974 1528 961 1430 818 2703 773 1776 5962 
4140 4132 1274 3201 5476 6022 570 2595 1571 
46 702 578 799 2518 5392 5147 1239 4259 
105 2765 920 286 5155 2412 3084 3735 2160 
5618 2673 1121 364 1690 550 3293 5998 4939 
64 68 48 261 5523 5159 5323 979 4766 
1328 4517 5696 3197 5971 3144 4488 4479 521 
5723 5812 4126 5669 2094 2284 5515 2375 5134 
5570 6033 2525 5722 2177 5791 5217 3858 5602 
1959 5196 3619 1696 2639 4773 1467 3543 2860 
3405 897 415 5577 5369 6068 2939 3820 5904 
2607 5381 886 5471 1442 5988 1445 1431 5468 
5144 1870 4095 3737 2888 4761 768 2119 1966 
809 968 5886 4732 5119 5272 5472 616 3847 
3429 2816 4415 3616 5745 1822 6035 3334 4489 
1014 3653 4532 2391 3705 1374 1515 3248 451 
4669 4371 311 5856 3924 2881 5387 5580 3102 
5854 888 1040 1311 5355 1860 1485 5508 1216 
523 919 3054 3797 3318 3035 1764 4555 2481 
3209 1914 231 217 5703 6 3845 538 5416 
24 869 3989 3576 5176 471 3837 3748 5204 
5667 5413 5828 2705 571 1444 1562 4932 2777 
5794 5711 1392 1125 1312 5359 3425 3306 5410 
1522 1530 2955 4347 814 832 477 2030 2042 
1407 4383 4771 2883 1041 113 354 1114 4907 
1261 6036 4610 4631 1753 1787 4944 5182 4237 
2459 5015 5592 5632 5420 4506 2414 4216 3265 
4693 5553 6070 4956 5258 4424 1449 5628 1404 
1150 4799 5447 3939 1307 3200 2560 1379 802 
2043 883 2655 2044 2598 5877 5133 2708 2438 
2933 5435 2011 3885 3240 5277 3712 3001 815 
1557 289 936 884 4621 3630 644 3615 2287 
4235 2423 5603 2795 5960 2463 4660 5902 5774 
2588 4388 5792 2982 5525 147 1790 956 1953 
2906 715 1120 963 2188 4935 1507 2491 2371 
909 4447 3364 253 1032 3378 3469 1632 2932 
5108 2687 1276 2652 1300 4088 3751 3423 4438 
455 3644 2337 1188 537 4307 449 183 3529 
1920 4724 1175 2424 1131 3759 1358 4241 211 
3 5911 672 4320 5289 4292 118 3976 780 
1969 1538 851 2262 1572 1830 2111 143 5633 
3808 1196 2682 3440 470 5681 735 3578 1209 
93 1725 1071 6045 3414 4781 3386 4043 2266 
3075 1578 539 3558 1130 3264 685 1231 4194 
594 4875 5101 5848 3486 5059 3191 4195 3993 
5706 4652 5179 2393 2997 6010 5777 5375 5366 
4114 6060 4634 4236 4145 3507 5238 4286 2975 
2893 1609 600 3874 1301 3053 1469 1123 5347 
2790 5685 5619 3214 4019 1082 4238 2717 2159 
3137 5807 686 6020 2833 4793 5072 5189 938 
4059 4688 2847 5223 2203 3468 3459 5505 3930 
2458 5043 2579 499 1745 4071 4287 3376 5094 
3589 2515 4788 5106 1635 5916 5331 5116 2336 
1950 1797 1240 4177 3328 5195 3202 5073 5395 
560 5587 5097 5113 5954 3096 4375 1054 2477 
4092 2835 3225 3556 2261 2666 1873 5778 3502 
1253 669 4414 4481 3869 4457 2134 955 2299 
4760 5835 2450 357 5327 2329 424 3130 2832 
4061 5725 5023 1766 3368 97 4465 3317 3462 
3427 656 4974 2650 1356 1726 3871 2929 1101 
1411 3634 5708 2804 2333 3071 2156 1844 1550 
1421 300 2825 3045 1871 4790 2146 4837 2409 
821 350 1164 3424 2304 1679 3138 3032 1884 
3064 4356 819 5100 1876 2360 5842 1566 4910 
1619 1309 4772 3141 941 3148 3720 1354 4151 
4270 1340 1280 1193 1244 2895 2490 3286 3375 
1850 1594 2080 5865 5102 544 5104 3369 2902 
2300 2971 2651 2855 1235 5005 2341 2227 437 
603 528 2418 3013 1086 845 2953 5049 3870 
5129 1615 1137 2938 5214 5354 4205 826 2432 
1315 3008 1329 3842 5151 310 248 4006 99 
693 957 2129 545 663 3315 930 2001 1720 
4459 3149 3127 1347 3180 2748 2890 2353 257 
1170 4666 157 5514 857 366 671 601 4968 
791 2981 2166 1217 505 5885 5 1858 1299 
1333 2350 1694 5808 3621 2226 1190 4207 729 
332 489 402 5574 4201 1636 142 5166 5054 
2482 4778 5446 176 1972 1221 939 618 3584 
677 4480 2070 1415 271 3184 2508 4326 1483 
558 3583 5623 5470 4692 2911 587 2319 212 
1066 21 836 243 4575 5198 983 1305 5536 
186 4864 5810 3665 4545 5036 5431 5212 3812 
2343 2648 5306 4860 5898 5459 4838 3991 5150 
5655 2388 2973 2193 5304 5140 1450 5411 4710 
5858 5939 5026 4973 4401 2187 5891 3637 2728 
2943 763 4853 5149 5201 546 427 949 3614 
5112 4185 2566 1627 4923 1337 2249 592 4188 
5181 218 4090 3732 5989 5382 3048 4981 4587 
4640 5384 3911 1671 5270 3716 3622 5530 4770 
4895 4428 3798 4441 2786 5733 3382 4138 5640 
3888 3041 4163 5826 3090 5011 4754 5374 2106 
3833 4076 4152 1191 3431 5907 5888 5237 4836 
3978 5528 5963 5647 1009 5401 5656 2641 4046 
2493 5529 2467 4366 1854 2480 1846 864 4550 
2768 673 5415 6015 5501 1937 3545 5984 3059 
2959 5548 3128 2894 5714 5048 1157 2449 3763 
2082 1158 790 5110 3726 4857 3957 81 5081 
3025 474 5766 2914 1224 3744 3857 3332 5513 
1494 5404 3481 4607 2688 5964 3950 5613 3851 
2963 3212 3972 5442 3718 3830 4400 4686 5167 
3890 1916 287 1364 4417 4150 2759 141 2344 
1556 2861 4374 3036 2815 2489 5764 1915 5462 
1763 4561 368 1613 2033 1247 6026 3504 5305 
5834 6002 1583 6067 2660 3398 5377 3330 2369 
3176 9 4672 1391 6062 4998 3955 3501 2222 
3573 5479 4174 6014 5924 859 4885 2942 329 
2078 1770 2108 1707 1359 3525 4639 2021 965 
588 1290 3889 3206 101 1460 67 609 2139 
6001 482 454 3690 2473 1178 5469 1521 1291 
4833 703 2413 4969 1381 847 1987 1739 896 
3492 1395 2637 717 2439 3436 133 2665 4567 
5729 3350 3428 5083 3946 4474 5091 3985 4343 
60 3674 4422 5276 2310 5560 2683 3103 47 
2472 3865 2517 4038 6063 5161 3174 3484 3095 
4887 5517 2175 3620 2050 4062 4355 5257 4945 
3326 3835 5118 2402 5016 2690 2548 1799 6043 
2897 1107 2879 4572 4685 3111 3310 3778 2634 
4651 1853 5952 3461 4096 3883 3508 4870 3572 
1269 3107 3150 2784 5209 4708 850 5494 5058 
5338 5556 1618 5060 4966 3167 2731 3681 4048 
4716 1206 3627 3361 4742 2415 5313 3895 700 
3503 3004 3629 2086 2523 2002 2328 1835 5154 
3280 4395 2774 2100 2604 3803 3638 652 4303 
5698 3917 4435 1529 5242 4304 3697 1220 4277 
4752 6000 5010 5199 2927 5993 1838 5543 2633 
4215 3198 1212 3910 4075 3967 5303 5524 1308 
3396 3704 2965 5124 564 4273 1930 3551 4900 
3764 2974 4782 4776 3357 5829 5753 4851 2990 
3125 5439 2551 3088 1023 1931 4065 5025 5364 
5863 3587 4246 4243 2806 4445 3162 2951 4859 
6012 5473 4012 2323 5225 5915 5180 3172 1648 
5756 3215 4728 4893 3927 3513 2891 4254 3050 
4333 4543 1604 4628 5997 2420 2592 2380 4514 
4219 4698 838 3810 1176 3844 5086 4364 1996 
4614 4466 4369 3546 2567 4861 1984 3287 3969 
5585 3569 3372 4184 3388 5287 2346 5426 1252 
2045 4322 1708 4894 1434 3442 4573 958 5738 
2096 4423 5658 5197 3988 5445 3161 5626 4804 
1965 3056 4712 2994 4701 5715 410 5940 4220 
5093 5544 4425 4293 1859 4684 3983 4997 4106 
2022 4039 4380 5126 5821 2667 2807 3682 615 
5205 4036 548 5192 2505 3786 1605 4244 2920 
515 3912 3304 5328 705 1463 776 3829 1055 
6030 593 3114 1078 617 4718 720 5684 612 
5631 4659 4936 3925 1758 583 3579 602 4992 
4073 3922 1151 2289 2535 1112 3143 1551 2992 
6050 438 2985 5775 3020 3458 3805 3204 2715 
1967 2862 3098 5230 1647 4077 6042 2445 4803 
5581 4296 2921 1741 5414 4927 3801 4609 2706 
3473 561 2041 3173 5499 5757 4338 4376 4985 
3931 1634 5452 6044 2694 5783 1156 3288 187 
2217 1802 3675 2105 5804 1727 376 803 5636 
5408 2024 2510 2851 3742 1436 2610 5880 2152 
5298 1531 4135 1894 4453 3456 3550 3975 4989 
4483 5078 1102 5554 3676 4485 3850 5535 3321 
1038 927 4165 3027 4538 5966 406 5170 5967 
4099 4594 4014 1255 3021 306 2791 3039 992 
4212 4360 3435 3929 1437 1948 2035 4072 2181 
4891 1918 2357 3594 5259 5945 6058 5311 2864 
2352 2850 3687 872 1271 5307 4171 1975 5290 
1611 3506 3319 3026 2010 1656 4834 2896 5624 
4027 696 2758 2675 1847 2589 4902 4203 1517 
2623 3818 1133 3213 5160 948 3617 4154 1514 
2092 4125 4058 4470 1152 1492 2431 1610 739 
4516 2265 3043 2399 1251 5974 3406 5853 5816 
3757 3249 555 1345 4811 1645 517 1110 2062 
2631 2760 5267 75 3990 3175 28 3639 5464 
3765 5690 5128 272 1420 2869 1607 146 4341 
220 653 5731 5400 5162 2546 1012 2912 3992 
543 4396 1761 2977 985 274 690 4007 5490 
5941 4269 390 1182 6017 2114 1811 3807 2922 
1540 2171 3913 1769 565 4392 2757 1094 2537 
132 3650 134 2017 4549 3022 1729 2692 2198 
1781 1744 1949 1629 2377 2681 428 359 439 
33 1524 3794 5675 4384 1757 2 1399 5478 
91 1733 4280 4971 2753 1589 2133 2194 425 
395 2874 1900 1088 3277 480 469 418 732 
1073 3651 281 493 1995 754 5448 5143 4869 
5947 3779 167 4094 3944 4926 43 2250 5153 
3371 1138 657 179 57 5805 2355 2142 4365 
3729 1499 637 5645 5423 3370 4155 1236 4747 
4233 4917 378 488 3227 5302 3454 4503 2326 
854 4137 1258 190 3303 4467 5686 874 3042 
4620 2536 1139 4105 1831 3769 2430 2867 2484 
5396 4288 2199 4616 559 3439 3861 1620 5873 
2511 2246 2900 929 1569 4271 1964 3826 2479 
2214 3747 421 3366 27 1516 954 5332 1034 
5362 5584 2686 5852 3605 6007 4265 2988 2563 
822 2356 3654 1883 2779 1503 3974 1352 3482 
767 3377 1700 2443 2373 1877 2614 1024 1740 
1181 2725 1277 389 4245 3316 1674 620 3982 
4918 4938 4808 2494 2210 4436 3767 4827 2584 
4807 2405 4528 2989 5819 2487 1841 2441 1625 
2237 2611 1405 5803 2120 786 1273 2492 204 
1448 4340 1601 266 535 4676 78 2302 2685 
2189 4546 3186 1988 405 4251 1185 1246 1864 
4311 5077 551 1588 4592 4707 1087 4993 2781 
4901 4603 1798 1422 5337 196 5978 4294 1081 
5538 2689 1886 5096 236 5573 2055 2597 2646 
5782 1971 4890 3730 1355 1957 1549 666 5390 
502 3344 4994 4020 3701 4580 483 5671 6064 
2849 762 1052 903 1211 2047 4121 386 1135 
1985 1590 5325 4551 683 1098 1904 5075 4429 
5444 4290 5365 5770 4722 4675 5268 5206 5120 
6046 5908 4053 5428 4905 5520 5316 5789 13 
2513 687 5679 2794 4995 5019 5799 433 450 
1714 5211 4348 4699 3565 3566 3643 5321 4187 
6065 643 860 2727 5051 5582 4738 290 5933 
781 3790 2846 226 2366 330 599 4959 1440 
5541 453 3391 5914 5068 1019 4359 6057 1324 
4313 3060 4266 2067 1702 5057 1482 1394 1010 
3014 1868 2212 591 3062 2541 1525 5292 1343 
3539 2647 1346 3552 372 219 6056 629 987 
5540 1183 5156 4524 3787 3381 1801 863 3104 
4001 1320 1064 2147 3131 3081 4081 4291 434 
5163 5498 241 5491 3065 473 2471 4146 1577 
2970 1598 5343 446 4615 3178 4999 1939 634 
4119 1075 2157 2324 1992 508 4250 3928 4 
3063 5168 2028 3781 62 529 1113 1351 1779 
3336 692 3262 1511 668 1147 3489 2502 750 
3831 2661 5437 3356 3142 5985 6032 4984 4949 
2218 4953 5654 5657 4906 4403 4455 5608 5001 
5968 5074 4498 4328 4385 4510 3472 3825 5391 
3708 237 5507 5228 5067 1628 4593 5943 2993 
2716 4000 1383 4649 3591 2899 5474 1353 3168 
5451 614 5991 4802 5887 2208 4054 5486 5892 
5596 5965 4980 5348 3877 4142 3285 2372 5843 
4558 4763 4030 4598 50 3019 2923 2115 244 
5893 3937 4252 1476 1214 2954 5079 4719 3073 
3079 3694 5605 801 5749 2005 5340 3002 3232 
2113 3553 3919 1096 699 4540 2742 947 3886 
4289 4103 3677 2658 2543 1672 823 1637 456 
4717 1378 2583 2718 1201 2309 805 921 664 
3052 375 3493 1510 2446 2320 422 3099 4190 
1454 1925 3077 4723 4418 224 959 2696 2394 
255 4963 3358 3085 3294 2252 3523 2625 2476 
4965 5047 3351 3199 1990 2837 3047 365 3547 
4179 4623 3466 5512 1326 4967 2787 1323 910 
4702 2995 1000 2465 3189 557 1373 2808 3657 
3497 1117 2251 2389 2586 3118 4063 111 3329 
4691 2381 1895 549 2617 247 3997 1548 1775 
1093 782 5868 998 5477 3827 501 4045 976 
3520 317 1225 2958 5284 413 867 2580 1905 
2844 3183 5370 202 2522 622 262 647 2256 
313 1070 2457 2351 3460 3846 251 1504 8 
1820 2817 273 1267 5006 56 2499 1111 5412 
5561 4909 1389 20 5677 3452 3770 1016 1304 
887 6027 3324 4987 414 2422 2964 4200 5844 
246 1089 270 166 676 1058 1173 1493 581 
2048 2102 3999 1866 1544 1427 606 730 5719 
4223 3480 3185 6059 5957 5861 4410 4050 5324 
2811 1655 5701 5563 5688 5860 58 5758 5178 
5029 5607 2946 1213 1669 4319 4846 770 2058 
3273 5569 5044 3777 4600 5874 1751 1074 2676 
4398 1021 2669 5002 2572 2116 511 4726 2918 
2501 5310 3554 4161 4527 5351 4044 269 5463 
1036 4678 117 5009 5533 1401 3633 4111 2495 
3505 2253 1512 5643 4976 3348 4513 4595 3170 
5516 4899 1703 2952 3159 5526 876 3533 3624 
2664 3284 3696 2853 4010 4774 4617 1651 5652 
5127 242 3660 530 4097 4156 5069 5475 4026 
2712 2710 3623 522 2882 1717 4777 5814 5539 
4013 4714 1926 2925 4744 4432 6048 5918 3086 
1783 5567 4952 5454 2385 4055 478 3515 5931 
2608 299 312 2915 131 1633 4344 900 4143 
839 2967 1869 3961 252 1682 1652 1453 2565 
2892 5599 1942 3724 4101 650 5897 5833 1526 
1792 2521 3577 852 2628 1581 2620 3916 5117 
5648 1520 4986 3749 5751 3734 4872 3367 5210 
5730 322 4563 4258 4003 4342 3158 2830 2544 
2527 6028 4911 4687 2976 733 3488 2539 3521 
5191 3038 3275 3828 2772 1614 1663 1675 2626 
3012 3397 338 862 2200 1295 1465 1777 1006 
5597 2657 745 3723 4168 1165 1893 77 3510 
3691 2729 5661 172 4641 752 5397 3164 981 
1599 2554 5045 4461 3352 1143 278 2738 1834 
1666 5612 1161 5193 1774 175 3952 5443 1208 
3775 3404 1288 2949 3934 55 510 5295 4060 