# vtk DataFile Version 4.2
Generated by LIGGGHTS
ASCII
DATASET POLYDATA
POINTS 5 float
-0.0223643 0.00529154 0.0623732 0.0049735 0.0217682 0.0461423 0.00561795 -0.0210672 0.0919788 
0.0116596 0.0165192 0.0897967 -0.0231761 0.000331228 0.166201 
VERTICES 5 10
1 0 
1 1 
1 2 
1 3 
1 4 

POINT_DATA 5
FIELD FieldData 7
id 1 5 int
4217 1132 5653 5289 4280 
type 1 5 int
1 1 1 1 1 
i 3 5 int
0 0 0 0 0 0 0 0 0 
0 0 0 0 0 0 
v 3 5 double
1.9398265929e-12 -1.945043276e-12 -1.3472326377 -9.481156697e-13 -1.3553191953e-12 -6.643560942 3.9950945836 0.79715343501 -0.092115542241 
-2.7036557825 0.39383242382 -0.12399624837 -4.1108521831e-13 1.9031838458e-13 0.67782372089 
f 3 5 double
-2.9011459901e-11 -4.2177816795e-11 -0.00082184063818 -4.4565240387e-11 -3.691980055e-11 -0.00082184063818 0 0 -0.00082184063818 
0 0 -0.00082184063818 -1.4182433006e-11 -7.7307049651e-12 -0.00082184063818 
radius 1 5 double
0.002 0.002 0.002 0.002 0.002 
omega 3 5 double
1.0580199031e-12 1.4862358247e-12 -8300.7671993 -4.8677381214e-14 2.2722225282e-14 -6733.994255 0.30669002201 -2.0939204605 -1.5215768814e-28 
0.93894439944 0.23648853189 0.10329854007 -3.2668608634e-319 2.3290254545e-320 113.84590446 
