# vtk DataFile Version 4.2
Generated by LIGGGHTS
ASCII
DATASET POLYDATA
POINTS 5997 float
-0.0122671 -0.0199622 0.00275114 -0.00586168 -0.0227283 0.00221454 -0.0194385 -0.0137045 0.00311588 
-0.0221042 -0.00893012 0.00183484 -0.0173305 -0.0151024 0.00203629 -0.018227 -0.00829347 0.00261272 
-0.0168658 -0.0123015 0.00236184 -0.0100035 -0.0124041 0.00234476 -0.0160325 -0.00898887 0.0028718 
-0.0119998 -0.0145621 0.00300006 -0.00622176 -0.0103343 0.00274352 -0.0226782 -0.00669864 0.0029409 
-0.0207241 -0.00560502 0.0028205 -0.01424 -0.00608446 0.0028735 -0.0167806 -0.0168844 0.00584533 
-0.0167405 -0.0168055 0.00861027 -0.0133652 -0.0178398 0.00314364 -0.00924366 -0.0205565 0.0036261 
-0.00841338 -0.0186519 0.00418693 -0.0158825 -0.0178079 0.00335221 -0.0102792 -0.0179469 0.00397835 
-0.0113177 -0.0210794 0.00437617 -0.00920464 -0.0219545 0.00527453 -0.00972481 -0.0194579 0.00622365 
-0.0133402 -0.0194095 0.00461392 -0.0122775 -0.0178088 0.00558341 -0.0151861 -0.0184806 0.00529548 
-0.0114562 -0.0210199 0.00690563 -0.0129707 -0.0197252 0.00666343 -0.0137315 -0.017043 0.00692588 
-0.0110465 -0.0189266 0.00769355 -0.00932545 -0.0218589 0.00729363 -0.00870586 -0.0190038 0.00845638 
-0.0156825 -0.0180929 0.00723621 -0.0107561 -0.021308 0.00886292 -0.0104001 -0.0178864 0.00943441 
-0.0142354 -0.019159 0.0087495 -0.0123555 -0.0200112 0.00909226 -0.012029 -0.0167736 0.00825872 
-0.00945704 -0.0218751 0.0103484 -0.00956704 -0.019835 0.0101461 -0.0128011 -0.017686 0.0100412 
-0.00845004 -0.0173853 0.0100262 -0.0115516 -0.0190641 0.0108273 -0.0150116 -0.0177681 0.00996687 
-0.0112203 -0.021086 0.0109509 -0.0136244 -0.0195795 0.0106183 -0.00808709 -0.021172 0.00904475 
-0.00772101 -0.0223921 0.00350223 -0.0075939 -0.0204971 0.00722662 -0.00745829 -0.0203148 0.00519527 
-0.00723519 -0.0227916 0.00547614 -0.0027762 -0.023586 0.0031875 -0.00454088 -0.0194963 0.00420793 
-0.00134604 -0.0237889 0.0046391 -0.00226126 -0.0203875 0.00381742 0.000290152 -0.019758 0.00408392 
-0.00424113 -0.02133 0.00329877 -0.005957 -0.0179993 0.00443947 -0.000465973 -0.0169381 0.00452088 
-0.00222359 -0.0182296 0.0044718 -9.95645e-06 -0.0218609 0.00452394 -0.00533634 -0.0207749 0.00555204 
-0.00493888 -0.0232023 0.0041156 -0.00234375 -0.022107 0.00518123 -0.00336223 -0.0202472 0.00624868 
0.00027196 -0.018392 0.00633178 -0.000729687 -0.0206454 0.00599985 -0.00647463 -0.0188184 0.00624234 
-0.00448987 -0.0230231 0.00606695 -0.00214774 -0.023712 0.006525 -0.0020119 -0.0184739 0.00661716 
-0.00735915 -0.0225495 0.00748941 -0.00649257 -0.0229206 0.00925675 -0.0059443 -0.0199026 0.00829592 
-0.00638487 -0.0177509 0.00903353 -0.00547626 -0.0217549 0.0075013 -0.00498144 -0.0214472 0.00944812 
-0.00438878 -0.0183028 0.0074595 -0.00309851 -0.0219455 0.00729833 -0.000618403 -0.022095 0.00761486 
-6.65438e-05 -0.0183094 0.00873343 -0.00183227 -0.020516 0.00831556 -0.00427535 -0.0233508 0.00818838 
-0.00385879 -0.0202761 0.00827685 -0.00441253 -0.0174488 0.00931516 -0.00148914 -0.0238151 0.00852001 
0.00012292 -0.0201342 0.00957323 -0.00260907 -0.0186717 0.00853679 -0.00277927 -0.0220848 0.0092711 
-0.0076977 -0.0226087 0.0110051 -0.00668506 -0.0199869 0.0101709 -0.00465132 -0.0233747 0.0102068 
-0.00148561 -0.0178497 0.010198 -0.00483713 -0.0192157 0.0101536 -0.00267617 -0.0200303 0.0100977 
-0.000244357 -0.0190996 0.011258 -0.00364444 -0.0219086 0.0111581 -0.00252541 -0.0236794 0.0104711 
-0.000440456 -0.0239027 0.0102571 -0.000834925 -0.0219172 0.00995585 -0.00335417 -0.017792 0.0110228 
-0.00679748 -0.0167191 0.0110334 0.000466302 -0.0237411 0.00643909 0.000915415 -0.023825 0.0043585 
0.00134338 -0.0219538 0.00615457 0.00154991 -0.0182163 0.00455921 0.00228041 -0.0213013 0.00440528 
0.00367053 -0.0229593 0.00396524 0.0041984 -0.020709 0.00452064 0.00566241 -0.0231667 0.0051452 
0.00580576 -0.0189113 0.00497726 0.00794749 -0.0224311 0.00509708 0.00203766 -0.0193494 0.00614343 
0.00253043 -0.0237314 0.00583745 0.00354704 -0.0220032 0.00603511 0.00273963 -0.0172396 0.00597904 
0.0037546 -0.0188032 0.00511637 0.00630768 -0.0212697 0.00500412 0.00605209 -0.0167602 0.00575426 
0.00826705 -0.0204776 0.00552583 0.00764527 -0.018134 0.00546901 0.004804 -0.0233285 0.00707911 
0.00465171 -0.0201721 0.00668572 0.00504097 -0.018192 0.00686174 0.00648987 -0.0221981 0.00679477 
0.00655932 -0.0196086 0.0069173 0.00839616 -0.0221642 0.00739943 0.000821385 -0.0200855 0.0076922 
0.00104449 -0.0238296 0.00888406 0.0014998 -0.0218924 0.00821618 0.00163211 -0.0177148 0.00775625 
0.00188422 -0.018798 0.00954267 0.00282912 -0.0201996 0.00784959 0.00287631 -0.0236605 0.00805621 
0.00252379 -0.0167856 0.00954115 0.00421771 -0.0217083 0.00814295 0.0047119 -0.0234414 0.00909115 
0.00830725 -0.0181944 0.00769516 0.00460439 -0.0198044 0.00873097 0.00395806 -0.0178662 0.00855182 
0.00676822 -0.0228182 0.00871903 0.00733974 -0.0208464 0.00850272 0.00680522 -0.0168495 0.00762264 
0.00613422 -0.0184895 0.00876706 0.00855364 -0.022236 0.00944089 0.00569968 -0.0213417 0.0095839 
0.00789953 -0.0189148 0.00964138 0.000760584 -0.0173068 0.0105787 0.00448255 -0.0185468 0.0103597 
0.00603977 -0.0230796 0.0105874 0.00602839 -0.0195535 0.0111369 0.00758307 -0.0206979 0.0105393 
0.00898314 -0.0201347 0.00748014 0.00989678 -0.0216643 0.00607884 0.00977932 -0.0179726 0.00632379 
0.0121205 -0.0205698 0.00500707 0.0139813 -0.01945 0.0049679 0.0108156 -0.0196877 0.00655008 
0.0122757 -0.01779 0.005419 0.0143925 -0.0179141 0.00625841 0.0162889 -0.0174748 0.00565943 
0.013778 -0.019564 0.00723913 0.00933845 -0.020371 0.00959462 0.0101857 -0.0215771 0.00818714 
0.0120414 -0.0206073 0.00792895 0.0112083 -0.0210508 0.00986931 0.0153505 -0.0184267 0.00801233 
0.0158993 -0.0166349 0.00881258 0.0153433 -0.0184193 0.0100254 0.00930977 -0.022063 0.0112945 
0.0167545 -0.0170403 0.0106233 0.0173426 -0.0164337 0.00723405 -0.0201693 -0.010416 0.00308467 
-0.0202407 -0.0121599 0.00415466 -0.0170429 -0.015938 0.00404639 -0.0191316 -0.009993 0.00501661 
-0.0223987 -0.0084031 0.00454419 -0.0174196 -0.0082293 0.00467193 -0.0170692 -0.0109299 0.00442133 
-0.018383 -0.0151744 0.0054786 -0.0206514 -0.00834513 0.00602439 -0.0213497 -0.0106849 0.00563182 
-0.017778 -0.0115405 0.00622072 -0.0193259 -0.0131983 0.00587073 -0.0177733 -0.0155528 0.00743066 
-0.0217166 -0.00993755 0.00768804 -0.0195315 -0.00998781 0.00719587 -0.0205667 -0.0120201 0.00766905 
-0.0173356 -0.0131427 0.00754107 -0.0176348 -0.010713 0.00817363 -0.0191356 -0.0143206 0.00837187 
-0.0194298 -0.0100803 0.00925316 -0.016835 -0.0147576 0.00937746 -0.0218684 -0.00972261 0.00973458 
-0.0176765 -0.0128184 0.0096157 -0.0195938 -0.00881524 0.010973 -0.0208422 -0.0115715 0.00982353 
-0.0170063 -0.0165122 0.0106427 -0.0186272 -0.015013 0.0104586 -0.0196241 -0.0132768 0.0100481 
-0.0165057 -0.0137291 0.00427741 -0.0141883 -0.0118328 0.00339986 -0.00856292 -0.00903957 0.00385877 
-0.0121773 -0.0122238 0.00421398 -0.0147971 -0.0147621 0.00327532 -0.0120532 -0.00936628 0.00430144 
-0.00846116 -0.0111168 0.00512566 -0.0130403 -0.0161049 0.00451814 -0.0104091 -0.00986601 0.00574892 
-0.0125088 -0.0141093 0.00499991 -0.0141587 -0.00986009 0.00472858 -0.015156 -0.015822 0.00520667 
-0.0124181 -0.0108948 0.00601692 -0.0147249 -0.0124193 0.00525334 -0.00839285 -0.0092436 0.00639037 
-0.0163223 -0.0095302 0.00592529 -0.0156917 -0.0139631 0.00645234 -0.0159522 -0.00844548 0.00761463 
-0.012301 -0.0133781 0.0070302 -0.0139545 -0.00991565 0.00690921 -0.0100153 -0.0111319 0.00744611 
-0.0155389 -0.0158193 0.00729886 -0.0120751 -0.0146225 0.00936199 -0.0112137 -0.0123809 0.00852807 
-0.0156637 -0.0108522 0.00747733 -0.0101337 -0.0109836 0.00947708 -0.0114704 -0.00942117 0.0079872 
-0.0138597 -0.011225 0.00866837 -0.0139736 -0.00878698 0.00861898 -0.013584 -0.0132528 0.0086776 
-0.0146571 -0.0159231 0.00914547 -0.0156462 -0.0127244 0.00874272 -0.00878884 -0.0135873 0.0103177 
-0.0104247 -0.00842811 0.00977714 -0.0107127 -0.0132358 0.0108127 -0.0109104 -0.0160883 0.0101597 
-0.0124676 -0.00999733 0.00978144 -0.0128625 -0.0121079 0.0101754 -0.00867345 -0.0155263 0.0109494 
-0.0149844 -0.0139072 0.0105243 -0.00801265 -0.0125759 0.00369332 -0.00330067 -0.0164466 0.00389357 
-0.00518812 -0.0154045 0.00380899 -0.00286555 -0.0144268 0.00427682 -0.000962646 -0.0119344 0.00354455 
-0.0029054 -0.00937198 0.00452208 -0.00466356 -0.0161947 0.00571123 -0.00655184 -0.0120158 0.00505023 
-0.0032778 -0.0125143 0.00557073 -0.00485236 -0.0140909 0.00584663 -0.000807149 -0.014865 0.00557024 
-0.00197397 -0.016454 0.00636155 -0.000938463 -0.0127682 0.00560337 -0.00633398 -0.00904672 0.00570192 
-0.000171115 -0.01639 0.00732914 -0.00168465 -0.0108032 0.00661331 -0.000327809 -0.00862776 0.0070098 
-0.00296627 -0.0146489 0.00711065 -0.00418615 -0.0109983 0.00669075 -0.00263067 -0.00843618 0.00736646 
-0.00400507 -0.0162749 0.00767456 -0.000176521 -0.0113327 0.00784112 -0.00248003 -0.0102956 0.00842221 
-0.000395659 -0.0141637 0.00776542 -0.000609028 -0.00950352 0.00882363 -0.0019231 -0.0166422 0.00847425 
-0.00462112 -0.0127242 0.00764507 -0.00205574 -0.0126 0.00760596 -0.00135168 -0.0118622 0.00940777 
-0.00116047 -0.0139166 0.00964342 -0.0023849 -0.0085463 0.00969985 -0.00400204 -0.0145781 0.00895192 
-0.00681098 -0.0142214 0.010583 -0.00564867 -0.015685 0.00972779 -0.00313578 -0.0127144 0.0100142 
2.51527e-05 -0.0102851 0.0105852 -0.00210987 -0.0106169 0.0108735 -0.00300262 -0.0159052 0.0101126 
-0.000908334 -0.0159192 0.010644 -0.00472014 -0.0142237 0.0111609 0.00823674 -0.0162508 0.00627018 
0.000809112 -0.0136147 0.00484184 0.000471906 -0.0111736 0.00531044 0.000860095 -0.0127139 0.00664886 
0.00433297 -0.0164738 0.00477079 0.00138227 -0.0158555 0.00495481 0.00298855 -0.0122359 0.00535103 
0.00358172 -0.0145231 0.00520703 0.00804539 -0.0145644 0.00505016 0.00124331 -0.00897393 0.00554547 
0.00565302 -0.0145956 0.0053228 0.00618074 -0.009535 0.0054026 0.00855849 -0.0106664 0.0054588 
0.00495429 -0.0126768 0.00573209 0.00828165 -0.012633 0.00611605 0.00713863 -0.0111394 0.00682802 
[...]
POINT_DATA 5997
FIELD FieldData 7
id 1 5997 int
2963 4201 1351 5776 188 2519 4543 5463 4634 
457 3279 1125 4299 1220 3132 2276 5661 5170 
324 2497 3047 2189 4418 2598 5458 5392 626 
4981 53 1250 3339 5212 5407 65 5588 5205 
5975 759 4717 999 4521 1853 4984 5572 367 
1830 5021 1081 2492 3307 830 615 4407 340 
3467 1156 5126 4659 4848 3666 867 1920 2680 
6025 3758 2336 4192 673 5610 5555 5501 1850 
3252 2665 5265 541 1292 4367 2664 3051 4217 
432 394 549 4286 453 591 5231 1779 5527 
4400 5861 1486 5872 3109 5920 3830 2227 3731 
2354 5887 2757 542 2095 4578 2351 3957 3740 
5410 5404 476 1708 4113 1808 768 638 3099 
2123 3173 1246 1073 5225 5657 1692 1912 4822 
235 5904 2540 3133 521 5273 4337 4888 4639 
1582 3771 5804 2677 2374 4641 2753 5444 2041 
3662 3971 3847 3044 3576 2238 4357 2465 680 
5479 4440 5298 5989 1322 4027 5585 3475 3113 
5757 767 2084 4056 5044 4980 4316 4151 2384 
2454 845 5615 2890 2955 2114 1312 2325 42 
3365 2355 4723 2249 1783 1015 5508 265 5912 
3468 127 4575 4087 2948 3622 4545 4883 1309 
4293 1696 3183 3621 2560 3763 1881 545 4462 
5637 4945 2197 2405 692 424 2085 5995 3618 
195 5788 5187 1062 1690 1866 3032 2631 256 
753 2609 3426 380 3868 1518 1839 2314 4253 
3444 2782 281 3601 3998 2218 419 19 3415 
1146 5929 3986 3691 2142 3335 5535 2998 742 
2746 5317 100 54 6053 786 4445 4059 5420 
5737 5145 3855 655 2647 2800 3692 5520 5885 
5241 4073 5742 4197 5554 2503 2038 2748 2957 
2425 1476 3996 3145 992 4347 4442 4869 731 
1057 3832 4409 3969 1298 5023 2418 3837 2853 
3583 2019 66 4062 3086 24 2501 1597 653 
5309 63 6000 3985 4761 2324 5879 3639 3325 
4513 3734 3180 3628 4247 498 3260 4174 5594 
2532 519 4511 4596 5533 1302 3646 4931 1190 
1219 1836 1612 1994 5115 30 5413 5620 4946 
4998 50 5137 5505 3777 5387 406 2625 1373 
587 2361 2462 247 1022 2623 2010 556 1733 
368 5358 1064 4537 1317 4677 51 613 2013 
3079 3913 2098 3194 2989 2369 3241 5868 115 
4040 2174 4959 899 3987 2520 2196 2886 2311 
5706 2593 3704 5926 3300 5627 2674 1666 536 
388 4239 2675 1285 895 456 2900 4252 2930 
4909 2088 2291 822 4081 5678 1797 5985 5328 
46 3821 1695 354 4662 3553 1892 4212 2928 
4079 4652 1814 4924 2475 3005 5133 1772 110 
3929 3370 4024 1838 5765 3419 1453 5482 3502 
3764 5609 1793 5526 5412 4680 4592 5701 727 
1904 2542 2251 1433 3263 4075 1750 3517 2952 
894 60 2606 2733 4303 452 2428 76 5323 
2270 3060 5895 5883 2401 1854 2386 1288 4486 
2939 2061 3394 4782 81 1244 3563 263 1038 
2022 2627 5234 2837 4783 3865 78 4703 2719 
2872 1634 2567 4300 4557 2522 4856 3673 3828 
9 1463 2655 1962 3643 2172 2646 4961 4952 
2252 1124 5946 2491 3442 25 1437 5694 2339 
1961 1510 5449 1315 3445 1516 4880 3189 4835 
4041 6012 3499 797 971 1101 1551 4777 2200 
2016 3960 1354 4296 1330 5690 3588 3620 3147 
4544 164 482 4351 3356 3355 4155 114 4695 
4947 2241 3018 4402 2571 2974 4792 580 1371 
26 2605 1934 5167 3457 1643 5409 3308 3478 
296 1421 2971 2742 2818 91 4348 844 714 
6027 6010 146 1766 5755 3912 1228 3769 1767 
298 1986 546 5708 4546 1350 2565 3657 3903 
4701 1596 2017 4405 633 3786 3423 654 5397 
4512 4919 4456 3321 4539 387 253 43 5579 
3852 5882 3496 5119 5416 3856 1511 82 4837 
480 392 58 2557 5272 2357 6059 3172 4978 
3257 3642 6003 4078 5102 147 1439 823 2831 
5723 3093 123 2762 4482 3055 4559 3817 5681 
5277 3106 4346 2630 4678 590 5278 155 5333 
5403 3893 102 2028 1158 4693 3377 4505 2254 
6013 5795 1332 4422 6017 1003 1492 3782 1801 
2584 4793 2489 3011 3722 1587 4387 293 5665 
4607 5219 1886 1948 1619 2770 1987 2579 2967 
3918 4747 217 4090 3249 2307 877 5042 1139 
5541 4846 1077 1441 4648 1568 2500 1270 2003 
5203 4451 5819 1775 928 133 3056 3644 4444 
3121 1225 4816 3480 1725 5607 3159 5979 5683 
32 4414 439 4913 3611 3939 3232 4979 3807 
4343 5850 203 1447 974 1122 4589 5702 2126 
3750 119 3342 5724 3582 1699 5997 4899 5393 
1013 1616 3886 4790 2090 2476 4824 5857 2262 
1606 1056 3191 728 2265 3787 4617 5454 248 
3157 5611 4481 1585 2685 3134 68 5435 1093 
4004 3204 4283 975 365 506 4715 3434 1061 
4494 3544 5597 1172 5063 2063 4238 1137 756 
5048 3433 403 5750 502 1909 925 1378 5761 
2420 1936 5471 5161 1876 3488 777 6057 5254 
2304 1097 897 5006 465 4568 4487 2986 2931 
2433 2857 4067 2804 3667 4225 3459 496 5890 
826 3977 1083 939 2317 1676 5909 1283 5733 
5334 4055 4996 5889 2318 1313 1563 4047 151 
2429 747 4893 2128 5202 3058 2150 1741 4438 
4194 3095 3887 327 1647 2277 1265 868 5419 
1847 1580 4892 3675 5158 92 4968 2009 5275 
201 2513 503 2486 5105 5184 1274 3527 2929 
4182 200 5836 4360 3894 567 5064 184 4916 
3473 5544 3562 716 1701 4858 886 2488 2749 
3487 3123 2650 231 4732 702 3490 637 2614 
4292 3819 1391 4941 3941 528 1160 5855 4485 
4499 5658 3096 5783 4480 4183 4552 3141 6068 
917 1984 3660 4819 3471 4415 1626 3781 3529 
5122 4100 3708 182 4206 4171 5481 2015 3299 
5474 1764 2533 2962 426 1084 5289 4999 2435 
2904 3430 5448 2001 2326 1001 1458 4023 5672 
4927 6045 2365 920 3720 124 3198 926 1538 
4606 2141 2136 4202 911 3178 4553 873 2313 
5923 2819 2037 6031 5781 2457 6049 3962 1964 
236 4969 4257 3275 1500 4268 709 262 2976 
336 4840 1310 4149 180 3898 2944 2026 1133 
3934 4861 1150 1872 1106 4240 1291 5260 4660 
2186 838 3219 1773 4162 1730 5740 4127 3135 
4738 1621 3904 5140 5307 1505 3346 4060 2991 
6024 2319 1277 4220 2450 1389 3697 1608 1494 
612 4208 3966 3184 2437 3389 721 6037 5247 
1429 56 5566 6023 4569 3811 2408 3512 2091 
5650 477 4006 3217 1737 2529 3554 2396 291 
2643 2874 2143 5826 4740 4654 2701 4237 3311 
299 2353 4258 2973 1670 5632 4526 3107 5354 
5732 2830 1509 4234 960 2247 4618 3115 3443 
2941 4275 1925 1806 3004 3313 2110 1188 4536 
4847 583 1688 5930 4309 5673 4395 4688 3858 
332 1561 965 5654 140 4488 5034 884 61 
5913 1087 668 6069 4138 3228 5486 5813 1055 
887 2721 3900 4737 1713 3630 2451 4692 2076 
3881 4310 5093 2910 2921 4496 1653 207 2897 
2678 14 5376 5185 6033 2155 4811 5221 5252 
1795 4235 3185 2891 1114 5036 4833 1757 4728 
836 5239 2097 686 1745 4359 5319 5371 4528 
2343 4377 876 4350 1605 5954 3424 532 4829 
3214 1365 4338 2616 2248 3090 2456 234 1771 
3289 5948 593 1535 4032 2308 3945 3144 1329 
1256 5568 5151 1132 3892 5433 1237 121 2480 
4254 1498 5558 4944 5749 739 4775 2419 4583 
2779 3447 3871 4601 241 1113 2546 4936 2873 
1324 710 5019 5651 1540 5770 2464 579 2441 
4076 3351 619 283 2759 771 5271 3950 2072 
932 1348 1677 5492 5306 2741 5631 3690 927 
1209 4184 2700 1339 5766 2075 5938 458 1068 
2791 1451 601 28 1770 270 1238 5100 264 
766 1765 5249 4003 2845 1333 333 1541 2983 
3082 2138 2935 5507 3406 4017 3216 1159 1181 
1131 4739 3101 3008 2634 174 3541 2807 3654 
3549 1208 2232 1893 5166 4661 3711 5390 4973 
1402 1972 4864 5718 493 4186 730 5382 5040 
2866 3373 1731 3774 322 5951 1867 428 2135 
4064 3616 2082 708 5604 4647 4870 4579 2805 
4434 4520 2157 1281 2048 5571 4646 1189 4384 
4050 4464 2025 2443 5685 3742 3707 5972 433 
2570 4288 395 5106 4137 1474 4555 666 4676 
5551 5067 4159 2395 4117 1449 5841 4683 5164 
4470 3760 1017 789 1410 5156 2906 2547 4633 
1216 3116 3401 2621 5255 2922 651 1784 130 
1490 4193 1640 4241 273 1822 2862 5194 4001 
843 5144 2167 4877 4734 396 5270 3589 2158 
4432 2544 4319 3737 3905 4267 1567 5487 4704 
3954 5027 1833 2402 5729 1235 5500 4471 816 
2978 1136 3276 3392 3222 4934 1258 5774 2283 
984 1032 2945 3762 4358 1824 3728 3715 1575 
1637 5935 3634 2103 5864 2893 420 5772 4702 
3410 4637 1445 3408 2154 5071 2035 2371 3118 
2615 38 3237 1403 5759 5456 3911 5928 1471 
3558 4263 1200 3880 2863 4495 5348 1693 4857 
1058 2120 22 363 1930 6041 881 4043 610 
5253 2832 2528 3931 5316 4376 3227 4095 266 
6047 1478 588 2660 4233 3906 1823 5401 3042 
4671 5168 1624 2981 4943 5098 4188 4621 4277 
1224 3127 5523 2007 788 802 5828 1214 855 
1174 4744 440 4205 1579 1716 534 508 2436 
4311 2751 170 3843 3053 4433 5331 1045 3038 
566 216 109 158 134 781 3000 2885 510 
1819 4845 2745 5369 4986 350 3757 5199 1638 
2315 5190 5962 2455 5624 166 2187 5773 481 
1878 3944 5811 3803 1053 2508 799 3395 1629 
2656 2752 3695 1870 4820 59 998 5699 345 
3546 3286 2888 527 5377 2005 2512 1364 3281 
4577 3578 450 1261 4099 3596 18 5405 1386 
1267 1751 204 2940 3019 805 5659 5312 2116 
2651 84 1526 859 2783 659 2787 773 3349 
629 1604 1815 908 2727 5418 5992 3484 4463 
1392 31 5549 4039 1648 6016 5213 645 1891 
5288 6019 5440 676 356 749 4243 5374 4516 
850 2292 198 5002 4576 1846 5338 1473 131 
5060 1941 3143 3261 715 4834 4092 335 2171 
4665 1423 4388 4642 5434 913 2997 5286 318 
3247 497 4396 5705 1697 1036 3498 2550 4531 
4089 1834 1557 3470 1142 4406 1817 2323 1658 
3381 4305 3288 4818 3036 2710 2999 4150 172 
902 3400 4518 3202 4172 212 2626 4629 1821 
5362 1207 94 3932 4417 1691 1349 5134 3926 
743 1397 4146 4551 3052 1221 2689 4727 3922 
4249 5577 3820 1718 1983 4154 5078 3306 839 
5269 62 2385 1342 3454 2803 1187 3039 5130 
1417 5514 2817 5743 4997 2067 3940 5076 2937 
3565 516 2603 2410 2274 5862 4328 3304 2256 
2057 178 103 973 1155 3889 2681 2915 287 
4730 3046 5342 4687 3951 5849 1123 2576 6029 
5587 4281 87 1792 5578 1030 4036 1742 4902 
4523 2260 4625 205 1180 2383 3136 2649 571 
206 2796 5771 770 2389 1454 2851 918 5725 
3315 4712 1308 792 2239 1002 5731 3989 2181 
2149 3542 3348 1788 3556 3463 4285 5686 5647 
5121 1965 2738 4561 5470 3242 6048 5052 2902 
717 5561 3435 160 1399 3516 5428 4490 1323 
2349 10 5539 3385 3810 372 5049 2388 3826 
5062 3804 1408 1164 3384 3748 3543 3669 6067 
303 1951 3017 4457 1251 3709 3571 4843 3528 
5917 2121 4179 2696 3319 5016 499 1493 2951 
604 1259 1460 3896 3293 2470 2394 3518 2093 
173 4441 616 4599 86 4778 2364 5643 1334 
820 320 988 1411 5601 1534 2362 5787 2545 
2668 630 3805 4326 3607 2293 3386 3188 4925 
1539 847 1811 1957 5193 2250 1583 5560 3360 
1980 245 5993 227 3162 4923 4420 1694 3761 
4814 764 4710 5302 5878 2333 1118 5516 1129 
5640 746 5522 3380 514 1046 276 2604 4699 
878 4245 1732 3048 1827 1193 2358 2964 4107 
2814 1577 5987 5575 4429 4890 5165 108 4297 
2245 3863 3059 4982 4799 4178 4515 2330 3062 
3680 3077 5829 4425 765 3495 2092 656 214 
5065 1035 1247 5753 461 2300 1368 4153 609 
2717 346 3290 3861 553 733 3270 2648 3874 
4170 1320 233 2490 1835 5621 4255 2258 5047 
3268 70 5734 4809 4567 2034 4478 285 2473 
1233 4344 3446 5379 1895 2823 5958 5562 1462 
1810 4029 3590 5574 75 3028 4403 5095 96 
5209 2287 1728 5157 2662 2122 4538 5762 1857 
5891 5831 2703 2032 1905 2777 3037 5842 4031 
1229 5956 5619 5295 854 1560 3409 525 34 
568 239 3650 5214 4397 5320 462 290 4315 
2871 3182 2953 1877 98 4158 603 3416 2390 
2062 2815 2549 1210 4413 1367 2731 4120 3783 
5380 5131 2638 3029 2426 4781 3105 5630 4527 
2789 5035 4380 3177 982 1525 3635 3438 4631 
1331 979 2166 1675 726 2077 3192 4355 5422 
2275 1919 150 2165 1152 6055 132 1663 422 
4550 4108 5378 5357 165 6062 310 1660 5029 
5472 3399 4663 3925 5835 159 2920 1960 436 
64 5182 3550 606 4875 5950 896 2453 4750 
3785 1121 4114 3329 4044 5082 4105 451 5805 
2523 5355 906 5142 1976 4165 3205 4145 1369 
8 2682 2447 4964 1944 2259 1590 3560 827 
1406 4854 3119 4813 598 3878 1921 3610 5605 
557 162 5229 4168 2595 5644 3070 2641 784 
558 2763 4180 3759 2412 698 1592 1264 1996 
5797 2081 2217 5830 3663 2933 183 5242 2985 
2561 2423 3816 1873 2471 1907 302 4218 4718 
5365 4912 751 5359 3322 1721 5990 1618 179 
1763 4131 128 2793 1484 232 4356 1975 825 
3638 89 4216 3801 4219 5294 1787 2404 221 
3333 2257 4012 1426 5752 3882 3327 5057 3345 
2145 4327 5877 1723 2843 3523 1752 5426 5873 
774 958 1628 3330 3246 3472 2859 2543 271 
5296 494 2335 4716 4228 3320 725 4719 484 
4674 2033 4953 2697 4926 1168 1859 4401 5364 
4664 4177 1086 947 1470 405 1107 1558 2078 
3567 1565 5660 5955 723 6046 3396 3716 664 
1327 4063 5696 3885 5974 5991 2979 4825 4459 
880 2671 704 4251 4760 1069 5617 1738 530 
5953 2618 2785 1357 5691 4273 1868 2896 4372 
2346 3022 1314 352 5163 2768 40 1141 376 
4340 621 5118 4787 3340 3065 4714 2670 5431 
4649 4758 599 5793 3464 3593 5976 5459 5961 
3727 1627 4684 1151 3139 1932 1052 3174 4590 
573 337 2018 1230 592 3949 1959 970 3196 
4736 1974 3806 5491 3269 4889 250 2894 639 
55 5004 4002 2596 4581 4306 1952 1435 1785 
1644 2594 1531 4897 543 4603 4971 4729 652 
517 6015 2096 2329 4323 1641 683 505 4682 
4562 1266 6036 1157 5625 3557 1880 5984 866 
3963 2554 3504 1268 1940 632 4256 1955 3955 
5707 2509 1400 5927 5224 3140 1736 4140 1318 
2360 1656 5537 3849 2909 4026 1971 658 104 
4374 4862 3026 5169 1611 3474 5464 3598 4780 
4104 4786 1360 111 5259 812 309 5149 5874 
5038 3071 2505 1095 4469 3658 330 5451 962 
889 125 4746 4963 650 3481 1005 919 2591 
488 4436 315 5037 1377 167 116 3347 5703 
4130 2023 1508 515 5478 5922 1303 2562 3802 
1800 1352 1448 978 3572 1297 1545 5188 1789 
2878 4342 5120 149 5114 4698 1926 1927 1495 
3765 2913 2482 5232 4930 1456 828 3534 5127 
5789 5086 2695 2099 1657 3739 1040 1346 4282 
2826 5663 305 5304 2074 4479 953 1242 1049 
2797 2946 3069 4322 4937 5088 3009 3298 4842 
171 1356 2266 37 4628 3476 2548 622 3390 
471 1655 1096 5268 2827 5068 3492 5573 738 
4517 4707 769 5026 3002 972 3617 4950 2235 
449 361 5223 1702 1928 292 5745 5466 1145 
3726 5697 4594 2516 5299 4096 1054 2006 2194 
3420 2876 5786 2011 1390 5195 3665 5519 186 
5710 3840 1978 954 600 4726 1366 1842 1803 
3273 946 3111 2406 138 2219 547 5666 47 
4371 4176 2111 3031 2059 3460 4290 763 1218 
2046 2421 3197 5618 3482 4302 2008 220 4815 
3751 1175 976 4885 1393 2444 4586 5775 1178 
4166 1654 4484 1665 3836 41 5113 6035 112 
5919 1933 4501 489 5070 1548 2901 5303 938 
4779 3968 1134 1213 1759 5670 5754 1544 4748 
804 378 647 2294 5176 5880 2000 4614 2608 
5780 608 267 3061 4261 2220 5311 5046 4823 
2855 904 1206 5806 448 4361 3521 3555 3587 
3526 3466 5692 2295 4960 1499 2917 3706 4391 
5394 3203 535 3431 1794 1831 5721 5947 6052 
1078 5066 3510 5148 1286 4072 4058 1419 4009 
2414 2140 1401 390 3003 2722 2927 3001 2496 
3087 4049 1241 2537 3629 3854 1949 4595 3910 
3388 2599 5337 4891 3171 2559 4115 4389 399 
5226 5347 3580 5816 5485 3927 4013 4148 5373 
1929 5945 2771 4705 3645 2463 865 1249 5940 
1744 1023 2212 3432 869 1769 3579 5934 2635 
5013 5000 1293 5973 1915 2070 1491 5944 3149 
5339 961 1311 2101 3775 4045 4121 832 3154 
872 2690 2961 495 1039 2151 3702 5211 707 
4533 5494 3097 4691 1202 818 1319 1170 1997 
148 2377 4489 981 5059 4410 4378 2461 2895 
1108 143 5430 3794 5087 3427 4694 4987 4336 
4223 5633 1199 2980 1946 3938 2246 4077 4806 
415 2812 3382 1089 2867 2968 2525 874 5450 
4524 3352 3674 5866 466 5614 5963 5550 5301 
6009 3020 5915 3158 856 2240 3864 2856 5642 
1848 1127 5969 1825 437 4020 5281 2424 3258 
5736 1555 5807 1231 4447 5215 4141 1452 4525 
3928 3848 3613 2633 1969 5341 4535 691 4650 
6043 3990 5515 5735 2601 4431 210 991 2422 
3975 4668 3112 5217 2083 1851 5870 4199 2152 
175 3391 3718 370 5305 129 3536 5982 3779 
5871 783 6050 1879 520 1094 1639 3624 4593 
5276 2765 1109 2407 2510 3964 4993 4046 4636 
1571 3668 4756 5107 2936 3705 2321 1858 3604 
1988 1016 3679 3656 2581 3575 853 1021 5893 
2960 5612 1977 693 3710 1537 1981 4673 425 
190 5344 5815 5461 3797 824 5884 2213 2055 
4800 1755 1252 1479 2775 3798 5867 2728 311 
3574 1735 2590 4742 5820 4142 4491 5383 5110 
4102 6040 4605 2761 4587 3245 4455 1799 1918 
1276 864 3341 4222 1871 2177 240 700 1753 
4111 3328 3461 4329 977 2639 4720 602 5053 
3477 4508 1958 1966 586 1119 1726 3713 3862 
3689 2586 1802 4269 790 1756 3238 699 2612 
5425 5429 3984 57 2479 5498 351 4801 1487 
3834 1615 3013 2536 2970 2234 126 2711 3210 
1724 5196 1506 2164 277 5109 3545 5977 1543 
5325 1889 1883 1012 1700 4572 1588 1931 5262 
1316 4449 3619 2242 4770 1515 3842 4164 3332 
2903 5668 500 2854 5845 1275 1059 5361 950 
3633 4175 3943 1000 3309 1128 223 5385 779 
2934 5092 4497 3049 1514 4903 5851 5564 4681 
5639 2047 3595 943 2223 4686 4852 1363 1048 
4227 3535 3664 2723 5441 4765 1217 5906 2322 
2806 5513 5041 3027 3825 921 1425 6005 5445 
5981 4967 3148 3569 2676 5722 4757 1992 5709 
1361 801 2658 4722 3732 1916 4679 3266 681 
660 4472 321 1468 4989 2064 1901 1715 5511 
4226 3129 5576 2720 5898 169 5688 5155 1438 
5326 1914 2573 3744 694 3075 5018 2715 1554 
2758 720 3016 696 3045 4949 4933 4598 4853 
5907 2729 4571 3153 6026 2344 381 2908 1067 
1226 1722 4731 4454 2073 5606 2231 1282 4314 
3271 2607 316 1184 6061 3514 862 1897 2014 
3067 814 2767 1714 4390 1255 682 3860 5496 
286 5966 5351 2021 16 3359 5565 3277 1546 
3859 2881 4015 1874 2020 3458 5112 5652 261 
243 1169 1336 5085 1232 268 3176 687 249 
2316 4083 255 3899 1140 4826 71 2053 2907 
3537 3552 2613 4051 3229 3021 4626 3012 1442 
4510 3163 951 618 3375 597 5824 5911 758 
4879 4708 5314 416 3683 623 4229 2279 670 
5957 6008 67 4124 5091 1609 3505 3833 4477 
4057 2841 2692 2514 1698 2484 3701 1300 5150 
300 1176 3024 504 5525 5332 1165 5964 794 
5965 2838 1559 1201 349 5932 2972 4458 3875 
4773 589 625 5569 288 23 2056 1197 3540 
2338 821 1394 2725 5854 1465 3651 3259 177 
5865 1091 1010 3961 1236 560 4373 3615 4745 
3479 4118 5415 5266 1899 2530 6002 741 417 
564 1601 5595 1254 3676 4749 5918 3714 4612 
5274 2328 4270 662 1404 2042 5264 4248 1440 
5802 997 5582 3681 1633 1234 2880 21 3838 
5465 5730 544 2446 829 3839 5290 3682 5437 
5020 1937 6070 1143 4558 2883 5978 4640 3522 
1517 1110 5727 2577 524 2118 4655 2409 5943 
2578 1669 2334 5368 2754 935 1063 3108 964 
1840 4772 463 5236 4990 282 2809 4966 5924 
3770 959 3568 1520 813 1566 706 785 4928 
3081 5179 152 2950 1279 3923 1631 1432 5653 
1102 2 1804 5081 793 1982 4565 2228 5039 
5175 5675 1922 301 5939 3649 3483 2737 5936 
4751 2494 2204 3614 73 2735 3412 5159 5596 
752 5821 5648 3213 4904 5838 3995 5800 875 
442 3851 5138 6063 1044 4970 5174 3978 4424 
259 2882 3972 2066 6038 533 4109 5287 5384 
4411 3741 6044 3919 4865 4019 447 2764 3603 
4609 2918 5916 5251 5284 5012 3699 4160 3640 
5983 4345 2350 5598 4185 187 6058 4033 1760 
2139 3724 2730 2716 2255 1092 397 883 1278 
5902 2958 347 3292 5557 722 357 1430 4638 
5427 2624 3815 810 1743 2195 634 1167 5746 
5952 3725 3539 2535 490 1090 4430 2356 819 
1074 4817 5177 2403 4956 135 2214 3609 2780 
3338 945 1584 5173 4838 3520 1381 2875 1950 
3564 4958 491 5886 1610 1885 1347 4116 1211 
1407 122 1321 4591 1042 2051 373 2466 5751 
1574 3606 3023 4156 5204 3808 88 3235 74 
2224 5680 1521 3872 3723 1024 2207 323 5480 
4460 1194 5263 1029 412 379 2840 3131 5293 
5154 1382 2221 52 2755 5490 4907 113 1457 
1649 1503 5791 1903 3193 1144 4613 857 4667 
2296 1289 5556 4224 1191 3973 1162 729 2926 
1416 5778 3992 4725 418 118 4317 5626 3827 
3773 1636 3253 3436 5552 3138 3581 909 478 
5218 4957 2345 3225 3425 5003 3907 5808 5001 
2474 667 2563 237 3733 1179 4804 4974 817 
5799 3844 2380 5043 226 4855 1345 1990 4798 
2553 4623 3585 1594 3407 1998 4207 713 3064 
5593 3501 4278 77 3845 735 840 3169 257 
4134 2112 2481 141 2169 2117 3368 1734 3812 
3254 4383 2269 948 3244 1507 4876 3364 719 
649 3671 5267 3251 2030 3491 107 6001 5457 
4139 955 13 5748 1673 2332 1894 5116 1791 
5216 569 5825 4209 1014 574 1008 5197 3696 
1809 4215 3592 1768 2684 157 2133 2640 929 
4632 5206 3524 1805 1646 2160 3623 4602 5899 
1422 1613 3506 4812 294 4086 423 1938 5032 
851 85 690 5261 1115 246 1529 2802 5228 
2712 834 1485 5072 4500 2821 3818 4069 4028 
4386 1076 2766 2877 4473 2988 1709 4181 1667 
444 3334 552 1659 3413 3452 3627 3318 3486 
3561 4873 3437 4294 2102 3538 409 4167 3369 
341 2320 3301 5636 4954 5704 2175 431 2683 
1464 2286 4443 1681 3285 1888 5700 4839 2846 
3256 762 3167 3041 4988 4522 5994 2969 2387 
5546 3800 1161 1542 4071 5055 3746 1374 4588 
1301 2822 2995 2744 565 4232 5777 470 5548 
3440 2663 4917 485 5186 2209 427 2108 1973 
1203 2518 4382 5996 5980 3100 2574 5623 1415 
5949 4836 1047 4133 648 1703 924 2580 1828 
5477 796 5139 3168 1855 3255 3379 4106 3897 
576 2382 5230 891 4493 218 4706 5559 2312 
2879 1704 4896 1271 3789 1913 3993 5586 3376 
923 6011 2079 4203 2086 2868 3672 2442 2367 
1786 513 684 3684 3756 4366 2363 1071 4082 
2327 518 3958 3573 5532 2058 2569 5635 1177 
251 3240 2036 3688 791 3577 1776 5257 2558 
4324 4331 5818 5391 5671 5011 3780 377 2310 