# vtk DataFile Version 4.2
Generated by LIGGGHTS
ASCII
DATASET POLYDATA
POINTS 5997 float
-0.0170431 -0.0166203 0.00370962 -0.0140896 -0.0186414 0.00321547 -0.0121446 -0.0186657 0.00376343 
-0.00960519 -0.0183721 0.00236331 -0.00608283 -0.0231411 0.00146893 -0.00166757 -0.0210968 0.0035453 
-0.00826892 -0.0220861 0.00339823 -0.00329879 -0.019365 0.00314883 -0.00509032 -0.0170896 0.00272541 
-0.00262761 -0.0174755 0.00292154 -0.00120556 -0.0238534 0.00283718 -0.00639113 -0.0186657 0.00369643 
-0.00317103 -0.0234092 0.00280371 -0.000573635 -0.0193882 0.00354186 -5.16628e-05 -0.017124 0.00124612 
0.00680354 -0.0198825 0.00220017 0.0010585 -0.0183775 0.0025423 0.0042365 -0.023511 0.00245644 
0.000152759 -0.0216947 0.00296538 0.00725467 -0.0226413 0.00292687 0.00275081 -0.0209397 0.00303059 
0.00115953 -0.0235819 0.0027535 0.00733839 -0.016587 0.00273752 0.00416151 -0.0183738 0.00298263 
0.00772872 -0.020764 0.00382769 0.00952954 -0.019845 0.0024705 0.0121882 -0.0176349 0.00216424 
0.0148445 -0.0187729 0.00234471 0.0093179 -0.0220197 0.00297071 0.0127214 -0.0200594 0.00308018 
0.0105995 -0.0178689 0.00345614 0.0155326 -0.01666 0.0037304 -0.0193457 -0.0113439 0.00358766 
-0.0151674 -0.0159199 0.00347966 -0.0105901 -0.0164582 0.00375102 -0.0132427 -0.0155279 0.00267725 
-0.0158903 -0.0140068 0.0033898 -0.0116072 -0.00981347 0.00313445 -0.0110339 -0.0119169 0.00386937 
-0.0127901 -0.0134325 0.00378296 -0.00883811 -0.0149904 0.00324659 -0.00766236 -0.0165422 0.00373708 
-0.00476219 -0.0151145 0.00210881 -0.00136498 -0.0103501 0.00354602 -0.00680754 -0.0130796 0.0035323 
0.00272436 -0.0160442 0.00322836 0.005304 -0.0153947 0.00363904 0.00835567 -0.0137637 0.0034464 
0.00283841 -0.0124258 0.00338796 0.00551418 -0.0126902 0.00333347 0.0137651 -0.0157334 0.00335023 
0.00942887 -0.0155418 0.00340442 0.0125525 -0.0128245 0.00312814 0.0150978 -0.00866159 0.00381832 
0.0177718 -0.0125129 0.0039535 0.0220845 -0.00877853 0.00361908 -0.0235883 -0.00295887 0.00386937 
-0.0224598 -0.000294136 0.00305116 -0.01151 -0.00470588 0.00350649 0.0191333 -0.00802889 0.00385382 
0.021018 -0.00705872 0.00392192 0.0231298 -0.00597848 0.00380452 0.0169943 -0.00565186 0.00374593 
0.0206796 -0.00425783 0.00334635 0.0228431 -0.0038421 0.00376306 0.0236862 -0.000302891 0.00340943 
0.0216505 3.83152e-05 0.00362986 0.0215094 -0.00212627 0.00379329 -0.0236996 0.0011662 0.00366933 
-0.021499 0.00170115 0.00382388 -0.0226025 0.00346017 0.00355973 -0.0112393 0.00607478 0.0035879 
-0.0127426 0.00753096 0.00315862 0.0178009 0.000957837 0.00391501 0.0234373 0.00238291 0.00309244 
0.0202718 0.00154619 0.0038064 0.0234682 0.00492932 0.00354996 0.0194434 0.003497 0.00361147 
0.0211741 0.0077774 0.00390603 0.0191651 0.00752079 0.00390591 -0.0175727 0.01233 0.00369968 
-0.0180928 0.015535 0.00371102 -0.00980996 0.00960252 0.00367483 0.00278043 0.0150107 0.00386199 
0.000251474 0.0161887 0.00316714 0.0174996 0.014505 0.00390235 -0.0129386 0.0183665 0.00373608 
-0.00142894 0.0218334 0.0035992 -0.00445327 0.0201259 0.00330806 -0.00377427 0.0221495 0.00337918 
0.00517117 0.021742 0.00376349 0.00751638 0.019834 0.00381596 0.0104097 0.0176898 0.00382913 
-0.0117742 -0.020547 0.00437142 -0.0162273 -0.0172457 0.00557936 -0.0138845 -0.0167265 0.00486406 
-0.0148814 -0.0187004 0.00529792 -0.0125083 -0.0181717 0.00569033 -0.00952373 -0.0218834 0.00500296 
-0.00932129 -0.0199413 0.00394774 -0.0121189 -0.0203885 0.00636509 -0.0107724 -0.0168433 0.00656219 
-0.0103133 -0.0212843 0.00684189 -0.00986459 -0.0190463 0.00601341 -0.00904189 -0.0172574 0.0053465 
-0.0141343 -0.0191347 0.00735153 -0.0136397 -0.019573 0.00928224 -0.0121248 -0.0183025 0.00963253 
-0.0119182 -0.0203211 0.00840763 -0.0117407 -0.0184033 0.00766537 -0.0111106 -0.0166514 0.00885489 
-0.0104632 -0.021481 0.00921036 -0.00999545 -0.0196288 0.00800929 -0.00872823 -0.0221868 0.00768402 
-0.0122463 -0.0205169 0.0103827 -0.014494 -0.0189303 0.0116514 -0.00567532 -0.0206189 0.00507396 
-0.00364263 -0.0212942 0.00567255 -0.00601829 -0.0231267 0.00471756 -0.00442775 -0.0183946 0.00473635 
-0.00774985 -0.0208188 0.00496437 -0.00746041 -0.0187972 0.00554987 -0.00603176 -0.0170684 0.00522483 
-0.00397888 -0.0235169 0.00514425 -0.000689364 -0.0219634 0.00513763 -0.00556766 -0.0188466 0.00657225 
-0.00767089 -0.022559 0.00600519 -0.00720392 -0.0167908 0.00718897 -0.00235492 -0.0236829 0.00636759 
-0.00754074 -0.0204865 0.00746564 -0.00515587 -0.0208882 0.00734326 -0.00806418 -0.0184648 0.0079373 
-0.00523084 -0.0170546 0.00743066 -0.00666289 -0.0229995 0.0077347 -0.00612472 -0.0185449 0.00853256 
-0.00640068 -0.021213 0.00938034 -0.00444957 -0.0232157 0.00715054 -0.0081951 -0.0224122 0.00969268 
-0.00512165 -0.0228283 0.00902713 -0.0046001 -0.0196091 0.00971558 -0.00419818 -0.0174324 0.00974278 
-0.00305447 -0.0221371 0.00841003 -0.00188099 -0.0237768 0.00842302 -0.000691966 -0.0226575 0.00723003 
-0.00257182 -0.0214046 0.0102519 -0.00339764 -0.0235842 0.0100173 -0.00110707 -0.0195545 0.0114256 
-0.0032872 -0.0186702 0.0111152 -0.00651738 -0.0230785 0.0106754 -0.00482959 -0.0212895 0.0109753 
-0.00117258 -0.0233546 0.0102687 -0.00110661 -0.0167185 0.0110954 -0.00419014 -0.0166433 0.0116181 
-0.00454456 -0.0234226 0.0117116 -0.00120425 -0.021742 0.0117107 0.00165375 -0.0195926 0.00433069 
0.00495018 -0.0209615 0.00396525 0.00285071 -0.0228695 0.00401359 -1.15571e-05 -0.0238433 0.00546895 
0.00280684 -0.0179882 0.00484979 0.00531489 -0.0232708 0.0042521 0.00689392 -0.0181984 0.00418658 
0.00469298 -0.017145 0.00458984 0.00314246 -0.0209326 0.00538353 0.00603157 -0.0209045 0.00567651 
0.00439193 -0.0192094 0.00552848 0.00128136 -0.0215656 0.00590821 0.00362785 -0.023569 0.00602561 
0.00643069 -0.0166239 0.00676966 0.00606505 -0.0229434 0.00609471 0.00791373 -0.0189898 0.00621996 
0.00587262 -0.0190946 0.00689246 0.00382957 -0.0214614 0.00728392 0.00156889 -0.0233021 0.00692215 
0.00767535 -0.0208399 0.00700401 0.00351298 -0.0194526 0.0075132 0.00462377 -0.0232931 0.00781016 
0.0017939 -0.0215292 0.0079369 0.00549369 -0.0208161 0.00819699 0.00258054 -0.0173121 0.00875914 
0.00701035 -0.0190104 0.00869497 9.41104e-05 -0.0218579 0.00970668 0.000318244 -0.0237812 0.00875989 
0.00252117 -0.023715 0.00892274 0.00429081 -0.0184732 0.00933161 0.00531413 -0.0168712 0.00870084 
0.00670591 -0.0226244 0.00800687 0.00821916 -0.0206423 0.00896679 0.00283706 -0.0214204 0.0098583 
0.00800583 -0.0225305 0.00997282 0.00490822 -0.0221683 0.00960535 0.00133028 -0.0166463 0.0103406 
0.00223239 -0.0194513 0.0102622 0.00558143 -0.0200166 0.0102273 0.00631964 -0.0178485 0.0101819 
0.00366695 -0.01674 0.0105299 0.00060309 -0.0206572 0.0114684 0.00114642 -0.0236607 0.0108124 
0.00754332 -0.0203527 0.0110812 0.00402226 -0.0190493 0.0112485 0.00231688 -0.0217144 0.0119262 
0.00427886 -0.0213812 0.0113784 0.00634504 -0.0229883 0.011055 0.00383285 -0.0235912 0.010613 
0.0112087 -0.0209247 0.00458413 0.0132948 -0.0181488 0.00397718 0.00880168 -0.0222905 0.00536155 
0.0103847 -0.0170067 0.00545622 0.00972681 -0.0191552 0.0048481 0.0154896 -0.0182228 0.00589087 
0.0131615 -0.0199353 0.00525703 0.0107369 -0.0213018 0.00661385 0.0134938 -0.0179818 0.0062819 
0.0111922 -0.0183926 0.00667658 0.00852736 -0.0177045 0.0101706 0.00883699 -0.0182044 0.00801201 
0.0165601 -0.0171803 0.00726365 0.00911087 -0.0221018 0.00792821 0.0157337 -0.0174237 0.00910973 
0.0124621 -0.0203048 0.00738767 0.0144459 -0.0190831 0.00767721 0.0109262 -0.0187361 0.00867951 
0.014555 -0.0188953 0.00977844 0.0129745 -0.0200897 0.00937434 0.0108891 -0.0208395 0.00889466 
0.00958672 -0.0195198 0.0101941 0.012094 -0.0182628 0.0107119 0.0155087 -0.0182401 0.0115281 
0.0137204 -0.019513 0.0115807 0.0118794 -0.0205209 0.0113048 0.00975366 -0.0215775 0.0104423 
0.00961909 -0.0175051 0.0118787 0.0134471 -0.0173158 0.0118636 0.016824 -0.0167979 0.010809 
-0.0178973 -0.0157175 0.00631545 -0.0184357 -0.0150723 0.00440422 -0.0211514 -0.0105651 0.00420924 
-0.0198133 -0.0132509 0.00452148 -0.0221977 -0.00893193 0.00484259 -0.0192297 -0.00956131 0.00460847 
-0.0190278 -0.0140293 0.0062073 -0.0206959 -0.0118613 0.00577788 -0.0216841 -0.0101953 0.00633492 
-0.0186559 -0.0120625 0.00597833 -0.0177626 -0.012905 0.00436265 -0.020008 -0.0129663 0.00762289 
-0.0206592 -0.00859075 0.00715856 -0.0197334 -0.0103729 0.00676266 -0.018467 -0.00882189 0.0066844 
-0.0179047 -0.0105352 0.0075782 -0.0175133 -0.0106134 0.00512792 -0.0174916 -0.013186 0.00731208 
-0.0189123 -0.0145336 0.00828364 -0.0196944 -0.0130311 0.0095978 -0.0209227 -0.0114931 0.00996505 
-0.0210388 -0.0112817 0.00797619 -0.0219789 -0.00951952 0.00841993 -0.0204445 -0.0086153 0.00956039 
-0.0218733 -0.00978349 0.0104061 -0.0194179 -0.0104891 0.00888691 -0.0185899 -0.00850667 0.00877243 
-0.0180515 -0.0120883 0.00893491 -0.0176383 -0.0102041 0.00979845 -0.0173751 -0.00822152 0.0104155 
-0.0189537 -0.0146781 0.0104939 -0.0201413 -0.0126328 0.0115206 -0.0212213 -0.010945 0.011904 
-0.0212405 -0.00840333 0.0117258 -0.0196376 -0.0102538 0.0108898 -0.0192473 -0.00834431 0.0113434 
-0.0179291 -0.0128758 0.0107834 -0.0176542 -0.0103585 0.0118115 -0.0126293 -0.0157942 0.00623742 
-0.0147348 -0.0119894 0.00431972 -0.0156366 -0.0101874 0.00458383 -0.0132907 -0.0105881 0.0044044 
-0.0147292 -0.00841247 0.00480519 -0.0161732 -0.01453 0.00543317 -0.0141847 -0.014724 0.00536474 
-0.016599 -0.00868742 0.00556076 -0.0163399 -0.0120668 0.00602775 -0.0145962 -0.0109614 0.00611304 
-0.0123883 -0.0118536 0.00582614 -0.0107683 -0.0145785 0.00507813 -0.0100976 -0.00832008 0.006095 
-0.0104481 -0.0105384 0.00581056 -0.0159941 -0.00988022 0.0070634 -0.0126483 -0.0136984 0.00698192 
-0.0144862 -0.0129521 0.00652909 -0.0105673 -0.0124342 0.006623 -0.00890607 -0.011081 0.00721861 
-0.0161013 -0.0116791 0.00806002 -0.0166153 -0.00888473 0.00868485 -0.0160017 -0.0115935 0.0101087 
-0.0112429 -0.0145144 0.00949551 -0.0112271 -0.0150501 0.00753146 -0.00998556 -0.0124456 0.00859465 
-0.00921862 -0.0145058 0.00824724 -0.0086022 -0.0153404 0.00593949 -0.0165466 -0.0120712 0.0119867 
[...]
POINT_DATA 5997
FIELD FieldData 7
id 1 5997 int
3945 5108 5902 2383 1482 830 3256 2337 2932 
4447 449 3529 183 2687 1969 4127 1868 5343 
1131 5633 455 253 147 1175 3264 1538 4057 
1539 685 3075 2970 1075 5066 5224 1243 2074 
3341 5694 1644 4440 3751 4740 5878 3327 2213 
4292 2266 4250 4119 1786 1756 3386 4217 1919 
1830 2009 3464 6009 5488 370 780 866 2453 
1579 3417 670 2273 5158 1045 200 292 4661 
5352 5928 3898 1203 1563 3612 1571 4954 5696 
4467 853 2607 5144 3837 5873 2816 1258 5791 
5332 1877 4669 5866 3007 4088 2588 4935 2271 
1953 795 5525 1358 644 3378 2652 5277 5321 
3565 1276 5603 5960 4738 815 5211 5019 963 
3759 1591 4266 3060 1300 433 3539 3 5933 
4995 2366 5292 2424 4313 4307 5491 6065 5540 
4959 4187 5582 226 330 599 1440 541 241 
290 5022 4908 3391 5908 5914 781 3279 3526 
5163 5739 3423 473 1394 4320 1920 3381 3063 
3081 372 3262 5156 2157 1320 4081 3336 2434 
2248 2541 2147 629 4291 863 5498 3131 3919 
3827 3552 1183 5068 2678 2529 885 3055 5260 
4160 4920 921 2762 3146 3420 1993 1019 6066 
4468 3640 214 5424 1843 5700 3781 1779 1801 
4781 1939 470 3928 1147 2324 4 1142 1650 
3414 5183 446 692 1992 3831 2502 982 3104 
5284 1584 1113 3656 1638 1577 2787 317 1231 
4709 1885 5785 4789 163 3671 197 1580 2788 
1501 233 2436 2190 2023 5135 1207 2417 2876 
5447 4231 1307 2421 5768 5552 5157 2569 2707 
3939 2520 4509 2230 2044 2560 1215 1136 2966 
2598 5824 2188 5099 953 5241 2128 3297 401 
2387 3259 3108 520 4080 5372 1718 4218 3234 
148 1032 5792 3200 5333 2655 244 4724 2982 
715 1010 3001 5435 2043 2011 1525 4699 1714 
289 2212 1433 3263 1813 4951 260 909 339 
659 956 1954 4779 1188 2454 3469 118 672 
2067 4241 3062 643 699 3537 2320 1101 2463 
5708 1120 3644 1343 5057 5911 2371 4524 4660 
3032 422 211 2252 3787 591 1346 2309 2906 
219 1702 4723 3078 3768 3085 805 4001 2718 
5195 2837 1201 456 3358 3471 2471 537 3544 
3685 2485 1507 2496 750 987 4999 1049 1542 
2916 1632 5005 1511 30 2903 111 3228 2491 
434 3635 2448 5289 4194 3871 3014 1351 4146 
1925 2647 1117 716 529 1453 4842 735 544 
5868 1907 2596 2191 4379 2808 4344 4512 1329 
1373 539 2028 5064 1193 2216 634 1895 2292 
5699 1572 2814 4691 2376 143 3440 1209 1790 
1130 1435 557 2262 4845 2418 3178 2682 2341 
3842 5102 3272 1235 2953 2432 1093 3008 3657 
2153 3497 1071 2844 867 3329 998 3135 3410 
3426 463 4240 3558 1874 3006 3782 5504 851 
4586 3578 1218 1905 1598 2111 5681 1315 93 
6045 508 1725 549 3489 4063 4615 1578 2661 
3010 3756 3298 5704 2223 4784 4618 2233 2960 
6039 3475 719 5879 5403 2294 4745 5712 5235 
5894 2275 1808 5732 2590 5361 1250 3437 5641 
5234 5281 756 5297 812 5013 4419 2018 5122 
5857 3942 3453 5926 4711 5627 4522 4526 4733 
3412 4657 3783 4626 4855 3668 2854 4912 4831 
5038 2635 4865 3100 5781 1532 5376 2406 3915 
3476 2824 1129 1284 5836 5909 1199 5600 797 
2186 1388 5050 5279 4706 1917 2552 4299 3299 
2841 3760 569 4378 4274 4780 2991 4650 3761 
3926 4402 5329 5084 336 4962 3882 1989 6061 
5219 1773 3733 5105 2961 462 2183 4769 4983 
288 2359 1245 5558 4748 3792 5981 3115 3709 
1575 1316 4486 3225 182 2835 2778 3328 5467 
955 2285 2533 3364 1461 2026 3564 1660 1823 
5453 1924 5245 3948 2848 250 1908 2576 1711 
4074 3848 5838 6005 4139 2507 2347 5653 4826 
3071 4190 4974 5774 3973 1941 4463 5336 1596 
1411 2478 3678 3816 3138 297 300 2333 4388 
424 3424 5587 1681 576 3067 3029 1164 5842 
4438 1657 3033 1983 5030 4025 516 5315 4914 
4153 1238 3519 5890 4389 562 5070 3943 2331 
5092 2859 2279 2362 1679 2361 2929 5598 337 
3634 3242 5493 2804 2751 3045 1310 3893 3949 
3091 1566 5100 240 1844 2085 5519 1884 2409 
1309 4837 1876 5169 350 3493 1990 831 895 
1137 691 3658 5938 5670 5793 952 2020 3625 
4098 2602 3976 4828 2272 5646 2668 2895 3853 
4648 2174 906 1083 2575 5802 2761 2622 3409 
374 431 1691 3870 826 2651 3369 3189 4790 
2825 1850 821 3305 1550 2146 4006 5354 437 
5214 3141 1615 1940 1726 4151 2080 3736 1196 
3808 4856 5231 82 3563 2032 296 1354 1466 
2905 3904 1387 5980 4439 5188 4820 235 2506 
1752 1688 3862 4975 5534 1861 1280 881 11 
3740 964 5721 2512 2618 2164 679 3692 5724 
2145 3720 1285 1408 440 2165 1896 3593 31 
34 1968 1400 689 2836 507 4816 1230 3746 
989 3018 3738 4815 824 800 1829 4158 1263 
2244 4381 4749 1592 4919 568 86 353 5481 
1410 3153 3711 3984 397 285 2868 3151 1124 
295 882 180 844 534 481 5913 4731 5917 
5692 4850 2540 54 485 487 65 1856 1197 
2451 784 4883 4433 3559 4141 4518 3181 5747 
5621 4040 452 1505 4791 5089 509 1746 2327 
4262 4942 301 5702 4495 5589 5323 5872 4574 
184 168 1227 4162 2941 1912 4264 2172 37 
2016 4525 1007 994 5200 3433 4315 811 2694 
5575 5662 5705 3465 3017 3530 1296 326 1060 
1670 403 2263 5678 3195 5683 1419 2274 4605 
4633 5875 589 4469 3278 2613 2714 1105 4786 
6054 1119 2127 5564 5055 4985 3407 1668 4420 
5452 2734 4982 6023 3684 5949 5461 4964 4078 
970 3806 3981 5360 4197 3785 5614 2720 704 
3496 3879 4413 2322 1398 1677 4327 899 16 
5042 5765 4484 1050 4922 2907 5987 4943 3307 
3713 3700 2642 3698 5639 4960 595 4227 1077 
4839 5399 234 3292 1425 4880 1855 5760 5672 
4695 4679 2872 4594 2756 316 2069 1455 527 
4606 4504 4797 992 69 3588 4665 5955 3444 
1255 3823 4212 1134 5734 5742 3968 3393 4751 
2928 3390 5111 5082 787 621 1545 2503 6052 
5817 4443 1878 1369 1664 1039 1062 3648 4321 
4941 216 3430 4570 5977 4357 5975 1141 2442 
5255 1906 3892 5172 2013 2641 177 5496 4409 
4004 6038 4681 2723 3994 5350 5790 472 5265 
283 1108 833 5131 5254 2823 5145 3171 2878 
1962 5942 4446 2834 2796 3540 2498 3235 4852 
4542 4947 4335 2662 3881 4843 5185 5004 2056 
1481 4523 5380 4064 3666 1747 1375 5339 4721 
5744 3800 1738 6008 712 1519 3237 1344 3031 
3182 2103 87 409 4888 1624 3859 2820 5487 
461 3535 2426 5635 2674 1828 4913 5240 4282 
1169 4873 3754 2831 5995 4350 2741 102 5953 
2528 624 5932 1570 2354 5936 5341 1806 3596 
4934 5531 5521 2845 4783 2288 3222 2315 1684 
1447 5830 2987 5827 1716 108 5434 4047 4452 
6022 3345 3649 1934 2530 314 3669 130 4056 
165 1710 2298 5832 1863 5021 2149 70 765 
894 4408 5578 1560 3880 2270 5923 1612 4346 
5759 5509 5476 580 5175 3921 1274 1056 5208 
3220 2046 757 893 198 5229 5771 5425 533 
2518 5950 2308 3887 3722 1160 5008 3954 1139 
2746 4508 5088 5523 4520 5812 3197 4727 3613 
4390 1371 5971 6033 3101 3218 4281 19 5515 
5871 5669 521 3439 3144 5666 1867 120 4544 
524 3016 1018 2867 3027 4517 4034 5396 5134 
4488 2525 5217 4624 5660 3858 3861 4288 1328 
1396 874 5468 2246 5159 3769 1102 27 2295 
4268 84 2443 5570 4668 979 3676 5686 1552 
1362 4271 2094 1685 406 3727 4196 2170 5709 
3405 5695 1882 4591 5602 809 3847 5272 1533 
2168 897 3753 2392 3820 968 5381 6068 5557 
1959 5825 280 5053 5406 4095 2619 2060 5085 
4165 834 5369 4442 3956 5362 4135 4933 5062 
5748 1516 1442 4453 2352 3850 3675 2988 2428 
3982 498 4458 5754 4373 2640 3245 5320 4775 
954 4560 486 3334 2860 1515 1431 4821 3477 
1467 4245 5387 1600 204 5937 3963 1890 2563 
264 5904 2639 6007 1014 1847 2441 933 4371 
5590 3854 3365 2791 164 4732 3429 658 4988 
6021 5745 1740 2779 822 767 872 1809 2119 
3021 4519 306 5601 5119 2936 5624 3799 6051 
5271 4171 75 2405 1991 648 3494 1921 2440 
342 4671 1264 4559 1944 5849 1144 5139 3248 
3924 5856 3748 5828 5204 5222 5884 5056 5357 
2391 5421 3576 3680 4521 5353 275 5115 5862 
3209 1822 1311 5508 3066 1485 741 4249 2780 
1527 3875 817 3009 4372 2585 1279 4148 5555 
2685 451 5416 3116 5342 1405 4932 1392 24 
2713 4795 661 1772 103 144 722 458 465 
2636 4049 1417 4643 3425 2735 3201 640 4259 
570 2595 1013 46 1755 799 2765 818 702 
2705 5413 5176 578 820 76 1444 1125 1239 
213 773 5618 920 286 1282 113 471 5359 
2777 5711 1312 5794 5392 1981 5155 728 105 
961 5410 2955 4616 3303 2484 2430 4766 4479 
2177 2284 5723 2199 1696 4126 2511 1034 3747 
2913 2286 2827 559 4871 3366 2900 1569 2587 
5934 3276 5869 5944 2691 1298 2435 5466 2479 
1024 768 190 3826 1587 2725 3482 2888 3377 
4485 1966 2939 2375 415 3042 4451 3290 5852 
2536 4102 4265 1883 4122 2686 1964 2012 928 
1335 4189 2210 4918 2919 4105 2494 5221 2615 
1513 868 4222 2721 4730 1701 3599 1029 2771 
3731 5358 4938 525 4787 1626 5378 986 635 
608 631 999 1027 1061 5196 5471 5580 2614 
3619 1700 5577 4415 5988 3616 616 3543 5584 
5472 4421 3654 3974 3737 4761 3316 1352 4436 
3705 1503 1445 1864 4773 1181 3413 2584 3035 
3605 2373 2356 4808 2828 1911 5823 5919 4827 
389 1870 620 4993 2934 4807 4955 3767 3399 
4336 5355 4532 231 1216 1860 3318 5886 1040 
6035 5667 2881 4489 1374 1914 3054 311 888 
571 2481 3102 2302 886 5854 919 1246 1764 
3797 3845 869 523 4555 2487 1522 5444 4621 
3630 884 5789 5799 5120 2242 5770 5365 4053 
13 1655 5268 3608 320 464 3057 1005 1686 
1723 2330 2081 4763 2206 2311 4830 3790 4493 
6056 5047 1324 1064 4359 1699 2846 4193 2264 
447 4224 769 3170 5216 1022 614 3268 1706 
698 1687 2898 3080 6025 4017 5127 5541 3219 
265 4473 3632 5029 1015 900 5520 3360 518 
1945 4946 687 5611 3570 4115 5701 2116 3660 
3905 2524 3194 2570 5855 174 3574 3631 2915 
4529 3411 4345 1033 2098 4862 252 1429 1760 
3571 4275 2419 2663 1742 3294 3443 3449 1698 
3527 5630 352 195 3538 828 1653 3397 2468 
3645 5870 1270 1090 3661 4547 1046 2863 3965 
443 4774 1249 3134 5220 3557 6057 5532 931 
4792 1162 2783 5990 127 5168 2499 2532 1922 
668 3333 2789 2767 926 2885 1127 4578 1237 
4822 3309 122 344 1002 4397 5006 2290 3065 
2838 1936 1302 2933 1449 1379 5877 1361 2303 
2438 2744 3885 883 758 917 6036 4235 1753 
4829 1114 1261 3712 802 5258 5316 4905 4237 
4631 1787 5420 4956 4944 5015 5206 5182 4675 
5628 4216 4610 5592 4286 3265 1478 3566 4348 
2423 450 2795 1557 3643 5507 860 3240 1240 
669 3615 5133 1150 2794 3694 936 5051 1096 
50 4375 4799 2708 1404 4600 1378 5749 4717 
3073 5893 2543 3886 4540 3937 4103 3168 5340 
5486 5605 5474 5596 2115 2677 5688 2727 2658 
2014 2476 3002 3317 2208 4965 1326 801 4289 
2514 3533 4777 4584 694 4418 1960 4719 2742 
242 4252 2954 947 117 2087 3284 1278 3958 
3232 5033 941 3677 2792 1672 38 1717 3672 
604 4967 3148 224 3099 782 2251 4045 429 
513 5512 3466 1259 131 355 3402 4623 3547 
4889 3947 365 1174 169 3152 3961 4179 5958 
3136 5859 178 2624 1488 5052 4911 4180 4370 
3158 753 185 230 2064 3164 4674 1204 2197 
393 494 647 794 1815 2938 2559 3013 2617 
5436 501 2817 4082 2521 1219 5173 2470 2995 
1225 3275 1581 2670 2381 3118 2138 2958 413 
2254 1548 1497 2318 623 3432 4886 3828 3724 
399 4796 2657 503 2628 3900 566 981 5931 
1998 62 3846 8 2855 4043 1720 594 17 
5370 2001 3460 2457 1325 2256 4897 846 273 
5383 2351 1070 526 247 1504 1663 622 1465 
4112 1536 5262 279 1782 5755 302 5927 3524 
2090 4530 1518 3353 4806 4916 5263 2109 2455 
3664 4602 5132 1631 3702 5239 4431 1534 6053 
3221 4175 4367 3211 3217 5334 2416 5619 3852 
3455 4087 162 4460 4496 5983 4278 2893 3269 
2819 686 5680 3780 3772 3667 3445 4673 4238 
2299 3502 3556 2790 3202 5818 2134 4579 3721 
1797 5113 3422 2374 2666 3169 5778 3096 4414 
1253 938 4457 1950 5395 1412 4760 5097 2643 
1766 4481 5327 560 5347 5954 3869 2519 6024 
5484 4164 4008 5530 5625 2477 3843 2650 2833 
5023 2203 1469 4061 5384 2446 4177 725 3064 
2699 656 959 1054 2287 639 1476 3427 1421 
5073 2583 3462 4092 3041 3079 2329 2261 1871 
3351 4963 3077 3047 1619 2113 3622 1873 4640 
3798 5548 4587 5835 3716 5533 4895 5079 4111 
3052 1633 2394 81 3431 5640 3888 3130 3368 
299 2755 2586 2156 375 2625 2360 1146 3199 
5477 2768 3523 3857 819 255 1510 2480 478 
2959 3597 4356 3332 5652 3595 879 2696 1854 
3726 2882 864 3059 790 2304 2500 4910 5513 
4097 4772 3036 2501 5516 3744 1846 1454 664 
5539 3348 4013 650 3577 5454 2620 2389 976 
5049 1356 528 1661 4550 3971 2902 2300 1086 
1340 170 3286 1244 2971 5129 4417 2815 1323 
3997 2465 4374 3375 4702 2227 4872 710 1675 
368 1792 5377 2489 3501 3330 5104 1000 1386 
4101 5191 2369 910 4174 5661 2222 3723 2527 
603 2580 545 4492 1594 3315 957 1347 4205 
3149 663 740 99 693 2490 2890 845 257 
3127 4270 930 2748 2353 2738 313 2021 2129 
2637 859 1359 2942 4459 310 248 862 1170 
2108 1707 1178 2139 4109 2473 3180 3166 5427 
1649 72 4306 3814 4475 223 3758 610 3124 
4107 2578 3876 5275 4713 2004 5460 727 1595 
684 1314 4590 5750 3313 2852 2015 1026 5566 
1840 1265 626 651 145 259 1901 1372 3384 
4557 318 2605 5546 5422 1606 3236 2621 5867 
1810 5689 1565 3208 3849 4990 3805 5018 3766 
3495 4729 2039 4206 2037 1576 4582 4505 2810 
3474 3301 4979 3363 2800 4535 3618 5956 186 
4272 1826 4386 4123 709 5673 3686 5881 4406 
5130 1899 5270 3741 1689 2049 4037 3883 5518 
4382 4283 6044 3321 3253 5286 1212 4048 3447 
3461 5494 85 1269 3572 5536 4770 5338 5242 
4338 5970 3046 1937 4428 645 4334 2732 1437 
913 6011 6058 3109 5727 5967 1948 3039 5899 
3359 4812 3911 1154 3283 2940 4462 2003 5593 
1833 5170 4834 5796 850 1473 158 5373 151 
2675 3687 3987 4046 2599 5895 3322 4472 1656 
3300 5218 2979 3818 6015 3917 1671 5003 2591 
1271 759 2864 4891 5698 1529 2894 5095 2616 
4295 3260 6055 3626 4362 3689 2358 3408 673 
363 2181 4099 4157 1546 2493 6031 3763 3072 
5492 1881 4243 675 5041 5081 5110 5714 5404 
5984 3929 4541 5529 6000 1793 4366 3162 1683 
5735 4014 504 4407 2951 2806 5682 2896 349 
5256 1973 3398 3128 5415 4857 4072 3481 3545 
5031 3673 5048 5114 2467 3998 5394 4308 5865 
3451 1994 4931 4285 5253 2645 1471 4208 4325 
5586 1535 4630 1665 3044 5246 2072 4130 3395 
3542 1044 5638 23 585 5726 654 5882 1069 
2759 4854 3890 5462 141 412 1418 774 5905 
5269 1955 4921 1821 324 4337 5440 5786 5674 
3832 4242 4561 5897 609 2344 3504 1915 4133 
1095 335 5615 4358 1715 2161 2944 3051 1256 
4720 5720 5283 5274 5743 5668 3450 806 232 
4511 5251 574 4767 843 3655 5527 5851 1506 
1053 3338 4331 2910 2078 945 793 5226 1724 
1202 5450 5889 2996 3179 5345 5502 567 5151 
1763 4757 4801 1597 1292 208 2737 1319 4376 
4067 2969 5813 3824 4736 3473 1831 5554 421 
1620 3742 3550 3020 5408 2214 929 5722 5757 
4620 4178 2152 3204 5783 4803 5414 3403 3145 
5499 4627 5581 42 5880 4601 1341 1634 4028 
5061 4434 3288 5636 1727 1531 1085 5078 2314 
4483 5298 3975 1452 4863 2606 3706 3703 5296 
1743 803 927 4538 2024 1409 1414 2610 5845 
1929 2217 5966 2851 1568 1737 3707 4149 1819 
1403 436 3789 2901 561 4989 3517 2231 2236 
3392 2305 2141 3446 4902 1517 376 2357 1611 
1439 3592 2589 923 5368 400 5610 2948 4697 
1133 2850 2733 2930 3347 3581 937 358 2061 
3005 1547 2887 3147 3213 3355 3342 1909 892 
3419 1441 2348 1122 5945 3562 4658 1750 1832 
3560 3457 4070 2155 1514 3528 1283 411 3196 
4741 2404 536 5309 4323 2623 1975 1674 1852 
1918 1946 5267 1849 3216 5386 2989 1277 2092 
3241 744 1712 6047 362 3249 5522 3600 1601 
2257 1923 4203 5400 1780 5290 2097 4341 3335 
2238 4734 272 1800 5464 4612 739 5853 3175 
4251 5317 2123 5160 5098 555 448 4125 1012 
4811 2709 1875 1879 4229 1229 5659 3070 1588 
1180 2401 1730 1368 1862 786 5994 972 5634 
109 1692 100 2143 2260 5816 3585 3306 2042 
6013 1330 2924 445 4170 3193 535 4516 2241 
4470 5174 4084 4632 5803 1625 2265 477 4528 
2243 3479 538 222 5650 1616 1528 107 124 
2809 2492 4478 988 1081 2556 5177 4554 3953 
3434 746 3642 1430 2036 4347 832 3498 5591 
1562 1530 1121 743 814 2609 3647 2030 996 
2703 160 2412 1500 550 1958 974 4771 5096 
1041 4383 2573 1470 2956 4847 1776 2883 3126 
2365 4031 1366 807 2437 3935 3040 1140 1623 
382 325 3966 4117 2475 5769 4301 5649 3745 
542 5809 1608 3962 1748 2886 2858 3979 4753 
3897 2488 4858 4068 2908 495 840 2150 4352 
1321 890 633 2204 1028 3878 1537 3337 3252 
597 4762 2130 1336 5000 2269 5266 2909 2277 
5480 2278 575 1459 4882 1332 2466 2280 2600 
5063 135 3514 95 4191 723 3977 1042 4124 
3478 1222 466 4399 4556 3121 152 5717 254 
4664 3421 159 3448 4768 4866 2370 5594 1640 
3123 5482 4737 3251 5876 827 2781 5346 2649 
5728 2730 73 2698 2068 66 4494 4841 139 
5039 5537 2235 2267 1099 4454 5622 5703 2237 
6 217 1185 405 2611 551 1357 1266 2120 
3840 1273 4311 1971 1841 1448 5763 4608 78 
2497 2189 4020 266 5819 3129 4957 5441 3688 
5337 1407 4558 5968 4984 4802 5228 3512 4054 
4649 713 1383 5758 5629 6046 5324 5991 321 
5930 5679 2802 718 4114 5148 4617 3941 2118 
922 5451 392 88 3346 3110 5663 4726 4143 
4498 997 2088 1652 4404 1731 5236 4846 5569 
4652 5136 630 5608 189 581 192 5178 155 
2513 925 3554 1017 3901 2695 5014 852 1043 
396 2053 453 262 2234 4351 4247 56 1267 
2151 4819 4328 2875 4448 3352 2627 1646 345 
1262 2745 5349 4258 3289 1008 3472 742 5730 
2095 5559 2769 5959 4840 5644 889 2829 1880 
3811 3325 2522 251 975 154 1777 2535 4991 
3034 5526 4641 2729 2121 1775 1382 3699 377 
5483 3082 3400 3591 4693 5553 4429 5428 5848 
4424 2414 4290 4688 5179 677 5965 1628 5106 
4722 5059 5198 3486 4778 4598 3825 2993 5892 
3553 2716 5116 3895 2515 3708 3004 5843 5943 
1512 5181 4593 4923 1353 5860 3323 1172 4395 
4236 5043 3531 269 4211 4572 416 2447 5382 
5009 1651 1635 499 3728 4899 1234 2332 237 
5563 2410 1669 1751 871 1892 2978 3518 2058 
4010 3732 738 276 3291 1682 2000 4645 4756 
5044 3159 1508 789 2653 4368 5074 153 5643 
2218 4577 5773 519 1065 1658 2253 2211 2669 
5542 1286 5261 2169 2803 3995 6004 2594 3822 
1956 199 4093 1339 4305 2693 2711 4089 1232 
3185 5215 1153 4868 4198 1390 977 4755 39 
338 5567 5976 5979 2712 3691 2750 1091 104 
3922 5310 4172 2676 752 3521 496 1165 2247 
2283 1728 3710 627 1424 1976 1639 1585 10 
5583 5797 1521 3311 4302 1177 2962 2205 2740 
1148 1233 77 1006 3940 5741 2200 3510 202 
3133 484 973 674 4639 454 1599 705 2612 
1463 2413 4969 4039 4825 1381 1187 1745 2459 
2717 3376 4506 4765 5910 5371 4824 5223 2975 
4907 4393 6070 5685 5314 1082 1609 4793 1123 
5094 5166 5632 3214 3725 2648 3899 6010 3053 
2458 2728 5419 2124 5190 3383 4059 4071 5431 
3468 3507 3665 5189 3874 5238 3191 5808 1337 
2159 5858 2899 3083 3589 2847 2832 2336 5072 
97 2566 4185 4465 6020 3048 2450 4754 4788 
5505 3137 2201 2943 4319 4853 5201 3459 5888 
4973 4870 5725 4545 4896 2495 5963 5922 1703 
5826 5989 3382 2005 2082 4981 2106 357 1494 
2923 5964 5907 4595 4836 1214 3025 2853 1637 
5374 3505 2952 1401 1472 2126 2547 1223 1158 
3396 2664 4976 4903 553 3012 3019 2629 788 
4156 5656 3633 4686 1413 3515 3520 522 4400 
2385 2339 3367 4744 2892 4033 1926 5814 5117 
6048 3734 4986 2544 3488 2572 2340 3207 432 
1036 3696 3817 5647 2545 3603 5562 2093 5829 
2925 2567 2408 133 2967 6067 3573 5751 4150 
1820 4563 4672 1291 3436 5821 2665 1666 49 
3331 5020 3176 512 3356 2710 5833 101 4500 
4936 3257 1630 172 3183 588 4885 3492 5834 
3206 2554 1614 1987 847 3525 4718 5597 5684 
1290 6030 3889 1526 1583 1391 1004 4638 1115 
4168 703 5544 1460 4683 4642 706 5485 5822 
4214 1301 1106 467 369 1067 1475 2564 5103 
3906 4225 607 5588 4835 4708 3931 2680 5775 
2105 6018 2784 5642 4182 2486 554 137 3349 
3864 3499 210 1490 3812 990 4497 5787 4800 
3105 808 5459 2444 4864 1159 5810 1474 4166 
1104 4585 5306 2464 857 79 2985 652 2593 
4312 764 5595 2558 2229 873 4100 5150 3614 
4441 841 3361 5952 3681 3508 3796 1802 2510 
3594 5313 187 1145 6037 2415 4622 282 5804 
5124 4154 3697 333 5411 1363 4096 5060 1970 
5303 4163 5154 5457 2633 5304 4716 1450 2731 
2328 426 4303 4076 2002 2973 5916 3150 2551 
3107 5430 1192 4339 3090 4152 5543 5733 4138 
4304 5071 3435 2010 2425 2644 1456 3026 4752 
5011 641 3833 5010 5259 3967 4075 2449 5401 
4900 4360 1997 5993 4435 4877 3978 5439 2786 
4273 3623 4277 4844 4776 697 3764 3198 3319 
5307 2420 530 948 5299 1768 2083 322 3038 
5442 3086 1942 6002 4678 474 5311 5025 5199 
4893 2963 5167 3624 4445 5863 1157 5475 5364 
2688 5501 3957 4254 4026 5766 1930 5524 3916 
5756 1224 1308 2880 838 2323 1009 52 3357 
4364 5613 3950 4998 4894 4712 5479 2033 329 
5764 5495 3243 1916 5458 924 5815 9 2861 
5305 1364 1613 1556 965 287 3418 1295 6001 
2660 6014 5034 4625 5738 5247 6026 3604 1708 
5426 1520 3955 1252 1770 2719 2509 984 584 
5961 4928 201 4573 792 2349 515 3582 967 
556 4950 5864 2980 5469 776 2700 1486 4725 
5691 3487 5330 4322 2793 3829 4113 3579 53 
3177 2715 1647 2862 1156 5230 4077 3458 2310 
3373 1436 2445 2706 1741 26 5693 1206 4629 
6042 3098 4354 5209 1967 5713 4038 3174 2041 
2921 4576 3205 1894 4131 1038 4276 2071 3030 
3456 5999 3534 4476 2679 3483 3173 2321 3933 
2312 5227 3516 4009 4694 2766 5535 319 1030 
813 3165 5840 5921 5718 5433 3106 1294 4548 