# vtk DataFile Version 4.2
Generated by LIGGGHTS
ASCII
DATASET POLYDATA
POINTS 105 float
-0.0149754 -0.0310362 0.00593712 -0.00271899 -0.0319573 0.00594396 -0.00873064 -0.032255 0.00600811 
0.00673148 -0.0323264 0.00623712 0.0116554 -0.0318135 0.00668629 -0.0232163 -0.0229387 0.00593692 
-0.0198392 -0.0278393 0.00626507 -0.0182495 -0.0212124 0.00599333 -0.0118102 -0.0278786 0.00602442 
-0.013331 -0.021045 0.00593689 0.00015824 -0.0269786 0.00593593 -0.00826787 -0.0208126 0.00593696 
0.00466362 -0.0279121 0.00595215 0.000875545 -0.0229532 0.0059527 0.012065 -0.0237364 0.00597857 
0.0166768 -0.0285023 0.00594279 0.0223659 -0.0251271 0.00600201 0.0272908 -0.0202452 0.00640232 
-0.0270086 -0.0133056 0.00595859 -0.0261396 -0.019895 0.00595537 -0.0209904 -0.0179781 0.00595537 
-0.0228048 -0.0122409 0.00593686 -0.018138 -0.0130357 0.00594856 -0.0130995 -0.015155 0.00594136 
-0.00876325 -0.0103683 0.00605718 -0.00713758 -0.0149035 0.00596083 -0.00249265 -0.0141248 0.00595052 
0.0054099 -0.0188645 0.00594971 0.00210891 -0.0123467 0.00593723 0.00744225 -0.0125382 0.00593592 
0.0103857 -0.0187466 0.00595496 0.0169583 -0.0146882 0.00593587 0.013668 -0.010286 0.0059467 
0.0202155 -0.0119296 0.00593598 0.0199774 -0.019204 0.00593814 0.02361 -0.0157697 0.00605659 
0.0298598 -0.0127909 0.00598676 -0.0313821 -0.0106012 0.00593845 -0.0328364 -0.00173293 0.00593546 
-0.0243228 -0.00607337 0.00594952 -0.0300329 -0.00576715 0.00641446 -0.0213206 -0.00327051 0.00594818 
-0.0267944 -0.0010861 0.0059359 -0.0177443 -0.00831527 0.00593626 -0.0117468 -0.00518867 0.00627089 
-0.0171573 -0.00360831 0.00597346 -0.0113848 -0.000205696 0.0061285 -0.00718152 -0.0066876 0.00594443 
-0.00193139 -0.00824858 0.00593583 -0.00524934 -0.000839875 0.00595101 0.00192656 -0.00335953 0.00601753 
0.00763955 -0.00568994 0.0059642 0.0058517 -0.00186699 0.00594571 0.0136063 -0.00558433 0.00604036 
0.018142 -0.0078342 0.00596441 0.0297818 -0.00773415 0.00595555 0.025964 -0.0100042 0.00593566 
0.0252906 0.00155607 0.00595705 0.0339148 -0.00632598 0.00595301 0.0309002 -0.00334206 0.00607101 
-0.0339448 0.00596828 0.00593601 -0.0317038 0.0026547 0.00593591 -0.0299762 0.00722967 0.0059859 
-0.0224024 0.000727342 0.00594054 -0.0262229 0.00929879 0.00594043 -0.0211082 0.00461232 0.00594028 
-0.0135065 0.00893411 0.00593658 -0.0179217 0.00875088 0.00606751 -0.00830152 0.00631568 0.00594097 
-0.00252859 0.00308827 0.00596388 -0.00264231 0.00890619 0.00593876 0.00130105 0.00173479 0.00615 
0.00392054 0.00714803 0.00605986 0.00735464 0.00485326 0.00617906 0.00990994 0.0102174 0.00594838 
0.0115796 0.00117023 0.00631156 0.0176923 0.00367512 0.00631639 0.0132807 0.00481407 0.00672132 
0.017756 0.00943446 0.00618755 0.0317373 0.00527204 0.0059881 -0.0313891 0.0118694 0.00593453 
-0.0243222 0.0174591 0.00623743 -0.0221061 0.00986102 0.0060348 -0.0159873 0.0173395 0.00604294 
-0.00721555 0.010695 0.00606804 -0.00541541 0.0181514 0.00595429 -0.000150266 0.0152175 0.00593737 
0.010542 0.0150039 0.00593767 0.0281858 0.0115301 0.00597154 0.0218376 0.0177462 0.00593704 
0.0263272 0.0154051 0.00602182 0.0307877 0.014774 0.00600246 -0.0205174 0.024981 0.00622531 
-0.0140059 0.0224904 0.00594505 -0.00976766 0.022419 0.00593802 -0.00538815 0.0235948 0.00593964 
-0.0107467 0.0262985 0.00653057 0.00230324 0.0291586 0.00681751 0.00764363 0.0239696 0.00600416 
0.0113966 0.0206606 0.00620665 0.0172639 0.0274994 0.00596501 0.021912 0.0224889 0.00611281 
-0.00430651 0.0332062 0.00596382 0.00655707 0.0323206 0.00634497 0.0116381 0.0305257 0.00602889 

VERTICES 105 210
1 0 
1 1 
1 2 
1 3 
1 4 
1 5 
1 6 
1 7 
1 8 
1 9 
1 10 
1 11 
1 12 
1 13 
1 14 
1 15 
1 16 
1 17 
1 18 
1 19 
1 20 
1 21 
1 22 
1 23 
1 24 
1 25 
1 26 
1 27 
1 28 
1 29 
1 30 
1 31 
1 32 
1 33 
1 34 
1 35 
1 36 
1 37 
1 38 
1 39 
1 40 
1 41 
1 42 
1 43 
1 44 
1 45 
1 46 
1 47 
1 48 
1 49 
1 50 
1 51 
1 52 
1 53 
1 54 
1 55 
1 56 
1 57 
1 58 
1 59 
1 60 
1 61 
1 62 
1 63 
1 64 
1 65 
1 66 
1 67 
1 68 
1 69 
1 70 
1 71 
1 72 
1 73 
1 74 
1 75 
1 76 
1 77 
1 78 
1 79 
1 80 
1 81 
1 82 
1 83 
1 84 
1 85 
1 86 
1 87 
1 88 
1 89 
1 90 
1 91 
1 92 
1 93 
1 94 
1 95 
1 96 
1 97 
1 98 
1 99 
1 100 
1 101 
1 102 
1 103 
1 104 

POINT_DATA 105
FIELD FieldData 7
id 1 105 int
5072 4382 5372 5464 5949 5065 5976 5550 4883 
5631 5392 5562 5443 4400 5787 5910 3500 5532 
5428 3795 5368 5745 5446 5557 5085 5516 5568 
5375 5793 5137 5801 5396 3308 5553 5874 5727 
5774 4913 5635 5807 5648 5013 5626 5663 5870 
5779 5639 5802 5586 5168 5197 5941 5708 5506 
5902 5945 5342 5744 5207 3145 5840 5311 4947 
5297 5595 5628 5226 4715 5084 5925 5811 5756 
5857 5236 5691 5861 5097 5973 5845 5180 5169 
4936 5892 5544 4701 5849 5347 5810 5966 5030 
5203 5379 4895 5862 5280 5664 5968 5555 4745 
5875 4987 5209 3657 5950 5724 
type 1 105 int
1 1 1 1 1 1 1 1 1 
1 1 1 1 1 1 1 1 1 
1 1 1 1 1 1 1 1 1 
1 1 1 1 1 1 1 1 1 
1 1 1 1 1 1 1 1 1 
1 1 1 1 1 1 1 1 1 
1 1 1 1 1 1 1 1 1 
1 1 1 1 1 1 1 1 1 
1 1 1 1 1 1 1 1 1 
1 1 1 1 1 1 1 1 1 
1 1 1 1 1 1 1 1 1 
1 1 1 1 1 1 
i 3 105 int
0 0 0 0 0 0 0 0 0 
0 0 0 0 0 0 0 0 0 
0 0 0 0 0 0 0 0 0 
0 0 0 0 0 0 0 0 0 
0 0 0 0 0 0 0 0 0 
0 0 0 0 0 0 0 0 0 
0 0 0 0 0 0 0 0 0 
0 0 0 0 0 0 0 0 0 
0 0 0 0 0 0 0 0 0 
0 0 0 0 0 0 0 0 0 
0 0 0 0 0 0 0 0 0 
0 0 0 0 0 0 0 0 0 
0 0 0 0 0 0 0 0 0 
0 0 0 0 0 0 0 0 0 
0 0 0 0 0 0 0 0 0 
0 0 0 0 0 0 0 0 0 
0 0 0 0 0 0 0 0 0 
0 0 0 0 0 0 0 0 0 
0 0 0 0 0 0 0 0 0 
0 0 0 0 0 0 0 0 0 
0 0 0 0 0 0 0 0 0 
0 0 0 0 0 0 0 0 0 
0 0 0 0 0 0 0 0 0 
0 0 0 0 0 0 0 0 0 
0 0 0 0 0 0 0 0 0 
0 0 0 0 0 0 0 0 0 
0 0 0 0 0 0 0 0 0 
0 0 0 0 0 0 0 0 0 
0 0 0 0 0 0 0 0 0 
0 0 0 0 0 0 0 0 0 
0 0 0 0 0 0 0 0 0 
0 0 0 0 0 0 0 0 0 
0 0 0 0 0 0 0 0 0 
0 0 0 0 0 0 0 0 0 
0 0 0 0 0 0 0 0 0 

v 3 105 double
0.036222619625 -0.04920713604 0.0064004015772 0.0057493141121 0.03846742823 0.0090881165252 0.037390536951 -0.072260045943 0.0019924144507 
0.054687027518 9.4759969545e-05 0.053816751517 0.020008821455 -0.0064092628117 -0.079414632564 0.0071448474148 -0.026988343754 0.0027453530549 
-0.016460939783 0.000106634949 -0.023432411572 -0.041590356358 -0.014721122542 -0.021130007091 0.03888438619 0.0011967015265 -0.02099706455 
-0.056897970075 -0.016909306559 -0.0063263776786 0.023927074995 0.093151054319 0.00021253576558 0.05295348499 -0.0062411457956 -0.0040930599428 
0.018604705544 0.03460598898 -0.005003341839 0.0059447388453 -0.061283016906 0.017885522129 -0.0072889403225 0.044946203055 -0.01125342216 
0.033874918804 -0.046299509712 -0.0011229164522 0.0072463970547 0.14153405128 0.02203921355 0.049348461115 0.0058595332737 -0.057562652033 
0.00060974558569 -0.038852712867 0.055395126043 0.0085247785818 0.004599463018 0.073405340651 -0.02734144748 -0.035582474286 0.010066348363 
0.032401845659 -0.034401511345 0.0026750139295 -0.0036919757164 -0.025539553299 -0.014154678687 -0.016599912044 0.045843938833 0.01406459834 
0.030078593622 0.022185774967 0.022874296024 -0.0061052410243 -0.0070421580863 0.011812820115 0.036328234689 -0.044297353688 -0.0069720622868 
-0.048029259222 0.037504092007 0.0018313034535 0.011920168914 0.020646606182 -0.00070871934022 0.079206533493 -0.0044332356649 -4.7138189833e-05 
0.031751634799 0.0174046849 0.0038598260782 0.065240211926 0.022582751845 -0.00052889926509 -0.019086190042 -0.0018665387698 -0.0075606715728 
-0.019821155582 0.074558493728 -0.00081657639601 -0.031185339773 -0.00052782517447 0.0033863750991 -0.028830422432 0.076390118479 -0.003203185134 
-0.003823199099 0.023498804518 -0.017265476099 0.015962141795 -0.058077722382 -0.0032166478321 -6.2447862131e-05 -0.041229981625 0.0058857270963 
0.004609538379 0.031218308103 -0.0011950634864 -0.051756298685 0.01216166227 0.012773859938 0.019434484312 0.059456692838 0.055855502239 
0.003195204591 -0.0075081800546 0.00015580907969 0.035996265366 -0.027755645489 -0.0025250501336 0.023852345142 0.015982051524 -0.013993486914 
0.045537578998 0.055877862467 0.0025610017245 0.052462365877 -0.002408214618 -0.038255152266 0.071174768997 -0.027277257975 0.0045487765007 
0.056534460887 0.011413195119 -0.015473379854 -0.075202862452 -0.062911409329 -0.029400991472 0.032617663165 0.090438174177 0.031833727907 
-0.014526133473 0.028126562396 -0.00084585622394 -0.032544020941 0.016443421999 0.0036263278006 0.088992922264 0.023762869695 -0.027673589609 
0.017490401975 0.0013293989206 0.10504055013 0.022616349189 0.067022957995 0.0087862730337 0.039181463514 -0.028947848941 -0.0087125446041 
0.06163638039 0.10749964798 -0.0046831010599 -0.013520878556 0.050110038907 -0.0003249441466 -0.0054165103119 0.03524593039 -0.027158891125 
-0.033889135962 -0.001529623263 -0.00079212827234 0.0091077434347 0.0081090743309 4.3370449006e-05 0.02357634883 -0.040036985791 0.043951399363 
0.0023966900261 -0.051001013025 -0.00458120823 -0.00063587313491 -0.011813758526 -0.010338378544 -0.04729954077 -0.045906553791 0.016054768468 
0.027524960813 -0.013820945533 0.023450372583 0.009041214132 -0.016507263313 -0.025322515624 0.054524450135 0.015289397158 -0.0040754978177 
0.02607435864 0.002428217048 -0.022207693542 0.029111202428 -0.026556444753 0.00048427444659 0.019162059362 -0.079738359271 0.068217198228 
0.027325859696 0.0019754335141 0.025264361977 -0.024485601898 -0.0239645026 -0.041737818232 0.017067580411 0.024748428608 -0.00093054546132 
-0.023215928135 0.059593532716 -0.05141152033 -0.020249728168 -0.083096692652 0.037330188395 -0.029648058116 0.038504420166 0.057546361376 
-0.024867819864 0.087106381252 0.098140983787 -0.03386673377 0.050243663621 0.0087973114641 0.017852778161 -0.048226175378 0.0095446646655 
0.029298299393 0.020623887681 -0.020716609398 0.013728404525 -0.014377376433 -0.020994796224 0.049861160928 -0.11232533477 -0.027552484435 
-0.023767081731 0.014234245936 0.02180617378 0.045882083716 -0.040827665998 -0.019180759341 -0.04380160738 0.032897202894 0.0091118279419 
-0.060468498313 -0.021055549328 0.039586372465 0.015814247923 -0.015618773689 -0.010061250719 -0.045546033248 0.017098506339 0.0086216033555 
-0.014704061323 0.0018861333798 0.019284567575 0.0026439831823 0.022722714411 0.045235411593 -0.036634401259 -0.0086841533901 -0.011850610645 
-0.01261181259 -0.065246594854 -0.0046898246086 -0.077665749211 -0.047920802519 0.038005292054 0.0025689312211 0.058907385583 -0.0026067228154 
-0.094743537884 0.049433180118 0.005878031033 -0.01940336662 0.0035552736376 -0.004633789329 -0.0096012774523 -0.0076458822492 -0.13502912425 
-0.068315186588 0.024139030938 -0.089160444144 -0.016847930617 0.049969817198 0.017947126762 -0.039034716121 0.059899204417 0.034851950617 
-0.102247316 -0.042264564406 -0.0048964602956 -0.12493946752 0.039751371533 -0.022048009442 -0.039815683782 -0.032863269092 -0.0025782944694 

f 3 105 double
0 0 -0.00082184063818 0 0 -0.00082184063818 0 0 -0.00082184063818 
0 0 -0.00082184063818 0 0 -0.00082184063818 0 0 -0.00082184063818 
0 0 -0.00082184063818 0 0 -0.00082184063818 0 0 -0.00082184063818 
0 0 -0.00082184063818 0 0 -0.00016925417705 0 0 -0.00082184063818 
0 0 -0.00082184063818 0 0 -0.00082184063818 0 0 -0.00082184063818 
0 0 -0.00082184063818 0 0 -0.00082184063818 0 0 -0.00082184063818 
0 0 -0.00082184063818 0 0 -0.00082184063818 0 0 -0.00082184063818 
0 0 -0.00082184063818 0 0 -0.00082184063818 0 0 -0.00082184063818 
0 0 -0.00082184063818 0 0 -0.00082184063818 0 0 -0.00082184063818 
0 0 -0.00082184063818 0 0 -0.00082184063818 0 0 -6.8877827382e-05 
0 0 -0.00082184063818 0 0 0.00068182085059 0 0 -0.00082184063818 
0 0 -0.00070084822316 0 0 -0.00082184063818 0 0 -0.00082184063818 
0 0 -0.00082184063818 0 0 -0.00082184063818 0 0 0.011543242937 
0 0 -0.00082184063818 0 0 -0.00082184063818 0 0 -0.00082184063818 
0 0 0.00012852176748 0 0 -0.00082184063818 0 0 -0.00082184063818 
0 0 -0.00082184063818 0 0 -0.00082184063818 0 0 -0.00082184063818 
0 0 0.0016407969436 0 0 -0.00082184063818 0 0 -0.00082184063818 
0 0 -0.00082184063818 0 0 -0.00082184063818 0 0 -0.00082184063818 
0 0 -0.00082184063818 0 0 -0.00082184063818 0 0 0.0056331688566 
0 0 -0.00082184063818 0 0 -0.00082184063818 0 0 -0.00082184063818 
0 0 -0.00082184063818 0 0 -2.4266569696e-05 0 0 -0.00082184063818 
0 0 -0.00082184063818 0 0 -0.00082184063818 0 0 -0.00082184063818 
0 0 -0.00082184063818 0 0 -0.00082184063818 0 0 -0.00082184063818 
0 0 -0.00082184063818 0 0 -0.00082184063818 0 0 -0.00082184063818 
0 0 -0.00082184063818 0 0 -0.00082184063818 0 0 -0.00082184063818 
0 0 -0.00082184063818 0 0 -0.00082184063818 0 0 -0.00082184063818 
0 0 -0.00082184063818 0 0 -0.00082184063818 0 0 0.055895970963 
0 0 -0.00082184063818 0 0 -0.00082184063818 0 0 -0.00082184063818 
0 0 -0.00082184063818 0 0 -0.00082184063818 0 0 -0.00082184063818 
0 0 -0.00082184063818 0 0 -0.00082184063818 0 0 -0.00082184063818 
0 0 -0.00082184063818 0 0 -0.00082184063818 0 0 -0.00082184063818 
0 0 -0.00082184063818 0 0 -0.00082184063818 0 0 -0.00082184063818 
0 0 -0.00082184063818 0 0 -0.00082184063818 0 0 -0.00082184063818 
0 0 -0.00082184063818 0 0 -0.00082184063818 0 0 -0.00082184063818 
0 0 -0.00082184063818 0 0 -0.00082184063818 0 0 -0.00082184063818 

radius 1 105 double
0.002 0.002 0.002 0.002 0.002 0.002 0.002 0.002 0.002 
0.002 0.002 0.002 0.002 0.002 0.002 0.002 0.002 0.002 
0.002 0.002 0.002 0.002 0.002 0.002 0.002 0.002 0.002 
0.002 0.002 0.002 0.002 0.002 0.002 0.002 0.002 0.002 
0.002 0.002 0.002 0.002 0.002 0.002 0.002 0.002 0.002 
0.002 0.002 0.002 0.002 0.002 0.002 0.002 0.002 0.002 
0.002 0.002 0.002 0.002 0.002 0.002 0.002 0.002 0.002 
0.002 0.002 0.002 0.002 0.002 0.002 0.002 0.002 0.002 
0.002 0.002 0.002 0.002 0.002 0.002 0.002 0.002 0.002 
0.002 0.002 0.002 0.002 0.002 0.002 0.002 0.002 0.002 
0.002 0.002 0.002 0.002 0.002 0.002 0.002 0.002 0.002 
0.002 0.002 0.002 0.002 0.002 0.002 
omega 3 105 double
0.64062945101 -1.0398363661 15.058657591 0.035407400774 -0.022863737267 12.080300237 -8.3978843817e-05 -0.0034707327009 -9.3031099274 
-3.7306234074 -1.4618467513 -7.6065445581 0.0014105331506 -0.0045606977253 7.4661770408 0.67661962695 0.81430341173 -6.8330311941 
-6.0349204714e-10 -1.1073342142e-09 -2.1661937612 -3.6654293923e-07 -5.7758782213e-06 -2.2974336617 0.8417545338 -1.4261671993 15.058100597 
7.7094527604e-05 0.0039626763161 4.9098464152 0.00018741087863 8.3309297036e-05 -4.2949765066 -0.0016296893055 0.021872558526 14.00933653 
-5.397315682 -2.2528793908 12.669012789 -1.5690275408e-168 -2.4985291742e-169 -0.46918513521 -0.1136432247 -0.081930637352 -17.985358253 
0.091091916493 -0.28084657841 -18.571255523 -0.0081303230216 0.010629693547 0.02501649235 0.0010161164281 0.00072097076518 3.5447025091 
-0.01661083064 0.059920860143 2.9340459034 0.21266937386 0.26401717519 -6.8265946838 2.7529332647e-13 -1.7526133726e-13 1.7770528572 
-0.14828524909 0.5949922411 -4.2578567729 -0.00012068886477 -9.4050629928e-05 -4.2257979263 3.906078651e-12 -9.9952479462e-13 1.6295500198 
0.0025915701328 -0.0010260994857 -9.6731971685 0.033776277085 -0.071403858373 -12.538423277 0.029758866466 -0.030518471806 -8.9570372707 
0.0013769384316 -0.007382171633 -3.9022460322 6.7743352922e-05 -0.00082482105876 4.3956221844 6.3324713447e-05 -0.00079400860173 4.3610886741 
-0.00011269455605 -0.0042048718736 -3.9835082486 -0.017568364518 0.008900917208 -20.468374144 0.00035337253614 0.00035024142567 -6.6663345328 
-0.53383978087 -0.85959631265 -21.839956356 0.00029908730887 -0.00024534581085 -4.1457394246 0.0070447544574 0.0037482109089 -3.0234396017 
-5.2129395216e-05 -1.1550805017e-05 -2.9520430764 -0.040503062406 -0.0049168716886 10.545631801 0.036638143589 -0.010950111085 -7.9810117959 
-1.540158265 6.5313581296 12.0667228 2.4911138575 6.058300669 20.121129437 -0.30314994255 0.36305266981 -6.0308410817 
3.1313368644e-18 -1.1335701577e-17 2.1071357737 -0.43697466555 0.076040273599 -8.3617360242 5.7937504013e-07 1.6923014734e-06 -1.2598527098 
-0.043838571999 0.010300806978 2.9551421966 0.032649949891 -0.1072840854 19.050453072 -0.064530007509 -0.26177746526 -6.3353723538 
0.0017786847704 0.00011363083631 -4.5574756051 0.031186591933 -0.013501177632 2.6788494044 -2.552728316e-41 4.9601664429e-41 1.5504497698 
-0.00012132572204 -0.0043256381593 6.8951143237 0.00012275108546 8.199370513e-05 17.893268894 0.00040490132497 -0.022976810853 6.9218715741 
-0.00021721248565 -0.00010740206092 -8.7648981082 -0.04246455315 -0.0076357478484 -9.3652254015 -0.0031564037669 -0.001532829301 -13.366474851 
-0.0018010155876 -0.00062819106632 -11.942156027 -0.02421179768 -0.0078913525659 5.7824734023 -0.025427597864 -0.017625172446 9.1744265719 
-0.5066203652 0.82555743345 6.2094920447 -0.02660856171 -0.068605286836 9.0991276534 -0.0029406527691 0.0067760981396 1.6457676468 
-9.3917949868e-05 5.6942457245e-05 5.674762559 9.4750958695e-06 -1.119285405e-05 -0.0457632234 -0.00030375937435 0.00017852843631 3.0863308125 
0.075150095619 -3.1105128411 -12.671942001 0.7975121247 0.961156513 10.61540996 5.5263643263e-05 -0.00016173171121 12.580142651 
3.4586933271 12.035260372 -13.53247977 0.013457777513 0.042926458211 -2.6913201825 -3.0648476872e-07 3.1076739189e-07 -1.3886634662 
-0.27299486431 0.15732187752 -8.4293757438 0.035161929525 -0.0099627687925 -7.3363571631 0.063085770568 -0.0183137392 -7.3387971055 
1.2558886691e-06 -2.8043413852e-07 5.6241807735 0.053229318076 -0.097306935046 11.571016105 -7.0973407019e-23 -7.3628874551e-23 2.703348615 
0.02711561791 -0.016828544284 11.623270819 8.1722822018e-09 -9.3849972673e-10 -8.3421402436 -0.017957882174 0.0076981622748 0.10591892487 
-0.00019602434963 -0.00012283642683 10.550758931 1.2142979285 1.2370895719 4.1871889307 -1.1296866283e-28 -4.06491292e-29 -1.2938810043 
0.037483518675 0.12251073828 -2.6903987361 -0.00012671530686 -0.00025144140585 2.7302577112 5.3112114295e-06 1.2025690181e-06 6.5357520462 
5.6991246907e-06 -1.6084175003e-06 2.8584948902 -1.5089953121 -0.49725636699 7.7251836992 8.5970757637 1.8582299288 -13.953409237 
-0.79640172343 2.903308152 -23.944677907 -0.00061492353593 0.010067040892 3.7120517853 -8.6503365404e-20 -1.0713159843e-20 -1.2617579654 
-0.014176442879 0.010183141391 -19.973292518 -0.0031515986785 -0.018730631735 -2.8987877532 0.0013469624923 -0.0048233004744 1.2519864847 
-0.44307583031 0.34959107294 -2.7184500635 -8.1235167419e-11 -5.1560791433e-11 10.573420072 -6.4656898583e-23 7.4504837372e-23 2.4692241649 
0.026258957161 -0.0071098990886 2.87565007 1.414505667e-07 1.395612997e-06 8.7389947068 6.5442861218 0.074473642544 8.1930576468 
1.9274331479e-16 -8.4065852286e-16 -2.1851669414 -0.19228730234 -1.0144348921 -6.9781553942 -0.57907367421 -2.7354396358 -5.5126462545 

