# vtk DataFile Version 4.2
Generated by LIGGGHTS
ASCII
DATASET POLYDATA
POINTS 105 float
-0.0159429 -0.0302447 0.00593649 -0.000436576 -0.0303775 0.00593611 -0.00331123 -0.0338232 0.00595575 
0.00507393 -0.0332648 0.00635346 0.010855 -0.0315571 0.00703111 -0.0206128 -0.0269171 0.0062782 
-0.0229463 -0.0222042 0.00593681 -0.0183818 -0.0207036 0.00595828 -0.0133017 -0.0267776 0.00603546 
-0.0125502 -0.0209929 0.00593752 -0.00933955 -0.0302631 0.00602041 -0.00705529 -0.0204645 0.00594102 
0.0112837 -0.0250257 0.00593543 0.00338951 -0.0283618 0.00595871 0.00520845 -0.0205578 0.00595654 
0.0146776 -0.0277104 0.00595746 0.0197895 -0.0250204 0.00597492 0.0263047 -0.0223215 0.00621546 
-0.0279594 -0.0120319 0.00593911 -0.0270364 -0.019734 0.00627407 -0.0200512 -0.0167613 0.00598988 
-0.0224793 -0.0120737 0.00593596 -0.0176492 -0.0132477 0.00597093 -0.0124752 -0.0163828 0.00595917 
-0.0099664 -0.0112557 0.00603311 -0.00721742 -0.0148121 0.00597316 -0.00361049 -0.0126493 0.00596494 
0.000637756 -0.0205019 0.00596653 0.000395072 -0.013293 0.00593992 0.00556922 -0.0122601 0.00593588 
0.0112383 -0.0192497 0.0059622 0.0143487 -0.0155915 0.0059358 0.0143104 -0.010301 0.00595444 
0.0204795 -0.014697 0.00593593 0.0205772 -0.0195957 0.00594349 0.0247131 -0.0166023 0.00605818 
0.0287659 -0.00989501 0.00596385 0.030124 -0.0142509 0.00601209 -0.0320206 -0.0082781 0.00593904 
-0.033433 -0.00232713 0.00593685 -0.025322 -0.0078114 0.00594127 -0.0289852 -0.00572229 0.00661919 
-0.0198681 -0.00823161 0.00593636 -0.022383 -0.00407388 0.00593575 -0.0269222 -0.00078577 0.00593616 
-0.0137788 -0.00579057 0.00634475 -0.0173272 -0.00333462 0.00593834 -0.0134832 -0.000109368 0.00606464 
-0.00867766 -0.00580366 0.0059471 -0.0042622 -0.00819876 0.00596016 -0.00393154 -0.0018856 0.00600557 
0.000621851 -0.00697706 0.00609004 0.00606666 -0.00691789 0.00593517 0.00715346 -0.00252473 0.00594223 
0.0122006 -0.00643196 0.00605028 0.0175635 -0.00779771 0.00644644 0.0125083 -0.00121352 0.00624094 
0.0243968 -0.00884631 0.00593765 0.0228252 -0.00274392 0.00595934 0.0331708 -0.00817908 0.00593981 
0.0311168 -0.00473404 0.00613951 -0.0337793 0.0064981 0.00593812 -0.0309697 0.0031729 0.00593591 
-0.0305033 0.00916448 0.0060012 -0.0230211 0.00206462 0.00594293 -0.0261599 0.00968371 0.00594604 
-0.0104825 0.00570411 0.00593702 -0.0195526 0.00555538 0.00594085 -0.00283993 0.00563518 0.0059821 
0.000700972 0.00374771 0.00663264 0.00358629 0.00830667 0.00600349 0.00814999 0.00540056 0.00636739 
0.0183525 0.00199745 0.00609816 0.0144666 0.00327389 0.00634306 0.033092 0.00326229 0.0059598 
-0.0314837 0.0135419 0.0059581 -0.0254942 0.0166342 0.00618883 -0.0218273 0.0115357 0.00607119 
-0.0137109 0.00977824 0.00595485 -0.0177011 0.0101434 0.0061454 -0.00784178 0.0105024 0.0060208 
-0.00219637 0.0104488 0.00593886 -0.00487422 0.0182664 0.00596216 0.0016018 0.0139016 0.00594633 
0.00941131 0.00963875 0.00594508 0.0129607 0.0158461 0.00603559 0.0189005 0.0109517 0.00677226 
0.027235 0.011191 0.00599652 0.0228862 0.0160491 0.00595457 0.0271516 0.0159766 0.00610745 
0.0315288 0.0141803 0.00598527 -0.0115001 0.0209238 0.0059423 -0.0178687 0.0215106 0.00604638 
-0.0191651 0.0256503 0.0060377 -0.0135015 0.0251002 0.00593503 -0.00202561 0.0222155 0.00594267 
-0.00795967 0.0282743 0.0063988 0.00307937 0.0290164 0.00611344 0.00802768 0.0242754 0.00694057 
0.0141292 0.019695 0.00639309 0.0153875 0.0307064 0.00594629 0.0179378 0.0255006 0.00597385 
0.0233836 0.0210672 0.00622517 0.00913101 0.0312201 0.00640285 -0.000211567 0.0348584 0.0059598 

VERTICES 105 210
1 0 
1 1 
1 2 
1 3 
1 4 
1 5 
1 6 
1 7 
1 8 
1 9 
1 10 
1 11 
1 12 
1 13 
1 14 
1 15 
1 16 
1 17 
1 18 
1 19 
1 20 
1 21 
1 22 
1 23 
1 24 
1 25 
1 26 
1 27 
1 28 
1 29 
1 30 
1 31 
1 32 
1 33 
1 34 
1 35 
1 36 
1 37 
1 38 
1 39 
1 40 
1 41 
1 42 
1 43 
1 44 
1 45 
1 46 
1 47 
1 48 
1 49 
1 50 
1 51 
1 52 
1 53 
1 54 
1 55 
1 56 
1 57 
1 58 
1 59 
1 60 
1 61 
1 62 
1 63 
1 64 
1 65 
1 66 
1 67 
1 68 
1 69 
1 70 
1 71 
1 72 
1 73 
1 74 
1 75 
1 76 
1 77 
1 78 
1 79 
1 80 
1 81 
1 82 
1 83 
1 84 
1 85 
1 86 
1 87 
1 88 
1 89 
1 90 
1 91 
1 92 
1 93 
1 94 
1 95 
1 96 
1 97 
1 98 
1 99 
1 100 
1 101 
1 102 
1 103 
1 104 

POINT_DATA 105
FIELD FieldData 7
id 1 105 int
5072 5392 4382 5464 5949 5976 5065 5550 4883 
5631 5372 5562 5787 5443 5375 5910 3500 5532 
5428 3795 5368 5745 5446 5557 5085 5516 5568 
4400 5793 5137 5801 5396 3308 5553 5874 5727 
5945 5774 4913 5635 5807 5648 5663 5013 5626 
5870 5779 5639 5802 5586 5168 5197 5941 5708 
5506 5902 5861 5342 5744 5207 3145 5840 5311 
4947 5297 5595 5084 5628 5925 5756 5857 5236 
5097 5973 5180 5169 4936 5892 5226 4715 4701 
5811 5849 5347 5691 5810 5845 5966 5030 5203 
5379 5280 5544 4895 5862 5664 5968 5555 4745 
5875 5724 4987 5209 5950 3657 
type 1 105 int
1 1 1 1 1 1 1 1 1 
1 1 1 1 1 1 1 1 1 
1 1 1 1 1 1 1 1 1 
1 1 1 1 1 1 1 1 1 
1 1 1 1 1 1 1 1 1 
1 1 1 1 1 1 1 1 1 
1 1 1 1 1 1 1 1 1 
1 1 1 1 1 1 1 1 1 
1 1 1 1 1 1 1 1 1 
1 1 1 1 1 1 1 1 1 
1 1 1 1 1 1 1 1 1 
1 1 1 1 1 1 
i 3 105 int
0 0 0 0 0 0 0 0 0 
0 0 0 0 0 0 0 0 0 
0 0 0 0 0 0 0 0 0 
0 0 0 0 0 0 0 0 0 
0 0 0 0 0 0 0 0 0 
0 0 0 0 0 0 0 0 0 
0 0 0 0 0 0 0 0 0 
0 0 0 0 0 0 0 0 0 
0 0 0 0 0 0 0 0 0 
0 0 0 0 0 0 0 0 0 
0 0 0 0 0 0 0 0 0 
0 0 0 0 0 0 0 0 0 
0 0 0 0 0 0 0 0 0 
0 0 0 0 0 0 0 0 0 
0 0 0 0 0 0 0 0 0 
0 0 0 0 0 0 0 0 0 
0 0 0 0 0 0 0 0 0 
0 0 0 0 0 0 0 0 0 
0 0 0 0 0 0 0 0 0 
0 0 0 0 0 0 0 0 0 
0 0 0 0 0 0 0 0 0 
0 0 0 0 0 0 0 0 0 
0 0 0 0 0 0 0 0 0 
0 0 0 0 0 0 0 0 0 
0 0 0 0 0 0 0 0 0 
0 0 0 0 0 0 0 0 0 
0 0 0 0 0 0 0 0 0 
0 0 0 0 0 0 0 0 0 
0 0 0 0 0 0 0 0 0 
0 0 0 0 0 0 0 0 0 
0 0 0 0 0 0 0 0 0 
0 0 0 0 0 0 0 0 0 
0 0 0 0 0 0 0 0 0 
0 0 0 0 0 0 0 0 0 
0 0 0 0 0 0 0 0 0 

v 3 105 double
-0.010610275521 0.013561068932 0.00069376105086 -0.018095438432 0.055320614138 0.0024070921317 0.047771827539 0.076297868412 -0.0024758739342 
0.028890794304 0.045564144062 0.057216785487 0.020008821455 -0.0064092628117 0.019078252085 0.066033748156 -0.053286967171 0.021473353016 
-0.011985605444 -0.015123276588 -0.0062598219633 0.053487553345 -0.01048371387 0.036680627412 0.052344199267 -0.057962931384 -0.026121810702 
-0.046339241917 0.048756400671 0.0075298312496 -0.011731068919 -0.022475015884 -0.0056317743038 -0.057142526342 -0.009509804703 0.00014368045726 
0.096350351572 -0.0068799814474 -0.038185379686 0.044400938759 -0.010863395112 0.028277506203 0.029153477023 0.044533610407 0.0052900538432 
0.09856920577 0.059717948288 0.016762350224 -0.028346057479 -0.085618721091 -0.03825974278 0.09443569016 0.019206592293 0.098632122637 
0.032186876918 -0.029291946105 -0.067511920875 0.027655231441 -0.0072656041478 -0.0093906346418 0.017652549081 0.024213041799 0.00098438011289 
-0.055667058223 0.077023303774 0.0011535498043 -0.057608233218 -0.016597853366 -0.0044720224748 -0.012140538573 -0.020790518161 0.0024577854409 
0.030078593622 0.022185774967 -0.038814912363 0.013885684196 0.00472453706 0.012422115268 0.070953728672 -0.014145622175 0.0048343963053 
0.0059447388453 -0.061283016906 0.01632020899 0.013307692725 0.048191981139 0.0016808505303 0.014282425905 -0.0095233472343 -0.0020750220512 
-0.045431101447 0.0103751665 -0.0066570868744 0.065240211926 0.022582751845 0.0039696003138 0.0067152202641 0.017186544572 0.0082196969307 
0.049458859037 0.046528957459 -0.0002735599752 0.0033915374204 0.021511477739 -0.00031802877707 -0.07849237478 -0.0071618532716 0.0067151035304 
0.030607869461 0.029750048387 0.011392064947 -0.011814719371 0.060771714126 -0.011627678476 0.015962141795 -0.058077722382 -0.0087122875892 
0.018397273313 0.027828454245 -0.01285927718 0.040858637716 0.032259832741 -0.0051526049003 0.031678627478 -0.02988606627 -0.010878253525 
0.060979974356 -0.016985993456 -0.002921469844 -0.0021535347959 -0.024255276838 0.065692126397 0.003195204591 -0.0075081800546 -0.0015791292117 
0.023293162065 0.041147516449 0.018863119 0.040954770546 -0.053095490247 -0.027858106489 0.052462365877 -0.002408214618 0.056181150236 
0.018651078634 -0.019243646539 0.0055987462999 0.065454625463 -0.052960494929 0.0051994133301 -0.024310158271 0.044440144602 0.0030076877462 
0.032617663165 0.090438174177 -0.0069936225188 0.088500547409 0.033073845036 0.023680865711 -0.032544020941 0.016443421999 -0.01473149491 
-0.014033758618 0.018815587054 0.031301530948 -0.0083110083305 -0.017723684421 0.050265942988 -0.023215928135 0.059593532716 -0.069845730299 
0.039181463514 -0.028947848941 -0.01226067898 0.06163638039 0.10749964798 0.012129604934 0.026405879686 0.054225916576 0.02011854838 
-0.0053834973577 0.025869530016 -0.0032256646613 0.0014771011245 -0.0021881266205 0.0037171412771 -0.036878366604 -0.0089006687949 -0.0001065851842 
0.0034131968454 -0.067907518177 -0.05664044385 0.045737399751 0.0071805947226 -0.0078505770344 -0.0019392128742 -0.008648125802 0.0025457149991 
0.054524450135 0.015289397158 0.013735495116 -0.043621618162 -0.01667224274 0.016200449661 0.027248506724 -0.018631900434 -0.034159154211 
0.016548557709 -0.00099607495284 0.029129373055 -0.018536447224 -0.072807220137 -0.042872468784 -0.001186452289 0.027948662385 0.0073703246013 
-0.015190272476 0.086314596318 0.07137978829 -0.029648058116 0.038504420166 -0.11097705894 -0.03386673377 0.050243663621 -0.030600704444 
-0.047390960641 -0.02120554994 -0.026361765096 0.029298299393 0.020623887681 0.043940678145 -0.0042044068968 -0.062442647278 -0.0060552129453 
-0.027050939977 -0.028812571553 -0.0039938029394 -0.015627764566 -0.059154476487 0.087900850739 0.037851134689 -0.0004677193079 0.050449591158 
-0.036098057683 -0.10210554662 -0.011848853858 -0.052181303223 0.021745517726 0.020319870371 -0.04380160738 0.032897202894 0.0027357872566 
-0.0062315691982 -0.027164736378 0.0098225459676 -0.060468498313 -0.021055549328 0.0035850877735 -0.029927275555 -0.082304907718 -0.030741142266 
0.026459821665 0.016844007781 -0.0013146120872 0.0096462233293 0.062953050169 -0.024344548186 -0.014406305308 -0.037758573507 -0.011759589593 
0.029502011043 0.067359444337 -0.056357593114 0.094592890199 0.017652336612 -0.027239774076 0.0080603544725 0.0074954349435 0.032852982168 
0.0051664051971 -0.12850492311 0.064139950171 -0.01261181259 -0.065246594854 0.0080242694826 -0.097007649189 0.03082783662 -0.0057537018017 
-0.069362209945 -0.050633593775 -0.0593997529 -0.01940336662 0.0035552736376 0.12071130773 -0.0096012774523 -0.0076458822492 -0.026477715159 
-0.068315186588 0.024139030938 0.069493011827 -0.082867628738 0.10469635568 0.02240444636 -0.016847930617 0.049969817198 0.020033522298 
-0.035049595845 0.016753517817 -0.047405855984 -0.032631076872 0.021125817027 -0.056376569673 -0.10977710073 0.014933002536 0.017151411011 

f 3 105 double
0 0 -0.00082184063818 0 0 -0.00082184063818 0 0 -0.00082184063818 
0 0 -0.00082184063818 0 0 -0.00082184063818 0 0 -0.00082184063818 
0 0 -0.00082184063818 0 0 -0.00082184063818 0 0 -0.00082184063818 
0 0 -0.00082184063818 0 0 -0.00082184063818 0 0 -0.00082184063818 
0 0 0.013532530386 0 0 -0.00082184063818 0 0 -0.00082184063818 
0 0 -0.00082184063818 0 0 -0.00082184063818 0 0 -0.00082184063818 
0 0 -0.00082184063818 0 0 -0.00082184063818 0 0 -0.00082184063818 
0 0 -0.0005615444317 0 0 -0.00082184063818 0 0 -0.00082184063818 
0 0 -0.00082184063818 0 0 -0.00082184063818 0 0 -0.00082184063818 
0 0 -0.00082184063818 0 0 -0.00082184063818 0 0 0.00060308477849 
0 0 -0.00082184063818 0 0 0.0019622324232 0 0 -0.00082184063818 
0 0 -0.00016870273758 0 0 -0.00082184063818 0 0 -0.00082184063818 
0 0 -0.00082184063818 0 0 -0.00082184063818 0 0 -0.00082184063818 
0 0 -0.00082184063818 0 0 -0.00082184063818 0 0 -0.00082184063818 
0 0 -0.00082184063818 0 0 0.0020909397571 0 0 -0.00082184063818 
0 0 -0.00082184063818 0 0 -0.00082184063818 0 0 -0.00082184063818 
0 0 -0.00082184063818 0 0 -0.00082184063818 0 0 -0.00082184063818 
0 0 -0.00082184063818 0 0 0.022694753782 0 0 -0.00082184063818 
0 0 -0.00082184063818 0 0 -0.00082184063818 0 0 -0.00082184063818 
0 0 -0.00082184063818 0 0 -0.00082184063818 0 0 -0.00082184063818 
0 0 -0.00082184063818 0 0 -0.00082184063818 0 0 8.5547192854e-06 
0 0 -0.00082184063818 0 0 -0.00082184063818 0 0 -0.00082184063818 
0 0 -0.00082184063818 0 0 -0.00082184063818 0 0 -0.00082184063818 
0 0 -0.00082184063818 0 0 -0.00082184063818 0 0 -0.00082184063818 
0 0 -0.00082184063818 0 0 -0.00082184063818 0 0 -0.00082184063818 
0 0 -0.00082184063818 0 0 -0.00082184063818 0 0 -0.00082184063818 
0 0 -0.00082184063818 0 0 -0.00082184063818 0 0 -0.00082184063818 
0 0 -0.00082184063818 0 0 -0.00082184063818 0 0 -0.00082184063818 
0 0 -0.00082184063818 0 0 -0.00082184063818 0 0 -0.00082184063818 
0 0 -0.00082184063818 0 0 -0.00082184063818 0 0 -0.00082184063818 
0 0 -0.00082184063818 0 0 -0.00082184063818 0 0 -0.00082184063818 
0 0 -0.00082184063818 0 0 0.029310867789 0 0 -0.00082184063818 
0 0 -0.00082184063818 0 0 -0.00082184063818 0 0 -0.00082184063818 
0 0 -0.00082184063818 0 0 -0.00082184063818 0 0 -0.00082184063818 
0 0 -0.00082184063818 0 0 -0.00082184063818 0 0 -0.00082184063818 

radius 1 105 double
0.002 0.002 0.002 0.002 0.002 0.002 0.002 0.002 0.002 
0.002 0.002 0.002 0.002 0.002 0.002 0.002 0.002 0.002 
0.002 0.002 0.002 0.002 0.002 0.002 0.002 0.002 0.002 
0.002 0.002 0.002 0.002 0.002 0.002 0.002 0.002 0.002 
0.002 0.002 0.002 0.002 0.002 0.002 0.002 0.002 0.002 
0.002 0.002 0.002 0.002 0.002 0.002 0.002 0.002 0.002 
0.002 0.002 0.002 0.002 0.002 0.002 0.002 0.002 0.002 
0.002 0.002 0.002 0.002 0.002 0.002 0.002 0.002 0.002 
0.002 0.002 0.002 0.002 0.002 0.002 0.002 0.002 0.002 
0.002 0.002 0.002 0.002 0.002 0.002 0.002 0.002 0.002 
0.002 0.002 0.002 0.002 0.002 0.002 0.002 0.002 0.002 
0.002 0.002 0.002 0.002 0.002 0.002 
omega 3 105 double
1.2550030434e-28 1.6708596068e-28 -1.6371451019 0.48022127388 2.1435702137 -23.329353851 -5.47159304e-05 -0.00039530095442 -0.079201117063 
0.0029584048843 -0.0221509437 0.043520730312 0.73000007432 -2.3603200514 7.4661770408 -1.3216498922e-07 -7.415020018e-08 -2.3738691131 
-1.3351083251e-05 -2.5114966096e-05 -2.2973652325 -2.2055307133e-09 -8.3687523226e-10 -0.97548082843 -5.410362063e-12 -6.8120024349e-12 -0.39589710559 
-8.0879705896e-06 1.5937014877e-05 5.8982565119 -0.0013094641412 0.0001387934744 -13.647986875 0.00046196656077 0.13034294536 20.568976845 
0.00019799368252 0.00020857113259 0.12810747826 0.045786038402 0.041643403024 26.554573729 1.6040432196e-40 3.3307918086e-40 0.77952381444 
1.5939916201 -1.4906101417 -6.9955041181 -1.3177772043e-07 8.2639779078e-07 -1.5827529767 1.2413460911e-12 7.2074133455e-14 -2.8271007518 
0.23291698868 -0.17186022796 6.4931150543 -1.6570233462e-12 -1.4596002149e-11 -0.88871321496 -9.4067571647e-06 -3.3780135249e-06 -0.96816992761 
0.021544057337 0.010697518608 -5.7932660126 0.035220179976 -0.014285027268 -12.078797298 2.3027996402 -0.65714379237 19.288726846 
1.2240503919 -0.48464730387 -9.6731971685 0.23788799011 -0.40047692458 -11.009175113 0.3288439235 -0.527788323 -15.198045155 
-3.7447345456e-65 -5.9631384843e-66 -0.46918513521 -0.0037992369774 -0.0010183948616 -7.3475364967 -3.7106192533e-09 -2.2638905281e-09 3.9902009355 
-0.12994521557 0.048141861741 -8.9798752832 -0.18789626492 0.095196630061 -20.468374144 -0.00057457828297 0.00031882801604 -4.6408893381 
7.4475697658e-14 1.8343128717e-14 -0.78832894197 -1.4712727015e-07 -2.9208759681e-07 -1.6161741271 0.00014218052486 -0.00034439146731 0.29362886011 
-0.017889094601 0.037193792939 -10.876123895 -5.2626635215e-08 2.2504720234e-07 0.29787965905 -4.4319667227 -0.53801886596 10.545631801 
0.0033745251059 0.00059528461464 -4.9197528064 0.36521718874 -0.24626605399 8.1171317056 -4.7214974056 -0.78049041965 10.48025712 
-0.18361645676 0.3454676406 -21.915220985 0.0019724915318 -0.0073270207226 -8.8929909261 4.8366655864e-08 -1.7509134305e-07 2.1071357737 
0.00019252616031 -1.1592327993e-05 6.2221037381 -6.1938605675e-18 6.5236690719e-18 0.97102393134 0.24650892821 -0.81000078085 19.050453072 
0.033105918852 0.064828130161 -4.9411679765 3.5923250134e-05 1.290324518e-05 -1.8609242857 1.6640762499 -1.3776321234 21.179004449 
-2.5236765374e-18 4.9037163864e-18 1.5504497698 -0.017805328468 0.036754158054 10.522966597 0.0021973459701 0.0014677551475 17.893268894 
3.3610519376e-05 -2.3240447835e-05 3.5014181622 -0.041129716538 0.0038951764867 -10.612092288 0.090536445386 -0.020216370043 5.6241807735 
-0.13023600374 -0.063245889092 -13.366474851 -0.096523439867 -0.033667205898 -11.942156027 -8.7077204611e-06 4.177667744e-05 5.1624855531 
3.2396040089e-38 -1.5184392306e-38 2.5052755652 -2.8941285908e-08 3.4088484013e-08 -9.7710841168 2.759705547e-97 1.1250356795e-97 0.28652827596 
0.011825917111 0.059033412367 8.9170197969 1.6023491424e-05 -7.047961489e-06 3.5953703131 4.2863073879e-40 -2.4639563859e-40 1.7148330091 
0.0023340000945 -0.0068305635848 12.580142651 -8.1767007217e-05 -0.00018782292854 7.9228167569 -0.0034364625883 -0.0013243911021 0.14324796408 
0.0005560133591 0.0023804946543 21.554680679 0.20773679988 0.16796973081 -15.545583204 0.0040124006005 0.0068811196502 -15.915125462 
-6.0054192283e-10 -1.0660607246e-09 1.030630228 -0.00011342587592 -0.00011766970109 2.703348615 6.5125303934e-06 -7.478948773e-07 -8.3421402436 
0.010964258549 -0.027993947249 8.9246021059 -0.01272183092 -0.0079719904996 10.550758931 -6.2876273015e-12 -1.404329344e-11 -2.4689085022 
0.018657414462 -0.052497095885 4.8657283267 0.0031803546383 0.0051250206905 7.2261861526 -0.0076666102941 -0.19113921762 6.5750875673 
-3.69709437e-05 0.00014857539163 3.5994115722 -0.038287120277 -0.026316978297 28.300915627 0.011918144676 0.0026985164742 6.5357520462 
0.0015663604752 -0.0031426560034 -14.47480245 20.763936291 -5.860036465 2.8584948902 4.1400430861 -5.7325230242 21.504205549 
-7.5947760699e-05 -9.5164164441e-05 9.6873283538 7.8665369501 -9.7987295331 21.406427217 -0.10521793793 -0.3458396743 -21.111158483 
-0.039649247021 -0.052124380772 21.339341494 6.7152243606e-13 1.069217981e-12 -1.530929214 -3.4219219805e-24 7.7947995507e-23 -1.5587764642 
-0.031081039874 0.040497527331 -0.0056281172546 -0.15446332637 0.11095321341 -19.973292518 -0.0012222936563 0.0017647725262 7.4921907505 
0.00069803022779 -0.0080059244644 0.44029432182 -3.057963926e-09 -1.9409209731e-09 10.573420072 1.4516061615e-14 -1.6727013415e-14 2.4692241649 
20.831663619 -5.6404001605 2.87565007 -2.0054979539e-81 2.2466740405e-81 0.50200819417 4.3777355855e-05 0.00043192649015 8.7389947068 
-0.063097193231 -0.018333079849 15.238054526 9.5132000744e-05 -5.2732691126e-05 -11.927280854 5.4847358612e-06 -9.6316376582e-06 -9.3906494098 

