# vtk DataFile Version 4.2
Generated by LIGGGHTS
ASCII
DATASET POLYDATA
POINTS 5997 float
-0.0163865 -0.0170018 0.00161024 -0.0146702 -0.0181287 0.00112736 -0.0109046 -0.0212649 0.000334983 
-0.0105491 -0.0188511 0.00186064 -0.0124521 -0.0176278 0.00300768 -0.0123955 -0.0199609 0.00205711 
-0.0165906 -0.0170283 0.00371751 -0.01448 -0.0189556 0.00337617 -0.0106468 -0.021358 0.00396338 
-0.0089844 -0.0180319 0.00345623 -0.00349283 -0.0231674 0.000265147 -0.00742549 -0.0224309 0.000805562 
-0.00308839 -0.0215625 0.00193678 -0.00519276 -0.0225918 0.00183922 -0.000401404 -0.0198456 0.0015682 
-0.00506086 -0.0170974 0.00278489 -0.00525743 -0.0202948 0.00205758 -0.00171942 -0.0238599 0.00240018 
-0.00259793 -0.0188417 0.00281001 -0.00763097 -0.0223737 0.00284697 -0.00669344 -0.0198991 0.00372361 
-0.00330573 -0.0234182 0.003649 0.00299743 -0.0234193 0.00162943 0.000296805 -0.0235707 0.0016895 
0.00736045 -0.02078 0.00263932 0.00159194 -0.0193429 0.00245724 0.00158036 -0.0217788 0.00208821 
0.00320198 -0.0202473 0.00337009 0.00602123 -0.0183909 0.00298843 0.00785522 -0.0173023 0.00274736 
0.00300397 -0.0180027 0.00359808 0.000415414 -0.0210573 0.00393347 0.00481753 -0.0229776 0.00329371 
0.0052347 -0.0201419 0.00383644 0.00138428 -0.023669 0.00354765 0.0122814 -0.0200469 0.00180501 
0.0085711 -0.0221949 0.00382493 0.0160581 -0.0171509 0.00220471 0.00977122 -0.0211559 0.00230506 
0.00991817 -0.0190018 0.00271654 0.0149571 -0.0185827 0.00311569 0.0113823 -0.0207642 0.00380075 
-0.0178794 -0.0149008 0.00401644 -0.0195874 -0.0135704 0.00369847 -0.0144711 -0.0155014 0.0025768 
-0.0106738 -0.0162355 0.00343081 -0.0128527 -0.0151391 0.00382289 -0.0156844 -0.0120424 0.00385556 
-0.0142086 -0.0105831 0.00337994 -0.0132699 -0.0129922 0.00387731 -0.0092635 -0.0142428 0.00394615 
-0.00910379 -0.0115809 0.00351809 -0.00758458 -0.0162633 0.00083179 -0.000741809 -0.0163089 0.00240116 
-0.00291437 -0.0122225 0.00306434 -0.00269885 -0.0142589 0.00314775 -0.00501619 -0.0105598 0.00325581 
-0.0067111 -0.012397 0.00378295 0.0020846 -0.0161961 0.0028556 0.000428635 -0.0164027 0.00404968 
0.00520433 -0.0147334 0.0030129 0.000428424 -0.0144044 0.00370125 0.00542049 -0.0110387 0.00334912 
0.00308648 -0.0135585 0.00243038 0.00754534 -0.0137412 0.00371376 0.0129396 -0.0164956 0.00241566 
0.0111468 -0.0165398 0.00367992 0.0151968 -0.0156932 0.00340591 0.0153459 -0.0110776 0.00282786 
0.0107991 -0.012425 0.00318965 0.0136644 -0.00954874 0.00383216 0.0094695 -0.0147582 0.00273949 
0.0118156 -0.0139821 0.00393173 0.0181515 -0.0150897 0.00330403 0.0198194 -0.0131943 0.0024685 
0.020882 -0.011744 0.00388291 -0.00977494 -0.00752821 0.00402452 0.0145113 -0.00666802 0.00363989 
0.00836652 -0.00780126 0.00356452 0.0122182 -0.00735304 0.0033224 0.0202644 -0.00631837 0.00387968 
0.0232878 -0.00525504 0.00311634 0.0210566 -0.00434994 0.00361194 0.0224687 -0.00275725 0.00412224 
-0.0231089 0.00256767 0.0037894 -0.0129086 0.0179801 0.00392573 -0.0110738 0.019753 0.0039899 
0.0041927 0.0233521 0.00396246 0.0113666 0.0210098 0.00399238 -0.0169854 -0.016703 0.00891263 
-0.0126129 -0.0172071 0.00543061 -0.0125763 -0.0192296 0.00521619 -0.016024 -0.0176486 0.00563145 
-0.00996839 -0.0211889 0.0059506 -0.00951961 -0.0178357 0.00601428 -0.00893267 -0.0202079 0.0042728 
-0.0143713 -0.0185113 0.00669897 -0.0153633 -0.0183356 0.00859807 -0.0130545 -0.0166797 0.0080034 
-0.011987 -0.020463 0.00672335 -0.0110631 -0.0168768 0.00694347 -0.010144 -0.0179304 0.00850062 
-0.0122659 -0.020292 0.00876465 -0.00989051 -0.0195656 0.00737662 -0.0102004 -0.021463 0.00797549 
-0.0129182 -0.0184101 0.00903496 -0.0113772 -0.0166771 0.0097002 -0.0093033 -0.0219399 0.00983178 
-0.00895294 -0.0200237 0.00911002 -0.0107171 -0.0192735 0.00997059 -0.0141911 -0.0191261 0.0110248 
-0.0113252 -0.0211225 0.0104695 -0.0121856 -0.0181716 0.0109711 -0.0125925 -0.0201526 0.0119546 
-0.00884967 -0.0167846 0.0104512 -0.00197121 -0.020851 0.00438096 -0.000649146 -0.0186844 0.00415419 
-0.00185375 -0.016871 0.00462289 -0.00417967 -0.0211898 0.00425394 -0.00352098 -0.0187978 0.00484367 
-0.00114842 -0.023795 0.00452475 -0.00774499 -0.0223236 0.00504328 -0.00545893 -0.0201331 0.00551769 
-0.00764295 -0.019116 0.00632486 -0.00472247 -0.022878 0.00532177 -0.00306559 -0.0236665 0.00655867 
-0.0027369 -0.0215935 0.00639322 -0.000570069 -0.0202225 0.005785 -0.0041964 -0.0190126 0.00675399 
-0.0013475 -0.0186208 0.00735206 -0.00065755 -0.0234886 0.00652614 -0.00102765 -0.0167028 0.00894349 
-0.00815459 -0.0179126 0.00827857 -0.00650434 -0.0230296 0.00684027 -0.00615186 -0.0197748 0.00749415 
-0.00371971 -0.0207285 0.00791542 -0.00313709 -0.0179381 0.00822498 -0.00787508 -0.0208621 0.00739819 
-0.00454393 -0.0232429 0.00786581 -0.00526712 -0.0183421 0.00913758 -0.00749382 -0.0226156 0.0085387 
-0.00569121 -0.0216259 0.008311 -0.00171032 -0.0238872 0.00838539 -0.0013526 -0.0207748 0.00770005 
-0.00195083 -0.0201988 0.00959592 -0.00312033 -0.0224744 0.0093379 -0.00519129 -0.0232745 0.00983232 
-0.00722106 -0.0188996 0.00978466 -0.00707064 -0.0209185 0.00957889 -0.00403729 -0.0204793 0.00988207 
-0.000394709 -0.0187722 0.00921902 -0.00341408 -0.0183952 0.0102097 -0.00165263 -0.0176578 0.0109119 
-0.0012574 -0.0238515 0.0103979 -0.0071871 -0.0226917 0.010599 -0.00528663 -0.0193018 0.0109988 
-0.00258828 -0.0196759 0.0115203 -0.00351481 -0.0234675 0.0110425 -0.00206106 -0.0220769 0.0113126 
-0.00532907 -0.0213177 0.0113213 -0.00549948 -0.0232588 0.0118361 0.00805176 -0.018513 0.00502241 
0.00491156 -0.017117 0.00412882 0.00248215 -0.0220734 0.00411926 0.00146353 -0.0193442 0.00458716 
0.00345458 -0.0237003 0.00477549 0.00630628 -0.0221618 0.00445731 0.000948802 -0.0227946 0.00535853 
0.00391547 -0.0190271 0.00513524 0.00672929 -0.0202947 0.00609462 0.000236317 -0.0177232 0.00637989 
0.00180746 -0.0208296 0.0059143 0.0064269 -0.0174034 0.00584787 0.00237671 -0.0172857 0.00634837 
0.00396083 -0.021346 0.00567917 0.00760972 -0.0220887 0.00633978 0.00520426 -0.0232656 0.00589061 
0.00232227 -0.0237141 0.00649491 0.000293203 -0.021747 0.00695566 0.00118498 -0.019263 0.00744402 
0.00584726 -0.0190066 0.00757889 0.00397474 -0.01676 0.00743726 0.00315539 -0.0195059 0.0071987 
0.00213585 -0.0180655 0.00879243 0.00327419 -0.0215625 0.00770316 0.000795937 -0.0237433 0.00790057 
0.0055331 -0.0214842 0.00730361 0.00403909 -0.0188343 0.00890403 0.00227779 -0.0200712 0.00892829 
0.00704867 -0.0226427 0.00871366 0.0045282 -0.0232267 0.0077895 0.00289651 -0.023608 0.00889524 
0.00728172 -0.017052 0.00781121 0.0047614 -0.0212493 0.00937427 0.00654329 -0.0201415 0.00907541 
0.000534919 -0.021256 0.00923438 0.00521502 -0.0232008 0.00967114 0.00105161 -0.0174301 0.0106012 
0.00292136 -0.0187009 0.0105572 0.000812681 -0.0238134 0.0100452 0.0052905 -0.0193898 0.0104601 
0.0074159 -0.0226472 0.0107633 0.00242581 -0.0220997 0.0101506 0.000849461 -0.019692 0.0106213 
1.63047e-05 -0.0222928 0.0111007 0.00658128 -0.0207566 0.0112568 0.0034811 -0.0235229 0.0112365 
0.00442413 -0.0209751 0.0114048 0.00706194 -0.0183674 0.0113795 0.0056573 -0.0227825 0.0117932 
0.00250388 -0.0204402 0.011566 0.00848307 -0.02051 0.00817527 0.00848772 -0.0185276 0.00900172 
0.00981244 -0.0216665 0.00546688 0.0106905 -0.0185913 0.00471794 0.0137557 -0.0195348 0.0050029 
0.00940219 -0.0174235 0.00603921 0.0103646 -0.0196231 0.00646493 0.0120166 -0.0205395 0.00570565 
0.0158995 -0.0176265 0.00636811 0.00926778 -0.0220408 0.00945024 0.0104559 -0.0185467 0.00818643 
0.0119523 -0.0181572 0.00646813 0.0112166 -0.0168826 0.00956088 0.0103541 -0.0213347 0.00767034 
0.0143758 -0.0188784 0.00716796 0.0126057 -0.0203129 0.00776139 0.0157063 -0.0177025 0.00854119 
0.0128408 -0.0179088 0.00827258 0.0115521 -0.0205588 0.00950694 0.0138054 -0.0196054 0.00944049 
0.00864539 -0.0200861 0.0102955 0.00872327 -0.0169441 0.010761 0.0101291 -0.0184181 0.0103532 
0.012516 -0.0182868 0.0102488 0.0103748 -0.02122 0.0110692 0.0154197 -0.0183562 0.0104885 
0.0107433 -0.0195205 0.0120674 0.0126955 -0.0200681 0.0111665 0.0167422 -0.0168731 0.0112593 
-0.0174533 -0.0162231 0.00601824 -0.0206453 -0.0118679 0.00451631 -0.020431 -0.00922173 0.00469684 
-0.0186405 -0.0103209 0.00448568 -0.0191762 -0.0142248 0.00558443 -0.0221825 -0.0089418 0.00578761 
-0.0213336 -0.0107171 0.00627991 -0.0190914 -0.0118151 0.00634304 -0.0180361 -0.00908511 0.00614911 
-0.019635 -0.01007 0.00723625 -0.0176491 -0.0105927 0.00741775 -0.0176843 -0.012288 0.00496605 
-0.0185728 -0.0148979 0.00844957 -0.0198695 -0.0130494 0.0078516 -0.0198669 -0.0128981 0.00988145 
-0.0216485 -0.00933915 0.00771819 -0.0210775 -0.0112351 0.00882282 -0.0221869 -0.00889876 0.00982151 
-0.0202323 -0.00941073 0.00948575 -0.0190695 -0.0114161 0.00873139 -0.0177571 -0.0131221 0.00770607 
-0.0171722 -0.0108165 0.00950695 -0.017008 -0.014232 0.00591899 -0.0202469 -0.0123983 0.0118837 
-0.0212318 -0.0108992 0.0108228 -0.0221246 -0.00906583 0.0119213 -0.0194636 -0.00901348 0.0122846 
-0.0191632 -0.0108845 0.0107842 -0.0149905 -0.0163358 0.00727824 -0.0152985 -0.0158046 0.00528656 
-0.0159703 -0.0141806 0.00416546 -0.0166843 -0.0105616 0.00510374 -0.0104798 -0.0101338 0.00471913 
-0.0108622 -0.0123957 0.00447631 -0.0110155 -0.015317 0.00550317 -0.0125542 -0.013536 0.00604174 
-0.0151105 -0.0117326 0.00577221 -0.0134768 -0.0100527 0.00631274 -0.0114617 -0.00872146 0.00580118 
-0.0115109 -0.0114858 0.00651816 -0.0159083 -0.00980875 0.00680569 -0.0133277 -0.0120458 0.00716338 
-0.00989782 -0.0103005 0.00691004 -0.0102828 -0.0135459 0.00619323 -0.00944964 -0.0156234 0.00830952 
-0.0166154 -0.0150794 0.00770335 -0.0117579 -0.0148066 0.00871515 -0.0134363 -0.0145678 0.00754897 
-0.0152142 -0.0134218 0.00761594 -0.0158872 -0.0115658 0.00802732 -0.0122001 -0.009187 0.00765182 
-0.0115288 -0.0128923 0.00814639 -0.0141961 -0.0118819 0.00909438 -0.0142461 -0.00990763 0.00830167 
-0.015326 -0.0104656 0.0102643 -0.0125232 -0.0122885 0.0103136 -0.0116391 -0.00857246 0.00956663 
[...]
POINT_DATA 5997
FIELD FieldData 7
id 1 5997 int
808 2364 105 884 669 5685 151 2562 961 
940 1110 2477 2966 4786 2035 1480 4050 2329 
2561 4058 5341 4932 1451 883 2917 5187 5132 
3555 1319 1729 3536 11 4698 984 2072 3937 
4588 2120 3168 726 5326 5155 5781 464 1384 
4193 3608 4763 4480 2689 2178 258 4765 3357 
2374 3139 1114 2044 3814 349 3702 5444 5738 
1498 4702 5142 4783 2518 2690 2981 1438 4391 
2142 5334 1834 2593 3427 3231 1853 4101 5925 
1489 1816 5283 4247 3087 2107 90 2858 1470 
2006 2030 5246 1764 4167 2090 5238 2717 1016 
2557 3582 1810 3259 2914 4709 291 6017 2468 
5930 3346 5395 2116 3531 614 5857 5923 1676 
3217 213 3501 1841 4113 3720 425 5855 5792 
2115 4407 2344 40 1904 1722 2569 1522 2805 
456 5067 4909 3234 2643 145 2846 1757 2830 
1054 2597 4046 3032 2876 4806 5518 4990 2421 
1163 4634 4756 5180 2359 1687 684 265 5140 
4369 1597 279 4516 479 3880 148 116 4346 
3130 1136 3457 5226 1749 601 4020 4934 4470 
3051 5863 4295 5242 3142 599 2635 5591 4949 
1444 5059 3007 1971 5400 5259 2159 1733 5703 
1771 5494 5330 217 3092 3970 5327 4174 922 
4026 872 4759 3735 902 3181 2609 580 4175 
1949 3328 4311 538 4164 2449 4921 1675 198 
4157 4249 508 2154 3664 437 625 3241 2043 
471 4225 5199 5394 1074 1905 5716 843 5789 
637 1307 4231 5120 4515 5164 1766 3773 1303 
5619 5072 996 5724 5239 3660 6024 1372 4553 
3651 3455 5321 3647 5435 1026 915 2173 5482 
4851 1686 701 3221 739 1241 220 2243 4579 
693 3844 4348 4393 1494 5157 2092 5149 2618 
3709 5836 841 4254 2412 985 4968 3046 2659 
988 5073 4795 1840 5447 129 1022 1138 5552 
4876 2821 2399 5786 3391 5019 1536 13 2794 
1680 4496 835 2285 1532 5087 1613 5784 584 
4061 972 1817 2770 2297 5778 3927 2425 2480 
2975 2346 5179 4895 2114 2037 3297 3283 5153 
1901 4462 3805 746 3108 5271 3614 3100 3930 
3642 4575 732 1500 5691 2509 1981 5458 4891 
2171 555 864 5527 1703 1282 2599 1247 535 
2579 2349 113 680 5091 5090 1458 5725 700 
5824 5537 3435 2493 5178 1628 5621 530 4308 
2894 944 1692 1926 2768 8 1169 586 4767 
754 1244 1661 4693 1546 767 3669 450 68 
1704 4084 3171 3235 1299 6029 4603 162 5295 
1254 3460 259 2179 4852 492 2674 134 5659 
3852 4542 4550 2544 1975 4957 1593 4947 28 
5277 5854 536 4203 205 5172 1772 1594 778 
2124 1005 4063 5834 4804 4711 504 4418 2577 
5851 405 5504 5359 3833 2580 2855 2685 1837 
773 3260 1588 2001 5942 2744 5605 2795 2728 
2226 1021 1731 4114 4984 1706 5206 5893 1376 
56 5348 377 1984 1150 1123 4002 1654 4201 
4232 4143 4716 2601 2566 5106 4017 1404 3265 
791 5848 3894 5045 2542 5500 3750 1382 2980 
5604 5248 4090 3255 917 2439 4502 2519 5216 
5201 3370 686 3551 3191 419 3566 5740 858 
2379 4819 2603 1213 2652 80 2495 4799 3211 
2543 1678 3960 938 5075 4003 1179 816 1237 
4168 5616 1586 1210 2355 2350 149 3553 4684 
3630 4215 3677 4903 1109 1835 5507 5818 5772 
4086 5770 1672 2843 2145 2476 357 201 5927 
3721 5211 2547 4317 5906 5228 5632 469 383 
3986 4987 4970 430 1359 4314 2059 1008 4718 
4894 142 4757 5912 3468 3179 1112 5317 3991 
1256 639 3169 5850 2230 4925 4814 4293 1996 
3111 1781 5094 2002 5143 3293 3980 5556 959 
3240 2959 3967 3577 5440 5788 381 2323 5337 
4917 757 5688 106 5668 5574 5650 2017 1559 
1862 3931 3569 1257 2102 740 731 1178 5613 
4631 5513 2972 5609 2644 5961 4494 761 4717 
4794 3807 5779 5431 243 3944 5658 3524 1430 
5375 2259 2755 1236 1814 4823 3598 1187 4675 
5954 18 4361 1744 4286 4610 5464 1399 1449 
1417 2551 4705 4237 550 1202 4256 1973 4492 
4581 5048 1041 5974 3777 1220 1095 1340 4678 
4628 4608 2815 1962 4829 4130 5811 5256 2806 
4185 3445 5592 322 1251 4228 3561 63 2326 
3488 4219 717 3249 6067 1408 2656 2385 3734 
4278 5147 3479 1126 1506 2573 4059 1056 5957 
2198 4701 2874 3149 4953 5182 2281 721 1229 
3971 5441 3486 1881 2660 4977 5300 4372 1325 
5771 390 2388 4145 5098 1407 1958 3845 2757 
1665 4118 4720 5251 5410 3454 5034 3957 1391 
1726 2857 974 1820 2971 1728 3193 5377 4417 
2585 3655 2398 2777 2019 793 2627 3065 1322 
708 1775 863 5356 4846 2663 1653 5292 1843 
5526 507 3529 1433 2746 4942 452 6009 1091 
3294 3060 2266 3018 3263 4351 4491 5215 2513 
5990 5569 1249 1302 5559 1131 5866 1969 5704 
4999 1043 4292 5785 953 4816 4951 4618 2590 
250 1400 5702 5423 5136 2899 4404 1183 2157 
455 2687 956 5878 3010 1230 509 705 593 
132 3103 155 5468 1078 473 1461 1020 3420 
3014 3397 3544 970 853 5088 969 1389 3131 
911 3327 4964 5252 5929 4900 118 4661 5633 
2126 1746 5002 3356 262 1142 2248 537 4484 
4349 1188 3684 2026 5217 4512 745 1754 4468 
2903 2499 1409 4624 5949 3287 1805 101 5280 
4284 3320 2994 4529 2572 6023 2168 1552 2496 
1632 5453 1429 2529 2193 4142 39 1650 4479 
1823 16 1827 61 2767 5193 792 548 3325 
2729 4379 3381 2808 5461 1538 516 752 5847 
3922 1175 4119 4172 2533 2916 3063 4826 4714 
3545 1411 636 4571 1153 3372 2191 4180 2863 
1786 595 2325 993 5505 574 3416 690 3806 
482 5273 1107 3693 3055 5156 4160 3207 3785 
4025 5557 3685 4078 5406 2322 4914 1381 1564 
2970 704 2069 3496 5742 4943 179 3400 127 
861 3289 2822 4019 3132 2434 5030 1658 2122 
1232 1936 3033 4197 3943 4839 562 2216 4081 
4681 3393 5984 5638 4614 3302 965 2485 177 
1079 1983 1511 2678 4898 1758 5502 4828 3443 
2372 3690 602 629 1708 750 5699 4153 691 
3625 3658 316 3519 446 5237 3309 5315 2789 
5706 2774 3308 2956 4239 4589 1373 5979 104 
3645 434 4691 3968 627 5915 821 2928 374 
1147 3430 2362 981 1836 1177 1583 4380 5598 
2292 1895 2283 1435 5846 945 1080 1793 1770 
2137 2225 3280 4263 5676 2411 2308 1193 1275 
2861 3786 1915 4915 889 2205 2700 122 1777 
5511 1724 5651 5815 4331 2505 2162 3336 440 
728 543 1285 5110 1518 1540 1715 1416 1434 
4511 1955 3472 776 2063 1524 5405 1397 2747 
3699 1939 3781 1219 70 235 4754 556 1304 
57 1589 154 4322 3989 5028 5409 2324 3264 
3746 4815 3373 1139 307 5570 3144 5971 3126 
2511 6050 4878 1360 74 3738 1371 1362 2484 
1436 3439 5040 2998 1541 4104 2219 2284 4609 
3636 1426 3094 3954 3197 3887 5515 4616 3303 
3541 2396 3224 5535 4483 5871 3405 1149 3514 
5323 3966 2025 2148 2587 1268 1866 646 5948 
1161 384 5982 2029 5809 5607 3935 3040 4018 
3093 3679 1533 1696 1398 2246 2240 4562 2199 
5934 4271 1872 1132 2900 966 2776 4117 55 
4410 3106 3962 1037 1642 1582 5718 4309 2504 
848 2286 4135 2443 3030 3089 5278 3446 836 
1496 2076 2422 402 328 5602 2430 4102 5466 
2691 2827 334 2949 5550 3956 3575 435 319 
2968 1709 1748 5245 2334 325 203 3343 5736 
234 1050 2177 834 3933 813 1848 1034 3675 
946 5207 1293 423 2634 1427 531 4464 277 
755 3990 2321 2904 660 3592 5987 2935 2365 
4594 809 5626 3896 4303 4583 1778 3932 1549 
3406 3326 5042 4165 5082 1140 4405 4591 4387 
897 2536 150 4230 2479 2460 3023 2950 2999 
1428 3878 2215 1442 4413 1959 968 1321 2907 
2428 3165 3820 3560 5000 3815 323 3438 807 
4226 2957 4022 4531 4234 3771 3706 5767 5649 
3392 5672 4139 4960 5062 4411 2176 1294 2314 
5837 4065 4939 3223 225 436 5291 22 5111 
4357 6052 4843 1238 5938 1369 4534 3713 1878 
621 3753 3477 4775 284 5869 4005 2888 768 
3042 4105 2615 3377 1375 4222 460 1545 3648 
3390 3666 3307 787 4095 2640 5944 190 2435 
3897 5398 123 1537 4191 4922 2619 4904 2908 
4023 5900 1024 2602 1664 999 5791 631 4443 
1039 1141 2418 954 1882 5610 2503 1029 1467 
5769 3934 1492 2739 5381 575 4265 5151 4098 
1577 470 5339 1352 1075 1203 818 712 4560 
2012 1028 5204 2009 4436 5221 1539 2032 1235 
4559 108 4954 741 5849 2056 2816 2488 1860 
2838 2020 1113 3414 5158 6008 1196 3924 231 
4787 1785 3113 4549 2773 3795 3663 3938 849 
1812 1226 371 161 748 1825 3490 2856 5806 
606 4499 293 1208 2180 3606 4646 4788 1957 
267 3620 4069 1365 5951 5448 1 29 2221 
2131 1281 3607 4042 6003 5606 2452 3362 2395 
4700 2007 4666 2054 4569 1979 3549 5489 4011 
3389 908 4159 804 2897 1791 4972 2110 4604 
194 5308 5054 4176 688 3274 1051 229 4653 
3567 3049 3344 4257 4403 1972 907 308 1662 
1759 4743 747 1767 2104 962 3745 4427 5171 
5351 5249 779 1622 5007 140 2947 2390 1889 
491 1788 5366 563 1211 4564 5805 4209 1182 
407 2055 4663 3719 4169 1084 1574 4121 379 
4454 772 3210 5385 2280 1042 2101 2382 2939 
579 3791 635 3097 3276 3163 783 5737 2686 
1701 5986 1248 4122 382 905 304 3610 1167 
4882 3599 4537 3379 5250 2117 1886 420 502 
766 4204 1015 2112 1064 3570 713 3643 2978 
5451 4937 3895 2088 3665 1635 5663 58 2058 
2658 4649 5372 4395 4152 5029 3641 2158 346 
287 5540 5766 5219 6041 2414 3787 2524 3574 
2743 5089 4748 4115 6056 5630 3183 1060 76 
3941 5677 3194 5313 1265 4106 2883 2133 5038 
477 6025 784 1723 295 520 2075 4241 1682 
5729 1947 4704 6032 2252 3600 3323 1828 1058 
4366 4428 5456 1119 3161 3319 3143 3070 4722 
4642 5213 53 236 2683 5186 3714 5011 1224 
244 5384 366 2184 3572 707 3021 2718 699 
2149 4896 2300 5342 2506 417 1221 4040 4383 
2784 5697 3540 2260 2651 1405 3889 3596 2354 
4282 1312 1514 165 505 4473 3200 3632 1059 
5393 894 5150 4916 1478 5960 320 900 5582 
1378 5908 4557 1314 2206 2040 4830 2118 5521 
2319 2212 4329 4587 5263 2099 4946 5603 3080 
1576 458 288 805 694 5236 4010 5600 2835 
801 4778 3911 5566 2653 3078 947 2727 1201 
3502 3770 2393 941 2976 5412 2311 4724 2014 
5047 5195 4899 3661 4001 5181 5340 3353 3790 
1118 5536 4079 5689 4493 1669 3109 1732 630 
38 3077 3298 1730 891 3232 497 2516 4707 
2714 4974 4224 3733 2898 5774 2309 4617 652 
37 3863 5981 3644 3159 3533 1648 3202 5044 
5712 4660 3586 2836 560 4738 2703 2415 3964 
3071 5069 5620 600 4881 3893 5081 1824 3585 
6012 3792 5262 4255 3961 306 1170 5891 3408 
2042 618 488 3041 4760 4703 1668 662 45 
605 4490 675 3949 1857 5595 2623 1684 3125 
4854 3715 653 193 4072 1863 391 4341 3929 
2884 3515 4243 461 2796 2995 4014 2723 2047 
5254 3332 2010 2637 838 3998 2405 4561 2902 
6021 75 2896 3141 923 3119 5895 496 973 
622 4043 2481 2450 247 4294 5661 5635 603 
1086 2962 3558 1792 1752 710 2938 1987 501 
2369 566 484 1940 1520 2554 1323 20 722 
2833 3057 1240 4306 3874 1655 5924 3011 3886 
4235 958 681 3694 387 4600 4905 2754 3512 
2397 5127 4558 1082 215 2301 2946 4109 1096 
4290 1773 1534 1525 1361 5015 4103 5799 4367 
6010 5428 4216 312 3873 3229 4956 138 5418 
4879 3548 581 5596 1493 4486 2330 643 1714 
1858 59 1982 2716 3780 3268 1253 4952 4509 
5365 1154 2203 4097 5486 2786 4375 2708 1557 
4859 3565 5843 5844 2045 2303 5623 4312 4388 
4593 5909 4769 5640 4699 2474 2011 4192 276 
2134 2520 1455 1279 2208 2666 3796 860 3883 
5943 2742 3067 3431 3083 2514 1937 3085 4200 
2650 955 5935 517 1508 3064 4510 5474 749 
4253 4841 4414 1260 4945 4983 1473 948 4007 
1476 4582 1105 5698 4008 1368 4584 5675 212 
3741 4273 2790 424 1269 4033 4640 3697 2800 
2933 2837 3809 1278 5197 2345 2003 5097 187 
2954 850 1873 3615 47 2231 1619 1419 500 
4568 2882 2877 5877 81 2433 4446 2487 1421 
3972 1215 3304 5130 4986 1797 5539 3037 4356 
3611 2625 300 1974 2758 6000 2592 5290 2979 
5117 5714 5964 5003 3192 4906 159 3701 166 
3407 5373 3623 1787 1171 3052 5656 3818 4163 
4715 1783 3459 103 6055 5918 66 5533 3595 
4229 4514 4980 5634 3028 695 3763 4931 2546 
160 2560 2556 4099 1310 2227 790 4877 133 
3395 3609 4374 5311 5496 1751 817 5392 3689 
4285 5404 5129 3580 1695 1510 831 5079 158 
2358 3633 164 3987 4872 4963 3086 673 5191 
5415 5830 528 4630 6045 650 1720 5253 2250 
765 5509 2681 1811 2353 1850 93 2156 6030 
144 5269 910 3573 5648 655 5578 4325 24 
5950 1612 4155 2521 1274 368 5041 4886 3451 
4885 2539 1000 545 1280 896 3862 3740 964 
4056 2745 3877 2336 3571 4682 5205 2427 1667 
1913 4892 3185 3423 5700 3751 1917 4299 4146 
3554 1646 5870 742 5657 3539 5686 2482 828 
3464 3411 2294 1505 5260 183 5068 372 2128 
3912 3965 572 4840 1267 2926 2121 6046 1148 
5424 2095 396 5279 5159 1698 1482 6039 5864 
3374 5730 315 433 453 2932 2213 3978 4750 
1484 2316 4950 2327 5780 2885 2462 2915 4842 
4074 3228 2848 2098 2571 191 2077 5695 4275 
3827 4488 2333 4162 126 5391 219 4089 852 
899 3682 2974 4457 237 5831 925 339 977 
4108 2410 4127 4448 3914 4291 5614 4774 2408 
1017 3152 355 5360 3081 280 1425 1049 3768 
1351 3631 176 612 949 2342 1390 4920 147 
647 5033 5709 3073 3462 98 3829 1659 4798 
1286 3635 4082 4623 2629 3879 2061 5760 5336 
3354 2491 3188 4998 2943 3727 4645 12 4194 
2965 5299 5036 2624 3581 1542 738 5890 4655 
2064 2287 3672 2699 5379 2583 3396 4981 4577 
2339 4456 5374 4368 2576 6005 5227 4695 7 
4227 992 3696 305 1488 5748 1117 656 4287 
5749 1892 2711 1677 5124 3823 4083 1472 1036 
5955 1507 735 2696 1846 2084 1951 4809 918 
3779 642 2062 1413 4250 3698 5092 30 5551 
3038 592 3995 1611 6048 2549 1116 494 1657 
5070 1191 1855 2756 5858 529 2697 1942 3351 
4212 3045 2859 329 4902 3444 5167 2553 5798 
2839 3047 5859 4471 2261 238 25 2034 3442 
5052 1891 3638 3562 1679 3659 924 2951 206 
1801 3804 4057 2682 3900 5064 4401 2416 4880 
2751 3257 340 5562 3243 143 337 794 5637 
5442 3994 4000 5126 5344 1093 2772 3725 2853 
3415 1927 2106 5479 3311 1573 3418 1922 2732 
4373 926 2361 2793 5445 5301 5975 1906 720 
2400 634 1002 661 3222 5997 3128 5463 6026 
4625 950 5790 4991 2174 4389 2532 3953 2 
5794 5889 2931 567 2290 4120 141 3646 4500 
4358 3380 4728 3890 3810 4459 3075 3899 1502 
4297 685 442 5322 1994 3542 2955 3450 5484 
5208 465 4392 4764 1707 2942 2920 5579 1526 
2910 2710 4024 5006 3272 4874 2096 2574 3009 
5425 5746 664 3923 3036 1521 3262 4242 2233 
4749 4288 5696 5061 1242 4871 5800 4390 5243 
421 1333 200 3975 2867 406 1366 5523 4501 
5723 5549 676 1608 5282 327 1603 1045 4158 
414 5669 2964 2992 188 1328 27 4517 3850 
1298 1569 5873 3858 4694 3951 2402 4766 4339 
2232 2632 4552 1851 5046 4147 2024 1101 3703 
2392 1396 3747 4548 2312 2050 3296 5754 2702 
3534 4324 3310 4327 4344 5161 4196 3404 3350 
4863 94 2537 2224 5588 2606 5053 3506 5825 
1568 2141 5457 1422 3266 3114 4412 1348 5389 
583 493 2335 1952 5733 558 4134 4398 3594 
5796 3452 5674 3246 1288 2684 1030 979 4304 
1214 2207 1393 1450 4708 4824 5940 388 356 
2255 3292 1743 5433 5967 6034 4849 3441 2236 
5071 1097 2166 4041 4129 877 6040 5503 810 
5010 1023 2404 1768 2192 2782 3244 3068 480 
2279 3835 6058 3388 1122 5031 3716 3186 1076 
268 2185 2377 1277 3688 2984 1819 4012 4926 
3463 771 4771 4827 823 5258 5690 3776 5817 
1083 2733 5369 1519 1062 400 1439 525 96 
3834 83 1626 128 2886 2913 2210 2269 628 
2065 1459 5362 4052 6069 4821 5367 933 4741 
3788 4188 986 1134 3976 1747 4051 3528 15 
5622 552 135 5335 89 2375 5599 2930 1719 
4021 980 3731 1830 975 3426 2814 1579 1874 
2662 5004 1515 1258 2614 4730 799 670 4523 
4671 486 1335 4451 3543 1127 846 3563 1919 
3928 3782 1944 570 4955 2563 6035 415 5449 
1630 1447 1004 5387 3619 1883 221 5972 4385 
5839 3428 1305 4996 5973 5795 619 1189 540 
5922 763 971 887 1995 5841 3491 1469 3730 
4202 5443 711 4310 5874 2990 5880 2038 6018 
4077 2464 1157 4280 5996 4546 4676 3583 1769 
5189 2812 3784 5177 2704 4654 483 2368 764 
4592 3258 4184 2125 2472 1483 2220 5752 2892 
5027 990 4870 2849 1395 1370 2847 2807 2431 
5017 3203 3653 1338 1838 4141 5192 3447 3819 
4692 3674 3513 3382 5813 2027 3988 3022 2550 
4746 2209 4527 3024 1152 4430 4269 445 222 
4860 2051 360 2066 806 351 5573 341 3762 
1047 3434 2809 978 1898 5947 41 5682 827 
278 5510 4632 1055 4734 4528 119 1610 2068 
5654 1412 1561 2832 1645 1128 1012 196 3872 
5680 5478 2475 4068 1903 1385 1900 4449 4450 
361 796 2245 2781 4580 2277 1963 1554 3639 
577 3485 3261 3977 1932 1789 3907 92 840 
4377 2378 4929 3728 3214 5022 189 5333 4936 
6061 2912 3247 1710 88 1456 1879 5571 1956 
5077 4359 3461 182 168 2655 3511 2570 1206 
6028 472 1052 4326 3602 3882 2371 3116 1888 
1725 2351 245 2927 1137 4132 3704 4913 5225 
4125 3219 2591 1530 4605 1861 223 4912 1071 
4836 1563 3154 4362 4621 1246 1001 3869 2189 
5548 4712 3537 3226 879 5018 3670 4080 1674 
4820 1465 5681 51 5049 3578 1950 1615 1197 
5555 4873 2825 313 5644 3591 321 5198 5446 
2100 1383 698 2081 3137 2630 3708 2384 3480 
3821 2332 798 632 3958 2419 3547 4868 1509 
3239 2558 5288 638 97 5532 2797 3110 5009 
1085 1880 4652 5989 2778 3279 4045 667 751 
3952 5710 4342 1343 1826 5808 937 2451 4313 
2417 5970 2810 769 604 4612 677 3759 4802 
2661 3526 1651 6031 4030 2515 3603 4650 5692 
3754 1394 282 1968 976 2996 1327 822 2923 
2200 2253 6019 5286 1821 3369 4665 4151 4419 
3939 5175 2188 3729 139 2989 5945 5338 4831 
5601 5564 136 1326 3059 1284 249 576 3846 
4776 1318 1831 192 4683 9 14 518 1292 
3650 6047 1063 4686 5501 3286 1048 2465 2823 
3546 3330 2247 3115 658 1462 588 5115 2389 
3155 1844 3604 1364 3520 2381 578 5627 4466 
3133 362 2617 5583 5980 4744 2195 3504 431 
4205 3481 1386 5995 1656 5586 3013 3180 503 
759 2457 5123 2497 1763 5611 3317 4429 2242 
289 4545 5814 3267 2109 4195 4598 1978 5133 
4053 2423 2406 5572 5439 1512 3004 1353 2829 
5268 4289 2802 5758 5985 2446 2677 4966 4940 
4670 499 513 5608 3170 1960 4252 3507 871 
4540 242 898 3556 1077 936 5727 2792 5023 
5629 1415 5826 117 511 3686 4465 3518 3471 
4179 5892 1337 5324 4236 4283 3225 2202 429 
2089 789 886 2471 987 1702 246 2295 3628 
3002 4386 3618 2067 4805 4469 4606 5655 5307 
376 4016 4426 4409 3360 478 6011 4279 3138 
230 186 5787 4093 2788 582 5235 5683 6070 
4447 3673 4657 1689 5345 52 3505 5587 4091 
3148 4408 5138 5169 1401 2320 2864 467 3530 
2675 4441 3136 1176 3335 1681 4782 1609 4747 
274 3999 4563 4154 1239 1566 1234 5162 527 
1918 3398 3902 216 1774 1833 363 943 1997 
474 4156 4432 2181 1330 5316 1454 3348 2500 
3368 4844 645 5309 5907 3624 5958 5647 1909 
3723 5529 4857 1854 2620 4013 2586 4221 1551 
4889 3367 490 4036 3955 3072 5214 49 617 
3885 50 2748 2270 5743 324 5096 893 2490 
3220 3832 2911 5936 3921 2129 862 4643 170 
585 1842 845 48 6036 5597 5104 2738 2665 
2565 881 3315 5759 2890 3718 2473 1165 674 
4572 1098 2447 475 1320 2669 3629 5343 5403 
3146 2186 4976 5224 2074 1019 2276 3176 2769 
3050 2875 1162 1010 2073 5050 5264 1223 1270 
2960 1813 960 1902 1627 2306 5968 345 4667 
5032 1721 4833 21 2053 1920 3187 1868 5241 
5488 457 2167 3803 4813 5012 5294 1652 718 
4320 1453 443 2762 163 2525 2057 2005 4884 
4719 5223 4924 5963 5991 5883 2409 5005 2448 
2880 4992 4780 2169 1884 921 598 2201 3969 
5016 2263 3860 1065 716 5302 3273 5589 2693 
3822 5399 3564 1908 4967 4755 4476 3700 365 
5328 6016 338 3732 4438 4149 2454 2299 5467 
3798 1146 3364 1633 169 5643 185 1259 4463 
1941 5838 855 4453 2347 4599 5001 788 3402 
1717 4370 5653 2293 2218 3816 5296 4910 3517 
5575 1437 5512 2642 5652 4772 2394 1212 3474 
6037 4576 2304 131 1871 1255 3424 725 326 
1341 3012 983 4461 4834 1602 1164 3523 2360 
2071 5734 3385 2891 4207 5516 427 1998 2197 
3386 2952 2534 2548 375 2567 3355 4334 2331 
3162 2376 1204 3164 3855 2251 4674 5631 5261 
683 3096 4190 5777 762 611 121 2470 240 
3588 1876 1317 3158 4384 4890 3766 1802 4071 
1705 4277 3242 3099 1596 2501 4622 2489 271 
2918 4961 4595 3044 1697 2113 3830 833 5364 
774 2196 1290 3340 3871 4648 3634 573 654 
199 1916 404 5962 261 5861 3157 1252 23 
2761 3019 2340 1976 3118 5450 3371 5492 2258 
4455 4423 2750 512 2498 1009 3487 5350 3947 
1585 1217 3717 2647 5454 875 5229 1471 4270 
3492 3375 5114 2315 5645 232 4543 2512 3206 
3003 5310 2735 2165 3983 3525 5419 2688 99 
5495 3831 3127 2963 5720 1044 257 2944 4150 
5998 4487 1560 1143 3856 4140 515 2401 930 
3813 1607 533 3299 292 719 2275 4668 4520 
874 4434 3707 5901 5146 4066 4539 332 4958 
270 5407 3027 5499 4685 5612 1592 5008 5396 
5812 1741 837 4467 4861 4422 4031 459 2305 
3366 4566 2775 1660 4495 2172 5220 3948 5352 
3769 4137 510 4574 1102 5462 1190 1807 5946 
4126 5845 3739 3516 856 3676 380 2175 4128 
112 428 4503 1374 4161 3167 4944 2811 5999 
5134 6049 2766 1924 4276 5840 5921 2317 2136 
3205 3946 3000 3112 2873 3861 514 5576 3301 
3891 426 4260 2760 5939 91 5103 3190 1970 
4166 1988 3056 743 171 1334 2296 210 1486 
2036 3166 5390 5473 5113 5274 2194 5722 1865 
2086 4696 935 5347 1155 5926 4800 3174 4092 
4710 5085 1899 1025 1301 2673 1673 6059 880 
2492 5865 2636 318 3349 1649 1357 1558 1604 
3394 4482 5993 2135 3765 5065 1980 3270 4971 
2483 3683 4340 2722 4316 3084 2764 2871 2257 
5244 2555 2461 2646 4472 4853 3849 1448 1342 
1406 4554 2934 4073 256 1069 5782 2977 1938 
2380 5687 2631 5615 1516 1057 115 2752 3182 
5977 867 2940 2872 498 5320 1738 1547 2228 
4753 4485 4458 4689 3419 1068 723 4136 2701 