# vtk DataFile Version 4.2
Generated by LIGGGHTS
ASCII
DATASET POLYDATA
POINTS 5997 float
-0.0111958 -0.018953 0.00600631 -0.00940398 -0.0180607 0.00599951 -0.0164027 -0.0173618 0.00599716 
-0.0149449 -0.0186878 0.00630993 -0.0132151 -0.0196306 0.00599857 -0.00985504 -0.0217143 0.00599741 
-0.0116801 -0.0209025 0.00602687 -0.0127231 -0.0176652 0.00600497 -0.0109351 -0.0167683 0.00600226 
-0.00557581 -0.0229419 0.00600088 -0.00604744 -0.0184347 0.00600054 -0.00477138 -0.0168981 0.00599871 
-0.00610709 -0.0204404 0.00600247 -0.00415983 -0.0194657 0.00612456 -0.00808865 -0.02073 0.00599872 
-0.00257239 -0.0220049 0.00600435 -0.00756081 -0.0226588 0.00602108 -0.00163146 -0.0199245 0.00599657 
-0.00158181 -0.0237635 0.00609796 -0.00271334 -0.0175816 0.00599733 -0.000227284 -0.0184572 0.00599745 
6.76248e-05 -0.0221895 0.00600066 0.00121888 -0.0238229 0.00599884 0.00561398 -0.0224287 0.00600188 
0.00679706 -0.0185583 0.00599298 0.00637244 -0.0166025 0.00604418 0.00487939 -0.0180066 0.00601407 
0.00558283 -0.0204234 0.00600022 0.00365949 -0.0197545 0.00599826 0.00320015 -0.0169229 0.00599098 
0.0075209 -0.0218339 0.00599999 0.00273795 -0.0221415 0.00599984 0.00829593 -0.02 0.00619266 
0.0125498 -0.0202632 0.0059983 0.0151457 -0.0185891 0.00599808 0.0108183 -0.021268 0.00600491 
0.00872875 -0.0180608 0.00599678 0.0129497 -0.0181123 0.00599941 0.0102335 -0.0193645 0.00599762 
0.0109319 -0.0172794 0.00601964 -0.0197862 -0.0133896 0.00600054 -0.0208126 -0.0116739 0.00599921 
-0.0195103 -0.0101324 0.00600431 -0.0218282 -0.00995266 0.00599842 -0.0185564 -0.0149601 0.00600022 
-0.018508 -0.0118592 0.00599722 -0.0174589 -0.0100299 0.00599851 -0.0204385 -0.00836331 0.00599906 
-0.0184196 -0.00827819 0.00599883 -0.00881411 -0.0161367 0.00604375 -0.0165208 -0.0120545 0.00599923 
-0.0156526 -0.0138531 0.0059981 -0.0139731 -0.0150901 0.00599958 -0.0134404 -0.0128269 0.00599787 
-0.011947 -0.0141545 0.00602336 -0.0149597 -0.0106407 0.0059998 -0.0116215 -0.0120388 0.00625716 
-0.0101051 -0.0133206 0.00600791 -0.00980362 -0.0112492 0.00599536 -0.0129598 -0.0105757 0.00600272 
-0.00966501 -0.0092576 0.00599918 -0.0158528 -0.0088443 0.00599985 -0.0113829 -0.00823994 0.00603327 
-0.000962693 -0.0165934 0.00601358 -0.00783129 -0.0119832 0.00600225 -0.00693083 -0.0153847 0.00599763 
-0.00633805 -0.0105991 0.00600247 -0.00480667 -0.0148905 0.00599407 -0.00298877 -0.0140703 0.00599731 
-0.00265861 -0.0121037 0.00599533 -0.00109342 -0.0134133 0.00600205 -0.00477263 -0.0128894 0.00599986 
-0.000743331 -0.0114426 0.00605856 -0.00433567 -0.0109381 0.00599707 -0.00217581 -0.00943405 0.00599748 
-0.00786534 -0.00839264 0.00599707 -0.00018289 -0.00952506 0.00599681 7.97689e-05 -0.0149316 0.00656561 
0.00107508 -0.0132325 0.00600253 0.00468517 -0.0155227 0.00600539 0.00303564 -0.0137057 0.00601123 
0.00194409 -0.0153733 0.00600575 0.00302157 -0.0117096 0.00601418 0.00779949 -0.0152021 0.00598948 
0.00424873 -0.0101118 0.00599784 0.00773073 -0.0100997 0.00600245 0.00225236 -0.0098651 0.00600085 
0.00625875 -0.00864046 0.00599748 0.0156972 -0.0161805 0.00599372 0.00908794 -0.0124724 0.00599676 
0.0143134 -0.0128749 0.00599706 0.0124855 -0.0120728 0.00599712 0.00964591 -0.014416 0.00600965 
0.0162399 -0.013804 0.00599593 0.0131069 -0.0160654 0.0059905 0.014144 -0.0106557 0.00607577 
0.0152003 -0.00877451 0.00600108 0.00928803 -0.00882192 0.00601577 0.0132029 -0.0088547 0.00599877 
0.0112399 -0.00839347 0.00600459 0.0176497 -0.0157128 0.00600983 0.0172435 -0.0108571 0.00599744 
0.020633 -0.0122349 0.00599478 0.0186352 -0.0122903 0.00599714 0.0183686 -0.00918671 0.00606618 
0.0203564 -0.00956238 0.00601553 0.0191477 -0.0142316 0.00600335 0.0222277 -0.00882069 0.00599967 
-0.0232361 -0.00540728 0.00599873 -0.0177159 -0.00257306 0.00599882 -0.0216299 -0.00676158 0.00600047 
-0.0199924 -0.00562629 0.00599673 -0.0183856 -0.00444904 0.00601194 -0.0203745 -0.00324443 0.00599922 
-0.0232083 -0.0033908 0.00599902 -0.0218928 -0.00188534 0.00599842 -0.0238535 -0.00149754 0.00602826 
-0.0189672 -0.000935337 0.00601052 -0.0168642 -0.000772582 0.0059982 -0.0209726 -0.000140084 0.00630712 
-0.0164414 -0.00490276 0.00599941 -0.0163776 -0.00691637 0.00599826 -0.0144799 -0.00629964 0.00599815 
-0.0125052 -0.00658844 0.00599882 -0.0125363 -0.00453543 0.00600067 -0.014544 -0.00431562 0.00620152 
-0.0117151 -0.00271213 0.00599974 -0.00978249 -0.00322537 0.00600999 -0.0137278 -0.00250721 0.00599788 
-0.0157213 -0.00269594 0.00601239 -0.00916039 -0.00131717 0.00599736 -0.0127296 -0.000779218 0.00599943 
-0.00964693 -0.00724085 0.00602796 -0.00970692 -0.00523691 0.00600048 -0.0148725 -0.000873872 0.00599896 
-0.0108179 -0.000207508 0.00604498 -0.00795657 -0.0042115 0.0060029 -0.00212202 -0.00649753 0.00599736 
-0.00197811 -0.00324008 0.00608691 -0.00609131 -0.00315843 0.00600071 -0.00288926 -0.00146339 0.00599988 
-0.00716576 -0.00129676 0.00601161 -0.00524929 -0.000745054 0.00599675 -0.00774912 -0.00639849 0.00599934 
-0.000964729 -0.0049297 0.00643153 -0.00412942 -0.00357074 0.00602498 -0.00618292 -0.00515728 0.00600148 
-0.000798555 -0.00159492 0.00599769 0.00346567 -0.00828283 0.00616719 0.00125264 -0.00813511 0.00600308 
-0.000135268 -0.0066994 0.0059985 0.00658045 -0.00278962 0.00599643 0.00351769 -0.00184759 0.00599844 
0.000172618 -0.00334204 0.0060117 0.00110989 -0.00510455 0.00599809 0.00249049 -0.00654731 0.00599918 
0.00668081 -0.00668482 0.00599488 0.00468387 -0.00669104 0.00600447 0.00247286 -0.00354151 0.00616757 
0.00603969 -0.00477895 0.00600127 0.00146991 -0.00182486 0.00599784 0.00540092 -0.0011804 0.00600265 
0.000568243 -4.55067e-05 0.00600366 0.0025652 -9.34467e-05 0.00599931 0.00769162 -0.000106468 0.00600494 
0.013347 -0.00686372 0.0060003 0.00840666 -0.00197703 0.00599874 0.009791 -0.00521009 0.0060016 
0.0115686 -0.00430194 0.00601037 0.0148289 -0.00170842 0.00600661 0.0125112 -0.000811503 0.00601036 
0.00866345 -0.00688803 0.00599358 0.0113968 -0.00639897 0.00608004 0.0151618 -0.00602559 0.00599734 
0.0135014 -0.00487107 0.0059995 0.0156517 -0.00382269 0.00600084 0.0130867 -0.00272587 0.00599948 
0.0109165 -0.00201313 0.00600924 0.00967598 -0.000427421 0.00600282 0.0157793 7.0651e-05 0.00599908 
0.0169174 -0.00775234 0.0059993 0.0210336 -0.00693291 0.00632244 0.0172015 -0.00573257 0.00604145 
0.0188248 -0.00715699 0.00599504 0.019603 -0.00539199 0.00651752 0.0215412 -0.0049911 0.00627246 
0.0182657 -0.0040049 0.00599795 0.0234655 -0.00453669 0.00599967 0.0218626 -0.00273974 0.0060002 
0.0172611 -0.00131801 0.0059992 0.023855 -0.00257981 0.00599759 0.0230274 -0.00648556 0.00599909 
0.0201909 -0.00149085 0.00600734 0.0184946 0.000254036 0.00599922 0.0220494 -0.000748158 0.00599973 
-0.0238513 0.00050229 0.00600285 -0.0194138 0.0065246 0.00599923 -0.0200848 0.00162129 0.00599926 
-0.0178722 0.00094482 0.00600991 -0.0220857 0.0015359 0.00601391 -0.0202507 0.00367704 0.00599843 
-0.0238552 0.00251426 0.00599838 -0.018258 0.00472472 0.00599937 -0.0211832 0.0054417 0.00599901 
-0.0224935 0.00694777 0.00599813 -0.018515 0.00278908 0.00639864 -0.022191 0.00353065 0.0064226 
-0.0232841 0.00519445 0.00652942 -0.0206914 0.00810341 0.00599888 -0.0183087 0.00822296 0.00609506 
-0.00937158 0.00118947 0.00600093 -0.0138767 0.000853614 0.00600111 -0.0165591 0.00290606 0.00601629 
-0.00911975 0.00681624 0.0060033 -0.0112589 0.00344041 0.00599773 -0.0158735 0.00101872 0.00603392 
-0.0141 0.00441928 0.00609891 -0.0162722 0.00488155 0.0059971 -0.0148431 0.00626514 0.00599591 
-0.0121569 0.0056974 0.00600867 -0.0131099 0.00269336 0.00599834 -0.0101811 0.00512346 0.00600091 
-0.0163437 0.00768789 0.00602464 -0.00882076 0.00352862 0.006001 -0.00253577 0.000907066 0.00600303 
-0.00677866 0.000668138 0.0059989 -0.00786866 0.00837392 0.00601339 -0.00702199 0.0026541 0.00600002 
-0.00270636 0.00721482 0.0059981 -0.00781938 0.00528123 0.00599961 -0.00586549 0.00483827 0.00599877 
-0.00505442 0.00300931 0.00599923 -0.00370636 0.00474853 0.00599975 -0.00301456 0.00287344 0.00599966 
-0.000998964 0.0036228 0.00600435 -0.0045959 0.00653864 0.00599864 -0.00657341 0.00684572 0.00600169 
-0.00171737 0.00548372 0.00602047 -0.00020529 0.00713864 0.00599928 -0.000219348 0.00178708 0.00599894 
0.00591859 0.000819079 0.00600815 0.000258392 0.00519305 0.00599977 0.00118945 0.00342683 0.00599843 
0.00739662 0.00216587 0.00600331 0.00432034 0.0047713 0.00599938 0.00234316 0.0050939 0.0060153 
0.00316712 0.00313952 0.00599891 0.00398179 0.00131587 0.00600983 0.00671446 0.0040904 0.00599728 
0.00607478 0.0059827 0.00599856 0.00228476 0.00705367 0.00640231 0.00757441 0.00754279 0.00602826 
0.00512428 0.00293396 0.00634806 0.00424779 0.00675611 0.00621054 0.00566854 0.00814435 0.00600095 
0.00803252 0.00559736 0.00599911 0.0132284 0.00106452 0.00599849 0.00867304 0.00370764 0.00599609 
0.00930521 0.00156973 0.00600069 0.00999216 0.00521327 0.00603667 0.0136511 0.00304762 0.00599703 
0.0121809 0.0044029 0.00599915 0.0149858 0.0045368 0.00603852 0.0133952 0.00599214 0.00599795 
0.0114775 0.00654825 0.00600427 0.00953519 0.00715909 0.00599922 0.0150842 0.00738166 0.00600216 
0.0105752 0.00330843 0.00645733 0.0112875 0.00144965 0.00627309 0.0129424 0.00793956 0.00599914 
0.0162593 0.00299547 0.00599821 0.020479 0.000487164 0.00599816 0.0235979 0.00125914 0.00601799 
0.0165725 0.00575448 0.00599896 0.0183023 0.00268786 0.00599748 0.0202958 0.0028517 0.00600002 
0.0184776 0.0046769 0.00599771 0.0218977 0.00404809 0.00600134 0.0191952 0.00654083 0.00599887 
0.021122 0.00601604 0.00599705 0.0233463 0.00541559 0.00617499 0.023746 0.00327899 0.00601946 
0.0174694 0.00754328 0.00600433 0.0227065 0.00730903 0.00603175 0.0208296 0.00799771 0.00599981 
-0.0202353 0.0116069 0.00601248 -0.0187137 0.0148032 0.0059997 -0.0215911 0.0101413 0.00599879 
-0.0182547 0.0111846 0.00599959 -0.0196126 0.00974087 0.00637968 -0.0176687 0.0130992 0.00602076 
-0.0167258 0.0149744 0.00600797 -0.00985236 0.00867654 0.00599924 -0.0103466 0.0112338 0.00604556 
[...]
POINT_DATA 5997
FIELD FieldData 7
id 1 5997 int
5066 2417 163 2788 1580 1885 4789 5785 3671 
5866 4440 1644 2074 2383 3341 963 5224 4740 
3256 3751 4447 830 1482 455 1786 2485 3685 
4292 537 2496 4127 3423 147 3075 3410 685 
4217 1193 2970 1756 2233 3464 6039 5894 5704 
2960 3475 2275 5403 953 4618 4784 3010 2223 
2387 2294 3760 2128 2186 5279 5488 2590 3761 
2213 5050 5694 2841 4951 3263 1461 1433 1316 
2026 3564 1660 4780 2576 3327 3033 1507 1049 
3544 5890 5699 1983 1657 3943 4389 4240 2216 
2602 691 143 3736 1830 952 2453 3658 5646 
5938 463 4856 296 1579 1387 5158 1196 5231 
1045 4816 6009 719 507 200 800 292 2244 
1230 989 3746 1400 5879 4706 1917 2552 1505 
168 452 509 301 1746 4262 4299 3299 5702 
2327 2991 1924 5245 3981 6023 2720 970 1388 
4074 3948 2848 4078 5070 5030 5453 3968 6052 
1823 562 4025 5315 4153 4914 1238 5742 5817 
316 2928 4443 906 4843 1083 4098 5185 4064 
3625 2174 5670 5793 2662 2575 3666 4721 4523 
4439 2288 82 3563 5188 2273 5928 3898 5434 
5380 1563 670 3612 5827 4452 4381 5088 4158 
1592 3018 3887 4749 5008 2746 4520 4919 4815 
4508 3954 4034 4495 4162 3738 5695 5589 5872 
5352 4942 4624 5323 4661 4574 5660 5614 704 
4964 2392 5949 4591 3684 5461 3879 4413 3496 
2322 3806 1533 1882 4821 3785 3390 3713 5082 
4321 787 1878 1545 5111 621 2503 4373 3245 
1369 5977 5320 1664 5004 1747 5744 1375 3800 
6008 5339 1481 2440 4671 1264 1738 1519 1944 
2056 2987 3649 712 1716 4954 108 1571 1013 
2595 570 6022 741 46 818 5812 4467 5523 
5696 3197 1139 4517 1396 5217 3858 5396 979 
4488 1328 2525 874 5134 3820 5602 2168 5362 
3753 5557 809 897 5381 4095 3847 968 6068 
2640 3477 2607 954 1467 4775 2860 5387 5904 
486 1431 4773 4560 3334 4559 5849 5884 5421 
1515 4371 5222 5139 3248 5056 1144 3748 5828 
5856 3066 3924 4669 1755 799 3576 5204 3680 
3837 2705 5413 571 4616 2246 5723 4766 5468 
2177 4126 2430 1696 4479 768 2816 2939 5144 
2375 616 2888 1258 1966 5196 3619 3543 4245 
3616 2563 5472 3737 5577 1503 5580 1445 1877 
886 5471 3705 4532 5667 1860 6035 231 1040 
1216 5886 3298 1361 4829 233 2023 5768 2421 
197 1501 2436 2876 2569 1207 3108 5157 1307 
5447 3939 2560 4231 2598 5824 3200 2655 2303 
1136 2520 2044 2230 3001 1379 758 2438 4709 
5435 3945 5099 401 2271 5902 5241 3297 1953 
795 1243 1591 3759 5108 3259 3007 3529 2188 
909 4080 520 2932 148 4088 3378 3060 3234 
2588 1358 4724 4935 433 2652 4307 2424 1010 
4995 815 1032 2982 956 672 5525 5960 644 
2366 5277 5057 3565 715 2011 1300 2067 2337 
253 449 1868 5878 2266 183 3469 2687 1175 
4119 1813 4266 1131 3539 5343 2916 4320 3 
1394 2212 1920 1969 372 3062 473 4250 1632 
5933 987 2157 3381 5292 4313 3081 1320 4999 
4781 3262 219 6065 2541 4081 5156 2903 1801 
1511 1538 2292 5633 1539 1874 4057 3386 3006 
3440 539 1209 3264 1075 1939 634 2111 3781 
3063 470 1779 750 1130 1895 3414 3578 3178 
2324 2028 446 3928 2434 1598 1231 508 851 
1725 3756 5712 5641 5281 5297 4745 5122 5234 
4522 3437 5732 5262 5926 3453 4733 4855 3100 
5376 5755 2109 5927 3915 4526 3783 302 4657 
2090 3664 3702 3353 4087 6053 3221 5132 4367 
5781 2406 5135 5552 2190 4378 5235 5361 4218 
1250 4962 4711 2018 797 569 5084 5105 3942 
336 4419 4983 5857 5333 2744 3412 2707 5219 
462 4831 288 279 3524 1782 1215 5627 2966 
4509 2183 1773 1532 2778 182 1199 2635 1518 
4175 4112 2455 4486 2416 5818 4602 2043 4431 
3202 5113 2374 3422 3211 3328 5600 260 1711 
4650 5372 339 1718 250 1954 4779 4274 1575 
2507 2961 1908 659 1525 1343 3973 3071 2359 
2454 4769 1120 3733 5792 3644 5708 1101 4974 
4190 2371 3225 955 1411 2134 5911 2463 4388 
4660 3424 2835 3032 211 424 3064 4177 2650 
289 3096 959 3709 4241 5774 30 516 1542 
4826 2331 2533 3768 1679 4648 118 3228 1346 
1188 2333 2448 3634 5493 2478 3364 2929 2491 
5289 5005 591 2906 4438 1566 3148 1329 5100 
821 2804 4790 300 1844 3871 3014 3138 735 
4524 1884 1702 4194 1309 544 4837 5842 1876 
3358 2409 3493 4723 1925 5064 2376 3426 2814 
370 2032 3558 2020 1919 1466 2668 3782 2761 
1572 1790 1435 3135 3976 2895 4586 2622 3853 
4845 93 557 3369 780 4691 3870 2262 2418 
2651 2825 2682 3842 111 2341 2953 1235 1315 
5102 3189 3008 1850 1280 2146 3808 1093 2432 
3657 1137 826 437 5214 5681 1615 3013 528 
4820 3141 1354 3904 3417 866 3862 2009 2506 
1752 3740 5504 2512 235 881 6045 11 2618 
964 1285 3692 2165 2145 1256 4626 812 1808 
3593 689 756 31 568 86 824 353 1829 
180 5481 1263 4731 1410 2836 882 3476 3668 
4912 1129 2824 4530 1631 4806 4916 397 2854 
1968 285 1124 295 844 4433 534 1105 3559 
2540 34 65 2868 1284 1649 1197 1856 72 
610 784 1314 4883 3124 5750 3313 4107 2852 
2578 2015 4475 684 1595 3217 727 3166 223 
5546 145 626 3236 2451 3926 5013 3882 4402 
4791 5329 5089 37 184 1007 1227 994 1912 
1245 1989 5558 2016 481 4748 3465 326 5909 
4865 5239 5038 3151 3792 1060 403 3195 1419 
2274 5836 4040 5621 5981 1670 4729 3017 4786 
3495 1119 2039 2037 2127 5564 4272 1576 4582 
3758 5263 3814 1840 709 5956 3618 1899 5427 
2049 4406 3115 4579 2800 5838 3848 5705 1398 
2263 6061 2347 4982 5360 899 16 1077 1941 
4139 3700 5683 5587 3721 1164 3530 5639 595 
6054 4463 5336 3678 3698 2734 4504 2714 5467 
1455 1681 3067 527 4227 4797 5955 2003 85 
4665 5270 2285 3029 725 2643 645 4812 5727 
4462 2699 656 1054 1154 3169 5881 639 5097 
4428 3292 3816 4606 3588 576 2859 1596 5092 
3519 4197 4941 4570 3409 6005 5653 2361 2279 
5598 337 216 2362 3393 2013 3430 4751 4828 
374 4960 5496 5145 297 2641 240 177 2751 
3045 3242 3893 1310 3091 3949 895 1962 5942 
2085 2755 4446 5172 5095 3689 2796 5169 2358 
3283 673 2493 3911 350 2768 2894 5519 5802 
2905 2272 2674 3182 1691 4975 431 1344 2426 
3031 5635 5021 1169 1550 2149 1726 2080 1661 
3881 1828 4282 5240 831 3305 461 5936 1994 
3535 5251 1471 5341 5638 1806 1896 4308 1940 
5394 170 3971 4331 5253 1665 4130 1955 2156 
1356 4550 4630 3395 3286 3451 5208 5534 5980 
5721 1203 4047 1447 1688 5830 130 4408 4056 
2820 2315 3222 1861 765 2530 314 3345 5578 
1056 679 4492 2164 440 2046 3720 99 3051 
1684 70 894 3669 198 2270 1612 3880 5724 
757 3220 232 893 1560 4511 5668 5229 5771 
3450 2308 806 5425 5283 746 5274 5720 4720 
574 843 5527 5851 1202 1506 1715 2910 4242 
4850 3153 3711 3984 5917 3722 3101 4727 5692 
3613 4390 19 4668 521 4268 487 485 5666 
5813 4518 4281 3218 5515 4141 5913 5275 3181 
4713 4590 5867 5566 54 3876 120 3016 5747 
5460 2004 4067 4376 3824 1867 4736 5408 3020 
4544 5636 524 4620 5722 5078 3473 3550 2610 
2969 4178 5783 2152 927 1160 4206 5200 3433 
5662 5678 2941 4525 811 4315 4264 2172 2694 
84 853 589 5055 4633 5875 2295 5575 280 
4979 3407 4605 3741 4386 4505 4535 3363 1668 
1296 4469 4985 5452 1634 2094 3301 4028 2810 
3474 4420 1826 1085 3278 1727 2642 5298 5673 
1531 803 1452 376 3686 4123 4538 6044 2851 
1929 3562 4149 5042 234 2613 1425 1677 5765 
2907 5987 4484 4943 4922 1050 5709 5825 4442 
4327 4880 1855 3307 2872 834 69 5593 913 
1473 5399 5760 5672 4839 4695 1341 1134 6011 
2756 3994 4679 3444 4334 4594 5899 3823 2732 
1255 4212 3039 5967 1437 1948 5170 6058 2850 
1133 3021 992 1611 3109 158 1833 151 3322 
4834 4902 3213 4472 850 1656 3687 892 2887 
1517 833 2940 4681 4004 4409 3892 5937 1039 
4357 2069 5975 3648 1141 1062 5255 3963 1890 
2442 1906 3171 1108 283 5590 5265 3854 6038 
3359 3408 2723 4335 2834 5350 5790 472 3365 
164 4988 3540 3626 4852 5734 5131 2616 2498 
5254 2823 4542 4947 3260 363 6055 4295 3235 
4519 306 2181 4362 4157 675 4541 3987 1546 
5373 1881 4099 3929 5041 3241 536 5309 4913 
3859 1991 3237 4888 3754 1624 87 2103 648 
342 3494 3875 5353 409 2741 2831 4873 1527 
624 4521 1570 3009 4931 1821 4325 2780 102 
5995 5953 4350 5932 2528 1772 1921 144 817 
458 2878 3596 103 3044 5531 5521 4934 4208 
4285 2845 1879 1730 4229 1229 5659 722 972 
2645 585 5246 23 5726 1069 1692 2072 2143 
1330 654 5786 5440 3193 2401 1875 100 4170 
1863 5487 1710 165 5175 2298 5832 1934 3201 
640 2765 820 578 702 5759 5509 4346 580 
4259 773 5476 2713 3921 4767 1053 3642 996 
5923 3542 3655 5450 2354 4783 5950 533 1274 
1239 5618 1282 920 661 5586 5743 5177 2996 
3434 4554 3953 1981 2518 5392 3498 109 213 
728 286 5155 1430 2735 6013 2609 5889 1500 
3647 5591 160 3832 2703 2573 2412 550 743 
1371 5871 6033 5971 5669 3144 5570 3303 3861 
5159 2443 2484 4271 5686 1831 5757 2170 3439 
2867 421 1018 5554 929 1620 3742 2214 4434 
3027 5061 1362 5966 3403 1737 3145 3126 3707 
3030 3373 2998 3975 1608 1414 5053 1959 1442 
3405 4288 2536 1034 559 3676 1102 3675 2024 
1403 1743 3581 2619 27 1685 406 4165 4483 
4453 3727 3592 4189 4863 1409 3956 2314 5296 
1552 2606 1568 3706 3703 542 3966 4196 5466 
5406 5062 5369 2791 5748 4933 4485 4135 5852 
5272 1516 2988 1181 1964 5085 5945 1832 2357 
2352 5610 498 2428 1975 3982 3850 2589 1674 
923 2060 4918 2210 4458 5368 1852 1439 2919 
5754 400 937 3347 358 2948 4697 2061 3342 
3147 3005 2733 1547 4323 3335 5386 1600 933 
4732 204 4761 3429 2639 264 1014 6007 5745 
4421 6021 1809 658 1847 822 767 2779 1740 
2373 4489 2119 5601 6051 1514 4612 1712 872 
5119 2623 1918 2936 5624 5271 75 2405 3799 
2989 3600 4171 5267 1277 620 1849 3249 466 
1946 744 2934 4993 6047 2092 4341 2257 362 
5400 4203 2238 5522 3216 2097 275 4372 2585 
2441 2391 3209 5862 5355 1822 5357 5115 451 
1279 5508 1311 2881 1864 4148 5416 3102 2685 
2302 4932 1417 1368 4049 2636 5342 5555 3116 
465 1405 5703 2481 3070 1780 4251 1601 1588 
5634 1180 786 1862 2237 5853 5994 535 2260 
4516 2241 4632 5816 1841 4643 3585 76 4249 
1485 5176 2777 1125 1444 5711 869 888 1392 
471 1312 24 961 105 1958 1121 4795 113 
2036 1562 3425 5794 5359 3845 3306 4347 5410 
1530 832 2955 814 1522 1407 477 538 2042 
2030 4383 4771 4301 2284 3769 2199 5873 2511 
3747 2913 2900 2365 4871 1569 4102 3366 2286 
2827 5934 4222 2587 1626 5944 3276 4031 1298 
5869 2691 1623 525 3040 2437 1366 2858 807 
3935 3897 4753 4787 3377 3826 415 3042 5791 
2686 1883 3654 2479 4105 5584 4265 3482 3974 
1024 2725 3290 4122 190 2721 4938 1923 5221 
3413 1587 2012 2494 2204 868 4730 4451 928 
5378 1701 1029 2615 635 5358 1061 2771 1335 
986 3599 1027 1336 608 5919 2488 3979 631 
1513 3421 3731 1028 5717 999 4858 4808 1640 
3605 1700 5988 2614 5332 3316 4415 1870 3035 
389 4436 2584 4399 2730 3123 152 3399 1911 
1352 2828 2356 4336 3767 4827 2370 3251 4807 
4955 159 2781 5823 3121 4866 4768 4556 827 
3448 5039 4841 5594 254 4664 5482 5876 5346 
73 4737 3318 1374 311 5854 1914 3054 919 
1764 4555 1448 3840 2611 523 1246 2487 4608 
5763 1185 551 405 6 1357 1273 217 2120 
1266 78 4957 2189 5441 4311 3797 1971 3712 
883 917 2933 1114 5877 5133 6036 3240 450 
4235 1753 3566 3885 1787 5444 1449 50 4956 
4237 5182 4799 4631 5015 4216 5420 5258 4905 
5206 3265 5628 5365 4053 2543 1276 4738 5582 
244 5211 5019 5321 643 2795 5603 5540 226 
4621 4375 2423 2320 5799 884 1714 4699 805 
5770 3630 5507 4348 5120 2718 5789 4540 5195 
456 1096 3886 13 5268 5893 1378 5216 1201 
2242 3608 2658 860 4103 3317 4600 699 3790 
2471 4187 2147 1373 5491 3336 4291 4959 863 
2248 4146 5498 3537 3635 330 3919 1440 241 
5022 3827 3131 2762 3552 4908 3078 2529 599 
1183 2309 290 2678 5260 541 3146 1019 6066 
3420 629 4379 1650 921 4842 5908 3526 5914 
5739 5163 1993 2846 3640 781 3631 3391 3574 
214 5068 769 5424 3279 5047 4920 4468 885 
2470 549 692 1992 1113 4615 1142 1147 4 
434 3831 2502 5284 5168 1218 982 5183 4529 
3656 3055 2153 3489 62 4160 2499 1638 3104 
668 3333 2532 1922 317 3846 794 1584 4578 
1577 3455 3780 3852 3772 3667 4393 4610 4907 
5485 4765 5910 5680 3725 4214 2124 3105 808 
5497 5419 5032 5232 5107 5935 4426 5190 3445 
5314 1609 802 1150 1536 1534 2790 1240 1261 
1797 1950 4278 560 1253 2893 1412 5983 5619 
938 669 1404 5592 4693 5553 3869 5347 5954 
2975 4944 5327 4286 686 2847 3383 4481 2833 
4238 5072 1123 1301 1469 5223 2203 2832 4793 
6020 5238 5685 1082 4071 2708 5023 1557 3643 
2252 3787 2446 3556 2666 3615 2299 3427 2727 
4457 5778 4719 3502 3079 2287 3085 5051 1619 
1766 2794 936 2837 2476 3077 4418 5749 2113 
4760 3937 3351 3002 2742 3694 5340 4717 5079 
2005 4587 4111 422 2647 1990 1351 2586 1117 
2596 3471 2625 375 1510 3462 1326 529 224 
3099 3523 4045 716 1146 255 3052 2808 1907 
2394 4001 429 1453 5868 3199 3547 941 131 
2696 4963 3857 4356 3332 4289 3047 4965 2087 
4344 4889 3947 1278 1717 3595 513 2500 478 
4910 3466 1846 4097 1633 5129 3533 1071 1905 
998 3497 5049 494 4006 867 3329 3272 5354 
4063 1086 5477 2389 603 2300 2902 782 2191 
647 2938 2465 2559 976 2844 2251 5173 2787 
4082 393 2617 2995 501 4702 1323 8 2817 
4417 2227 5377 2661 1815 3118 1259 5436 3997 
1225 1581 2620 2521 17 3330 1000 365 3275 
1219 2738 1578 1408 4043 957 3127 740 1594 
5370 1720 663 3149 3315 2855 594 2580 3460 
2890 4205 2748 693 930 2001 2351 545 257 
845 2129 859 4459 1347 1170 2021 1359 2637 
162 4460 5334 1810 4496 4306 1265 5422 1026 
1901 651 259 4557 607 4990 1606 706 318 
1475 1565 3384 3849 1106 4225 5775 2680 4642 
2593 4312 2398 764 3339 210 5371 554 3906 
3349 5588 3208 2444 1159 5595 671 1490 467 
5642 1104 2564 79 4835 3864 5103 4182 4800 
4354 990 4166 1474 137 857 4585 791 2486 
5920 873 4100 4490 5209 4864 2519 6024 2605 
5689 1372 5130 186 841 4283 4037 4683 5484 
3766 4673 2819 5536 3447 4164 369 3883 3572 
3269 3899 4824 3665 1067 5822 2648 5530 3508 
5625 5431 3812 5810 5150 4096 3361 333 5952 
3107 2731 5338 4708 2558 5306 5304 1450 3150 
2229 2784 5655 4716 4742 5898 3627 5058 5154 
4497 1476 2583 4414 5395 5796 4008 5073 2599 
3046 4092 3041 5518 5242 1421 2329 2477 5835 
5533 4061 3368 1158 4595 3843 2261 4640 1873 
3622 3716 1671 1269 3798 3130 357 5384 3382 
5640 5733 4770 4152 3888 5060 4752 3697 5411 
4441 3090 3048 2106 1494 2786 2633 3833 5993 
5011 4303 4076 3551 4075 697 2551 4215 3431 
2360 6031 2959 3597 3763 4046 3072 5492 5529 
3726 1937 5714 4366 2882 864 3633 5539 1454 
819 1871 1854 5984 5548 6015 4138 2082 4895 
3059 5110 4772 790 5415 5513 2304 81 5404 
3744 5081 4857 3128 3545 5501 5048 6000 5543 
664 3398 5964 3025 474 4400 4013 5442 3481 
2449 3957 2963 4156 5401 3967 5766 1224 4900 
650 838 3036 2490 4151 324 1340 1535 2480 
4374 4854 1044 412 1915 774 1418 5256 1244 
2971 2815 2369 5269 5865 2759 3375 141 3998 
5495 4921 3890 2489 5104 5462 3501 5897 4561 
1364 5764 1916 2467 924 4625 5305 2344 1556 
9 3504 2861 1434 5247 3418 322 287 4133 
4270 945 3338 3179 5502 5345 2944 5226 567 
1470 2942 310 4757 1319 2078 1597 248 1724 
208 1292 5961 201 584 2139 4109 1763 4801 
793 984 4928 2719 1770 2349 3582 5691 792 
1178 2621 5018 3805 3931 4338 4627 1647 3204 
4989 5581 4803 6018 1156 2862 4077 5414 1741 
5535 53 3177 3499 4629 3428 3174 1967 5804 
2715 5230 2985 2105 2310 5880 3458 3098 561 
2445 6042 3173 3801 3483 2041 5713 4548 4038 
2921 4296 5489 4651 5318 4382 3681 3461 5494 
5970 1212 3456 5286 3253 1689 3321 2217 3517 
1819 187 3796 4576 1145 2510 2236 5071 1952 
5840 2415 1206 5787 1802 4048 5313 4131 2321 
1894 3534 6037 1038 2312 3933 2679 282 4476 
3516 2840 4622 1436 1970 5227 3112 2291 4009 
4276 2232 423 755 3951 1030 2949 4147 1457 
2136 3908 2071 22 5218 759 2864 3818 5003 
5895 2675 2979 1271 4891 641 4304 4154 5457 
2425 3300 2591 411 1909 1683 5311 4277 5010 
3594 1220 3764 3910 3198 1529 4360 5303 5124 
3435 1456 2010 2335 2644 4776 1363 3319 5259 
4844 3125 2317 476 303 2185 948 3809 3092 
1063 4715 3026 1768 1793 4243 5290 504 5735 
5682 3917 4407 2806 4014 2951 5317 5160 555 
2896 1251 2123 5731 1973 2760 5199 5698 5031 
1157 4435 5025 3162 2568 4065 4072 4877 2758 
4893 5863 4012 3043 2380 4445 3357 2891 1110 
696 4027 5128 4058 5162 4052 1997 3587 2420 
2083 5756 3844 1648 5307 4396 5473 1931 146 
3673 5225 5180 5997 4337 5905 222 5565 5882 
2924 739 445 1616 124 349 5674 5650 5651 
479 880 107 1610 3215 408 2091 5364 5458 
2161 1613 1095 5114 5615 335 5815 1100 2431 
5941 3927 4358 3266 3243 4848 5034 5500 5915 
5490 2399 3757 390 274 653 3639 517 1345 
1152 4859 6012 2259 1540 3990 2171 4254 3988 
2631 3513 3913 220 2377 1555 1824 642 1094 
4898 2243 2737 2556 4847 2956 2673 1690 364 
988 974 5788 490 4487 5579 1528 3084 1776 
2509 5864 556 5330 2672 430 5244 2980 2325 
3028 967 2638 4132 3735 379 4939 3964 5028 
5511 4915 3715 5184 1593 4140 5147 64 48 
2114 565 261 4750 1816 2822 5164 6006 5962 
3807 2160 5998 3779 2225 4869 3022 3293 1781 
179 3371 3288 2706 2901 42 5363 3446 5499 
26 1242 4536 2776 5999 2766 4601 5146 1208 
3205 5693 3061 1487 5549 1803 3541 5839 5443 
1544 2052 4501 327 55 2231 3789 4694 5845 
325 3392 3560 5040 5901 5649 2305 436 3528 
5000 2141 813 4677 5433 6034 3271 5243 3106 
4234 4363 319 3165 5948 5718 384 5921 5207 
2215 1294 2029 5837 4230 5046 2334 3934 3567 
1293 1851 2452 660 5351 4741 2773 3196 448 
4881 4658 3419 1750 2930 1283 239 3119 3355 
2348 5266 5076 1537 1441 1122 4411 2155 3192 
3457 5367 4070 613 2736 4332 135 4255 3223 
2404 2600 904 2839 1076 5545 1406 4644 121 
3068 2999 3784 268 115 877 3244 4689 4416 
298 2065 2739 391 1553 829 5464 272 2546 
5098 3590 1012 638 4125 1800 3154 5537 2977 
2574 2345 3258 5690 4209 590 5896 2202 1558 
2555 4032 2812 1342 5121 1001 4437 2752 4029 
3561 3776 1084 2228 6040 3470 2079 1719 1228 
4248 2684 407 2386 902 4739 5903 2220 4169 
41 2363 5174 4084 4470 4811 5974 2173 266 
3175 2492 1645 5803 2265 2809 4269 3653 1625 
2709 5077 4603 4676 3765 1949 4294 2757 3186 
5819 4478 5538 5978 2537 1420 1629 605 6017 
1306 4340 1988 2656 1422 2984 1348 3406 5478 
4546 2144 1135 1087 1985 196 3024 3868 688 
4051 1432 5390 1355 1744 428 1052 68 3989 
4528 3479 5096 1081 1041 2883 4020 5782 1182 
2689 236 354 1886 3701 690 5947 1811 1769 
2198 1995 637 4890 5573 4392 762 359 2692 
2646 132 666 657 1549 3730 4994 3344 57 
1957 754 1098 4580 2396 2435 1541 382 4117 
5809 1140 3962 2475 3087 460 3745 1132 1748 
2886 4562 969 1582 1428 1872 5769 4534 1642 
2240 4104 4226 284 2219 3514 4387 5007 1825 
2245 2180 123 435 3878 2909 4068 2908 495 
1321 4352 840 3252 2150 633 4762 890 5480 
4882 2269 2277 3337 95 2280 575 2130 5063 
1332 4537 1459 723 2466 597 5233 4124 3977 
3478 4191 2278 4021 796 4011 2367 3752 1222 
3097 4298 1042 4005 995 4449 1554 2117 5900 
361 156 4204 150 89 4904 766 1935 66 
2698 4494 139 2649 4734 1099 1561 2068 2267 
5728 3463 1011 2235 2701 1523 3791 1932 1734 
1938 1349 5665 1736 5622 5202 1287 119 734 
1693 1443 3907 1785 978 1035 373 1789 309 
932 4653 4785 2538 4330 980 1072 4450 110 
3610 4454 125 771 1184 772 331 2390 5599 
4592 915 4707 3129 4901 3688 245 4746 2497 
1961 4613 3866 5337 5456 6003 2209 3863 1963 
2047 4564 1495 1759 3980 3485 2110 4300 2704 
194 3362 1313 1458 1574 4978 360 4565 386 
5285 1167 1798 1211 5632 2459 5316 4675 2414 
4424 4688 5428 4429 4722 4506 3591 5848 5059 
677 464 4193 3057 1022 2330 1655 2514 2264 
1723 320 1686 2081 5474 614 1478 801 4984 
5968 3512 2677 4252 5486 3825 5843 2993 4558 
2311 5228 4598 2206 1512 1383 4802 4763 1005 
4010 3159 5943 5009 5679 4493 4512 2208 6056 
1064 3411 1699 4623 355 1324 1843 5611 3268 
4345 4224 1033 2014 447 4777 3170 5700 4359 
2915 3571 1687 1760 3360 1706 252 3080 1960 
6025 518 3449 3958 698 2898 694 2419 5630 
5520 3527 5541 38 3294 4946 1270 1698 4017 
3219 5127 352 195 3538 2468 2885 2789 2767 
4862 399 2098 1127 1237 1429 3443 846 1742 
3309 2663 3397 3645 4822 4897 926 273 5870 
4275 828 344 1653 5006 2290 4796 122 3811 
1002 2863 4397 4967 3900 3965 5017 3191 5101 
4195 1217 4968 3401 3214 600 5189 4128 4019 
2747 332 3993 157 2166 5514 729 1190 5574 
3621 1972 2350 4480 4201 2226 1636 1305 4838 
3874 2070 5623 1415 4290 2336 3376 2159 4059 
4973 5505 6070 1353 5106 2458 6010 5198 5179 
5965 3053 5094 2716 3589 3459 5858 5808 2388 
2717 1628 5116 3468 3137 4923 5026 2579 5916 
5922 5446 2187 5043 5166 1745 2899 4395 4853 
5201 3583 2193 3509 3507 5391 2728 4945 2002 
2943 4788 2566 618 3073 3168 97 2115 3677 
2954 2923 2450 3708 947 117 237 5688 1751 
4465 5596 5605 3553 1637 4754 2515 1635 4185 
5892 5907 5989 5563 1214 2495 1703 4545 4896 
4287 3895 1672 2410 2853 5382 3004 3732 3323 
2201 5929 499 1669 427 3232 2523 4584 4179 
5512 299 522 242 3284 604 3402 3961 3348 
5652 169 3505 1174 3136 5033 879 2952 2385 
5516 5454 1223 2664 4370 2792 2501 5814 1413 