# vtk DataFile Version 4.2
Generated by LIGGGHTS
ASCII
DATASET POLYDATA
POINTS 5997 float
-0.0120599 -0.0206284 0.00339819 -0.0138072 -0.0193486 0.00309269 -0.00988882 -0.0195343 0.00276623 
0.000411552 -0.0184081 0.00341595 0.00188533 -0.0237444 0.00323096 -0.0112118 -0.0155859 0.0030221 
-0.0145219 -0.015344 0.00331879 0.00387581 0.0229539 0.00340025 -0.00984499 -0.0215879 0.00423757 
-0.00838106 -0.017127 0.00419353 -0.0124274 -0.01762 0.00421007 -0.0129365 -0.0195539 0.00513974 
-0.0150346 -0.0184679 0.00505109 -0.0104104 -0.019376 0.00528128 -0.00998232 -0.0216565 0.00635694 
-0.013076 -0.0175516 0.00644925 -0.0117499 -0.020679 0.00629613 -0.00845322 -0.0178961 0.00644225 
-0.015741 -0.0179859 0.00693536 -0.0106177 -0.0175144 0.00674934 -0.014056 -0.0168783 0.00852799 
-0.0167335 -0.0169719 0.00863403 -0.00996748 -0.0216627 0.00839362 -0.0135821 -0.0195927 0.00704141 
-0.008998 -0.0197881 0.00715556 -0.0147632 -0.0187754 0.00866822 -0.0121145 -0.0178531 0.00931502 
-0.0121654 -0.0204088 0.00836652 -0.00856246 -0.0202758 0.00911772 -0.00836472 -0.0181467 0.00851247 
-0.0134828 -0.0167463 0.0105982 -0.00995919 -0.0214265 0.0104438 -0.00965668 -0.0181416 0.0101674 
-0.0155994 -0.0181708 0.010498 -0.0131283 -0.0199011 0.0102051 -0.000143869 -0.0229297 0.00396661 
-0.00240563 -0.0237561 0.00440503 -0.00608212 -0.0231718 0.00458942 -0.00647514 -0.0166117 0.00477654 
-0.00614637 -0.0204935 0.00484077 -0.00399226 -0.021365 0.00454904 -0.00379534 -0.0189626 0.00513592 
-0.00089067 -0.0172313 0.00457858 -0.000646577 -0.0208674 0.00469623 -0.00171255 -0.0190335 0.00492006 
-0.00809119 -0.0223836 0.00569512 -0.00408102 -0.0233962 0.00586746 -0.00452857 -0.0169829 0.00592338 
-0.00108718 -0.0226658 0.00576536 -0.00817754 -0.0199129 0.00504709 -0.000583232 -0.0182311 0.00661363 
-0.00283207 -0.0213034 0.00657849 -0.00465482 -0.0202978 0.0063545 -0.00628664 -0.022942 0.00675086 
-0.000818521 -0.0202844 0.00674871 -0.00253005 -0.0191476 0.00691239 -0.00673247 -0.0196307 0.00690269 
-0.00790277 -0.0224905 0.00787282 -0.0022578 -0.0234848 0.00717563 -0.00404529 -0.0202253 0.00840604 
-0.00465719 -0.0185158 0.00734254 -0.000268982 -0.0239018 0.00742087 -0.0062222 -0.0170811 0.00736285 
-0.00326688 -0.0170556 0.00782285 -0.00446695 -0.023401 0.00784332 -0.00157467 -0.0238447 0.00916048 
-0.0029845 -0.0218595 0.00891962 -0.00662274 -0.0211496 0.00870175 -0.00641787 -0.0186746 0.00865086 
-0.00479303 -0.017311 0.00919237 -0.00568753 -0.0231319 0.00967354 -0.00762363 -0.022633 0.00991647 
-0.001014 -0.0229923 0.0110677 -0.00533619 -0.0200445 0.0100049 -0.00716794 -0.0175284 0.0102483 
-0.00542363 -0.0182769 0.0109766 -0.00606885 -0.0216483 0.0109862 -0.00372411 -0.023446 0.0102094 
-0.00404312 -0.0213783 0.0108902 -0.00746473 -0.0194879 0.0107681 0.00803057 -0.0222387 0.00419975 
0.00170353 -0.0174895 0.00523028 0.00457918 -0.0222477 0.00427629 0.00606989 -0.0176242 0.00496462 
0.00218783 -0.0201827 0.0051502 0.0072805 -0.0201871 0.00552675 0.00480262 -0.0197852 0.00451633 
0.000944575 -0.0230876 0.0056474 0.00301104 -0.0234737 0.00513169 0.00631078 -0.0227441 0.00555646 
0.00106756 -0.0194877 0.00687698 0.00259226 -0.0214521 0.0066469 0.00407572 -0.0194176 0.00680507 
0.00630068 -0.0177697 0.00694789 0.00830271 -0.0191609 0.00692555 0.00515316 -0.0211893 0.00613355 
0.000695038 -0.0213506 0.00768981 0.00439764 -0.0235357 0.00729225 0.00632712 -0.0200457 0.00737736 
0.00254554 -0.0183134 0.00780241 0.00729259 -0.0223066 0.00753015 0.00258771 -0.0203597 0.00839354 
0.00167381 -0.0236978 0.00790159 0.00503803 -0.0182228 0.00845928 0.00843594 -0.0204529 0.00857157 
0.00330579 -0.0188615 0.0095914 0.00439757 -0.0212157 0.00810755 0.00140626 -0.0221054 0.00948046 
0.00638772 -0.0195122 0.00942492 0.0058158 -0.0231246 0.00874567 0.00359793 -0.0228521 0.00900438 
0.00838824 -0.0223136 0.00933582 0.000345192 -0.0237807 0.00979291 0.00297762 -0.0209695 0.010278 
0.00495348 -0.0176986 0.0104668 0.00238146 -0.0237539 0.0103774 0.00517645 -0.0210017 0.0102193 
0.00677658 -0.022864 0.010709 0.00315771 -0.0169569 0.0110384 0.00480014 -0.0233667 0.0107353 
0.00691278 -0.0184729 0.0110665 0.00815755 -0.0201249 0.0108316 0.00859067 -0.017686 0.00549925 
0.00885933 -0.0222578 0.00618865 0.0121759 -0.0205138 0.00458585 0.00967601 -0.0200541 0.00500136 
0.0108985 -0.0169402 0.00481149 0.013142 -0.0182008 0.00512043 0.0152773 -0.0183331 0.0062782 
0.0108899 -0.0210505 0.00625872 0.0122824 -0.0166501 0.00655786 0.0107253 -0.0188326 0.00699409 
0.0136427 -0.019727 0.00685823 0.0142413 -0.0170938 0.00749353 0.0166944 -0.0170414 0.0068756 
0.00976211 -0.021817 0.00794949 0.0119476 -0.0204182 0.00791603 0.0125342 -0.0179392 0.00819612 
0.0157006 -0.0180732 0.00844701 0.0105398 -0.0197029 0.0092057 0.0138757 -0.0193049 0.00888833 
0.0142665 -0.0171014 0.00984718 0.0086704 -0.0222608 0.0114877 0.0101052 -0.021557 0.0102528 
0.0128138 -0.0181225 0.0107878 0.0161836 -0.0175632 0.0104528 0.0105968 -0.0188988 0.0112577 
0.012474 -0.0203573 0.00992328 0.0147202 -0.0189059 0.0106929 -0.0171807 -0.0163833 0.00650596 
-0.0184639 -0.0113859 0.00471156 -0.0219839 -0.00952703 0.00440052 -0.018011 -0.013412 0.00453581 
-0.0178148 -0.0157897 0.004182 -0.0198961 -0.01302 0.00513585 -0.0209415 -0.0113185 0.0049629 
-0.0196683 -0.00978348 0.00522624 -0.0176083 -0.0100361 0.0059608 -0.0219185 -0.00951627 0.00649958 
-0.0210406 -0.0112684 0.00697991 -0.0189971 -0.0112963 0.00676848 -0.0182697 -0.0145527 0.00619645 
-0.0189503 -0.0146607 0.00899047 -0.0198457 -0.0132256 0.00721492 -0.020002 -0.00936656 0.00718967 
-0.0201309 -0.0127626 0.00924687 -0.021818 -0.00986799 0.00853869 -0.0225117 -0.00817403 0.00948914 
-0.0192775 -0.0088236 0.00897475 -0.0198592 -0.0108903 0.00855618 -0.0177247 -0.00884614 0.00766484 
-0.0181797 -0.0126812 0.00826342 -0.0178459 -0.0103811 0.00896515 -0.0171456 -0.0147615 0.00797389 
-0.0169504 -0.0113607 0.00739251 -0.0176699 -0.01589 0.0104023 -0.0210634 -0.0110931 0.0102205 
-0.02019 -0.0127144 0.0114 -0.0199676 -0.00945346 0.010748 -0.0220272 -0.00939354 0.0110825 
-0.0189114 -0.0115268 0.0102462 -0.0184871 -0.013595 0.0106177 -0.0177396 -0.0100741 0.0110486 
-0.0169521 -0.00850996 0.0100261 -0.017135 -0.0121042 0.0111733 -0.0156388 -0.0163108 0.00478964 
-0.016332 -0.014487 0.00384393 -0.0104305 -0.0121192 0.00405308 -0.0107161 -0.0095343 0.00472281 
-0.0165006 -0.011822 0.00467362 -0.0134644 -0.0113707 0.0048167 -0.0151017 -0.0101173 0.00466599 
-0.0167023 -0.00857721 0.00488642 -0.0134382 -0.0158213 0.0052782 -0.00970131 -0.0157301 0.0052512 
-0.0128596 -0.00913049 0.00502568 -0.0144296 -0.0136509 0.00522623 -0.0121813 -0.0129216 0.00534591 
-0.016361 -0.0134651 0.00591699 -0.012134 -0.0106663 0.00620689 -0.0149483 -0.011893 0.00607133 
-0.00973296 -0.0109147 0.00597276 -0.00921986 -0.00849813 0.00607709 -0.0151353 -0.0160246 0.00692031 
-0.0114667 -0.00867368 0.00638862 -0.0134007 -0.00929756 0.00700421 -0.0156882 -0.0098455 0.0065963 
-0.0133802 -0.0128905 0.00696445 -0.00894713 -0.0133525 0.00624128 -0.0110187 -0.0144937 0.00649526 
-0.00921321 -0.0161703 0.00930929 -0.00884594 -0.0159996 0.00734984 -0.012849 -0.0156943 0.00730214 
-0.0109373 -0.0159073 0.00815545 -0.0151334 -0.0149002 0.00858955 -0.0131645 -0.0151051 0.00927605 
-0.0109424 -0.0121513 0.00708754 -0.0157193 -0.0130773 0.00784155 -0.0145227 -0.0109871 0.00782901 
-0.0117302 -0.00961817 0.00821285 -0.0144873 -0.0082215 0.00830068 -0.016796 -0.0134079 0.0095377 
-0.0120172 -0.0138181 0.00823987 -0.0124998 -0.0115208 0.0081818 -0.00992722 -0.0139579 0.00815216 
-0.0106525 -0.0112546 0.00895367 -0.0102871 -0.00884636 0.00944397 -0.0160967 -0.0114162 0.00936217 
-0.0160164 -0.00954015 0.00855388 -0.0142983 -0.00994558 0.00953003 -0.012273 -0.00840683 0.00971938 
-0.014011 -0.0126546 0.00891174 -0.00970139 -0.0098887 0.00775949 -0.0090739 -0.0120166 0.00781299 
-0.00865506 -0.0125104 0.0097303 -0.00853341 -0.0103699 0.00950974 -0.00841698 -0.0102152 0.00434559 
-0.00864425 -0.0164532 0.0113148 -0.0154663 -0.0155744 0.0106371 -0.0114501 -0.015579 0.0102609 
-0.010123 -0.0138044 0.0102342 -0.012351 -0.0103914 0.00996507 -0.0152813 -0.00976055 0.0113509 
-0.0102452 -0.0117709 0.0109252 -0.0140301 -0.00832981 0.010717 -0.0114073 -0.00877858 0.0115092 
-0.00967645 -0.00982504 0.0110888 -0.015092 -0.0132256 0.0105775 -0.012054 -0.0125329 0.00986261 
-0.0138152 -0.011583 0.0106575 -0.0127765 -0.0140789 0.0110334 -0.00843842 -0.0144303 0.0111765 
-0.00316081 -0.0157751 0.00480861 -0.00262154 -0.0118143 0.0043838 -0.00531439 -0.00879753 0.00470715 
-0.00783124 -0.0144634 0.00459639 -0.00748977 -0.00827025 0.00507767 -0.00195268 -0.00933858 0.00487558 
-0.00388502 -0.0134768 0.0048402 -0.00107905 -0.0147945 0.00468767 -0.00743553 -0.0121036 0.00501879 
-0.00654918 -0.0102487 0.00571524 -0.00393797 -0.0101661 0.0054023 -0.00136744 -0.0110812 0.00589721 
-0.00539766 -0.0118915 0.00542523 -0.00186138 -0.016142 0.00629048 -0.00476041 -0.0149448 0.00637205 
-0.00685915 -0.0151568 0.00649776 -0.00287333 -0.0138367 0.00669883 -0.00612546 -0.00838263 0.00659716 
-0.00682317 -0.0127099 0.00688191 -0.00217771 -0.00953895 0.00688156 -0.000299156 -0.0142805 0.00661649 
-0.00328955 -0.0118378 0.00648565 -0.00424447 -0.00901032 0.00703363 -0.00726604 -0.016023 0.00877274 
-0.0077129 -0.0105348 0.00757471 -0.00170517 -0.0151354 0.00833949 -0.00542399 -0.0152678 0.00847259 
-0.00791441 -0.0140897 0.00790038 -0.00477606 -0.0131124 0.00743181 -0.00530587 -0.010836 0.00736801 
-0.00256027 -0.0108234 0.00838204 -0.00660689 -0.00961252 0.00898738 -0.00791545 -0.00839423 0.00778945 
-0.00285005 -0.00851353 0.00849068 -0.00150259 -0.0126336 0.00768827 -0.00064038 -0.00978204 0.00817813 
-0.00310029 -0.015357 0.00977813 -0.00666874 -0.0118314 0.00872461 -0.00311954 -0.0132402 0.00898131 
-0.000160138 -0.0116932 0.00899164 -0.00429428 -0.0115928 0.00926454 -0.00457034 -0.00957503 0.00909915 
-0.00183984 -0.00962366 0.00982856 -0.00517692 -0.0133808 0.00945684 -0.00125821 -0.0136227 0.0098963 
[...]
POINT_DATA 5997
FIELD FieldData 7
id 1 5997 int
93 2021 2264 4768 2177 2341 1758 3566 2723 
4872 1450 3111 5569 4807 466 2996 5414 5529 
2206 2652 4574 3625 271 2769 5965 2042 4718 
302 1014 3632 4876 3909 95 2089 1366 685 
2636 2698 4696 286 1512 3584 5977 3943 2611 
469 5528 2984 2504 5711 641 1979 2342 635 
2535 2113 5452 4370 4246 5875 3804 1135 1844 
1788 4529 5812 455 582 3640 4476 2086 2925 
5785 5488 968 1751 4803 5153 3463 5614 367 
2427 995 3664 2934 3999 5092 4534 620 943 
936 2056 3578 4175 963 4477 2940 3316 5851 
859 819 187 3038 1404 2190 3429 2116 3281 
7 748 67 2651 5312 1364 3207 5865 1526 
5518 1267 1559 71 5964 5928 2156 3713 4605 
1963 5425 3408 950 2479 5773 65 420 5828 
1515 3243 3238 5458 2027 1967 2007 5639 1861 
5845 5021 794 1197 4263 4428 3991 3075 3091 
3414 3684 4293 4102 1603 4111 3049 3179 5728 
700 446 2863 295 1864 1351 4455 2468 1871 
2049 3264 5054 5570 1079 3439 278 3328 4329 
1272 3581 1173 4074 5363 2776 3608 3678 952 
2219 4791 5998 1901 3309 3958 2298 4022 4242 
1711 5128 3648 215 5476 4611 3812 858 202 
317 4423 1729 2844 3034 4218 5629 3402 4010 
2858 5545 4262 2381 1882 2484 2284 807 4091 
5595 3221 1076 3461 4160 1011 1004 1269 5966 
1911 815 1290 3651 47 916 5603 1383 2555 
343 1989 1740 636 1075 2359 5233 1953 2366 
1200 4466 2956 5759 2583 2497 277 429 864 
754 4307 1543 223 1394 3997 863 2416 1487 
4227 2639 5283 240 2415 5832 366 1165 4911 
4755 996 1722 1726 4563 4886 3834 1072 5196 
84 4922 1747 1753 3013 5109 3698 4109 2600 
3799 2798 3359 3084 2234 1645 2168 4386 2732 
5493 288 1363 4915 400 2761 23 4269 3984 
4516 4048 3210 2550 2164 2932 1799 5498 779 
2875 1724 2806 6040 5511 2218 1184 1917 2718 
2637 1700 351 1682 1343 2711 424 3279 2413 
126 5213 2970 1119 2276 38 1471 1615 2405 
2828 3451 5375 1088 1918 316 2185 4645 788 
4801 1853 5440 701 1756 699 2231 2189 3545 
2893 1276 3118 4409 6053 1298 3047 3415 4702 
1403 1506 1101 4587 3410 457 5737 3912 992 
2615 5170 790 2171 1881 1986 5723 3758 335 
3163 2142 4201 4445 1766 2631 2123 3666 3189 
4521 281 3332 3960 5772 867 4848 673 5661 
3145 253 5975 3880 5588 4407 6025 546 4869 
4981 4578 3969 115 123 2103 5755 3260 5681 
961 3832 2351 2492 5404 2831 3646 1708 2762 
4559 4202 1073 2098 615 1302 4659 844 5298 
2630 3194 5408 659 5071 2890 4545 5041 1333 
4634 2906 2544 1410 789 1561 2325 3697 2355 
612 1032 5951 4680 2775 4470 5442 2126 721 
5164 4208 3536 4064 3616 1863 913 1838 753 
4252 2770 3406 2437 3774 5930 3184 5815 3798 
1824 4800 1755 4683 3389 4633 1136 3790 61 
5997 3349 1015 1312 2307 2138 1133 5255 322 
1822 3797 1981 3401 5971 5654 195 1720 188 
5053 3621 5396 836 4222 142 2783 5705 5788 
888 5867 1235 3424 3886 5673 4589 2560 850 
686 3426 5351 2955 1699 5765 2627 884 1537 
2063 4595 1924 279 977 2507 2536 5338 611 
3502 506 1172 3858 3744 403 5027 1688 1137 
1283 1833 2167 5651 5048 2655 3434 4098 3483 
2183 3732 5609 5701 3342 4161 965 5006 4704 
3276 3933 4465 5597 3228 1750 756 5326 715 
2719 1250 1889 3911 5712 2658 5202 2945 4996 
5239 4055 5487 2429 4462 419 151 1449 3465 
5995 1313 2459 1883 1914 5439 4089 1258 2352 
2197 2997 1061 1769 2318 78 399 5334 4267 
1253 5933 5909 4047 1915 532 4841 4483 5398 
3618 5565 4874 4703 198 4601 4492 1900 3447 
1023 2419 213 1113 2150 3675 321 1518 3132 
4835 2128 808 3563 4024 3490 3123 4438 241 
4583 5631 5096 1605 5449 529 797 3865 601 
5500 747 5954 161 4480 5234 1839 545 3781 
100 3445 2837 3544 3728 4499 787 1563 4901 
1551 4893 2277 5591 3489 3687 4783 2782 4358 
4183 3871 5315 2085 4722 3763 4552 2567 4856 
264 2779 1744 771 2781 5637 5708 714 4546 
927 5889 231 1451 2435 3326 5584 4378 5059 
2700 5770 298 2488 619 5783 5122 1767 2200 
4292 482 4941 3819 766 2119 3154 2377 5769 
4675 2661 5855 5373 2741 2791 2478 5250 2495 
3418 3717 4746 4955 971 1311 707 4295 4156 
401 5031 3186 3280 1413 1600 4364 5492 1209 
920 5079 832 702 2031 1170 411 4101 5389 
2370 538 1018 5010 4905 4489 4573 818 661 
2690 5741 1497 20 4415 3817 932 2502 1865 
2141 5474 3599 3916 3690 3497 270 5211 5613 
4066 1248 5258 4375 5669 4045 1651 4265 4461 
835 6068 1257 1672 1467 5791 1985 671 4493 
1111 2515 3937 1706 2864 425 5077 5017 145 
5774 3710 3715 4785 5372 5517 900 2283 156 
5238 1761 930 280 284 4491 5475 5931 2125 
2253 3116 2702 473 3752 5110 3392 2590 1479 
441 3737 512 5641 981 3948 1837 691 5051 
3979 5383 486 17 2905 190 5600 4093 4992 
3411 3539 2552 4711 6058 5856 1051 5062 1491 
1784 3791 2153 2080 5968 2054 933 1355 4850 
1183 2975 5900 3854 1130 1852 5892 2620 2764 
3954 1591 672 639 4184 314 2373 4133 2178 
3559 1227 3612 3146 4795 2083 2422 1956 3220 
2107 2836 3994 479 5947 1642 2244 5955 5494 
2441 2461 1012 3120 4289 4564 4843 548 6022 
4776 4128 1085 2052 3393 2734 1362 3166 3738 
5758 5790 2193 1971 4657 3729 3735 3455 5292 
2923 879 1754 732 5530 2261 1482 3869 2865 
4037 726 517 4122 1469 3420 5986 4956 2511 
422 1564 2192 2499 5146 4789 3788 1167 144 
4404 5050 2588 5263 1816 4005 2795 5108 5822 
5406 5531 3292 4373 870 4604 903 2924 1182 
2273 2610 1414 536 2743 1105 4123 3593 5634 
4071 5823 393 5013 3560 1195 5176 3696 4898 
300 3 5256 3152 4121 1222 5400 3181 2203 
358 3826 5612 1887 2624 5266 2747 2485 2961 
4189 5503 48 6066 2434 3265 1444 364 2301 
5177 1649 3235 5833 3551 4594 2018 4895 642 
3503 2199 373 3413 1164 1435 357 4908 644 
2686 940 4942 4844 1896 5350 2483 3813 4697 
3057 1674 3796 389 1489 2538 3627 625 1171 
3338 841 74 1280 1367 2683 5257 5171 470 
1318 191 2062 451 5665 2825 3399 2166 5698 
2716 2523 982 4108 5590 5495 5680 2990 5655 
5104 2087 3267 2861 3661 5340 5297 3907 5687 
1685 4900 2146 3513 4940 1240 647 4765 537 
8 1043 2530 2220 934 2901 1749 5046 5881 
6018 112 2275 1178 1686 1296 2263 3226 3778 
3361 45 2137 3600 2572 861 1328 1347 6044 
348 2376 991 174 5353 5285 1544 531 5245 
2039 2246 5664 5183 1474 5825 5450 3975 4525 
4615 5466 1913 404 1885 5842 2684 2848 4437 
4110 2221 3767 1813 804 2653 1020 5725 2701 
1969 2750 1571 1194 3254 669 3766 718 4029 
2594 1566 853 2202 3638 1841 2587 3056 1138 
2953 439 4413 4973 5281 3112 5106 3644 2755 
1090 2549 5937 1211 2348 3531 4666 4602 3824 
3037 2124 4430 5897 3010 307 2856 4179 59 
3398 3904 4254 2294 1481 2784 3137 1976 5075 
2133 5073 5821 1733 1086 4343 2417 4993 918 
5524 275 4527 1547 4185 2058 2285 5072 1667 
5510 269 4946 4897 4774 1599 5272 5866 4334 
4786 4964 3177 598 5574 4780 1656 4875 5743 
2207 3808 2585 3023 1501 1663 2403 4056 1406 
4316 98 1428 1521 3438 1005 206 2390 2638 
5846 3598 159 3435 3722 1800 4501 2186 3686 
4962 5764 1078 3131 5015 4186 1024 3337 5427 
3404 41 2340 4929 1995 1409 5642 3591 4191 
4302 220 246 4020 1131 175 4234 5129 4714 
1094 938 2514 1765 1376 5809 1759 4190 5243 
5662 378 3035 491 6060 752 2412 5589 3714 
1114 1805 291 5113 2424 208 1259 4162 563 
5627 2093 2450 3668 1826 5979 3205 5617 2799 
2994 5290 2870 250 4017 162 928 2475 5735 
3159 4502 4384 2617 2414 3914 2489 3007 5436 
4565 2649 4099 2644 3883 5792 4555 547 3136 
3993 745 4951 1652 2977 4276 1186 2835 377 
2159 5660 6035 1260 6062 4096 210 578 5618 
3751 627 5960 2084 114 30 4630 259 4094 
2319 4248 2350 4215 4738 871 2807 4726 3005 
2838 3577 2240 1466 4902 1121 1810 4771 3704 
5505 5706 5480 2174 791 603 1407 4549 2557 
1412 3300 2110 2335 337 290 515 3541 4532 
606 2426 1921 3011 5088 1154 1842 5666 5990 
1141 817 4674 410 1162 5556 3617 2223 2081 
5359 369 4278 5601 3942 355 2079 143 1990 
2561 3964 3322 4168 5880 3827 3298 3919 1300 
4467 1386 4270 729 2299 5914 1299 1025 2074 
2388 3989 5854 5827 757 1455 4860 5264 83 
3747 1549 3031 3287 3025 3739 4129 4332 2968 
2516 1 1346 5684 821 5886 4612 5069 4817 
3872 1532 1996 417 2176 1638 3757 379 3021 
1609 1048 2508 1287 2454 3315 5862 527 3395 
1776 3505 741 1870 4068 2512 5502 216 2389 
3595 4749 3124 5405 5470 193 5181 4681 2937 
799 534 5731 1128 5456 999 2854 3862 1000 
1588 3237 3689 1629 4229 4164 500 5056 1931 
781 1830 440 922 717 3833 3596 1232 18 
397 4903 4490 2242 1802 2187 3535 3227 855 
2612 4188 5262 4827 1044 166 3417 53 1637 
5348 254 2210 3558 1696 3930 328 5602 5542 
1966 3240 5858 684 898 4508 5840 4132 4994 
3009 4224 12 1721 5443 1245 5005 3358 734 
1710 1148 2208 1636 359 1191 6011 513 4313 
969 5237 2911 4584 1894 445 2214 5335 1618 
885 2725 4685 2161 2134 5853 3273 4706 382 
1082 3768 2002 4519 892 5360 2327 2112 3251 
4195 3693 2442 5963 5808 2145 2237 953 2876 
1907 5635 4953 3765 2194 5563 5942 3155 518 
141 2942 2205 97 2024 360 4250 2043 2766 
5235 3244 3853 5671 1102 2569 1325 4560 138 
3083 1625 5532 946 1002 1671 5441 5385 3201 
1504 5325 1201 3271 1884 306 3859 4540 6061 
1041 559 2919 2687 4460 1104 2066 4362 4324 
3603 4412 4135 484 5720 39 980 1379 4530 
3895 2179 4977 4411 2691 558 5745 219 2849 
1628 3520 508 6009 3291 4614 323 1488 4187 
2705 4879 3922 1514 2869 3700 3208 2071 5932 
1275 3032 5463 4665 164 5679 5314 5361 4754 
3449 4852 2778 1059 5496 1546 862 1849 5803 
2181 4773 1221 3020 695 2548 608 3712 3519 
204 2737 4686 1623 1065 6008 1630 5714 16 
4497 4708 5525 4340 1714 3748 504 3542 1968 
618 3277 3262 1890 3098 4345 2383 6026 954 
3348 2233 57 5935 802 5407 589 2154 4418 
3341 5392 5126 2288 759 3633 4945 1062 5533 
4777 1156 758 1846 830 1228 2963 742 4348 
5429 633 2336 5962 1897 3252 5572 951 626 
4544 4717 4770 4744 2598 3176 1316 3634 1502 
6010 1850 2998 2586 5668 3339 4853 5317 2017 
261 4367 5205 5929 1516 3683 5199 5401 4015 
3458 2035 3708 5420 911 1920 4442 4130 2365 
3913 823 6027 3720 2369 4286 3740 3467 3079 
1538 4606 5501 4482 5278 2989 4511 4217 5212 
4596 2800 5555 4456 4927 5225 4678 3093 3198 
4693 1439 1081 3769 1246 2665 4113 2013 147 
5397 5403 2215 4087 2249 5549 692 877 3760 
5144 5820 5566 5724 5871 1797 3249 3918 4117 
907 483 843 5247 2048 5461 2765 4934 4309 
1772 2579 3750 5507 5860 2862 5709 5576 4720 
2458 3512 2547 1433 2314 56 5040 1389 708 
1640 4673 2135 1867 5124 4579 332 783 4395 
1737 140 2449 5722 4363 1392 4747 3282 2519 
1494 5382 1447 4434 273 130 1358 6037 224 
803 4640 4075 4821 593 4021 2982 4688 5319 
1039 263 1557 1453 974 2733 2707 5244 660 
3601 798 2022 4238 5841 2248 5271 2948 1017 
5063 1936 3370 4772 2986 3442 4877 2420 4592 
9 645 1632 4796 735 3450 139 318 3956 
682 3397 5033 1745 1365 5323 5940 502 2910 
380 1715 3764 1820 3433 1288 3828 4300 5462 
1066 1405 1028 3143 5008 1904 2343 4715 4488 
3998 4952 2292 1874 4548 4531 4936 2070 5282 
3058 4494 327 5288 4705 1909 5275 81 2050 
2873 2616 1570 676 3499 1038 5733 4032 4968 
5796 3374 1226 4350 3388 92 4194 1315 1634 
4947 3823 3870 1329 3887 465 1741 5606 4949 
765 1647 182 4528 2904 1378 3860 2881 2304 
1063 2872 4351 5744 1550 2908 793 4429 1354 
777 4890 3095 720 4154 2626 3457 5535 4206 
4887 2650 1293 4279 3580 1265 2546 1160 3927 
3721 5419 5944 1891 4961 2344 4402 2609 1050 
5200 4000 5158 2075 1391 2794 2464 1274 3673 
3351 5816 3272 4253 1371 3147 710 1198 5836 
2009 1510 503 3356 2635 4274 25 1255 4296 
5374 2929 4115 5658 1067 5577 3487 4732 2749 
2016 3786 4512 4100 631 29 3014 3199 2309 
5230 3983 1635 2191 3856 1997 1324 1942 244 
1385 3508 4819 5534 4076 2533 5306 5248 1764 
1459 3691 5520 329 2101 5676 4894 5321 4792 
5022 3702 2895 637 3800 2172 522 3485 431 
5847 780 2995 6049 124 1458 5766 3745 648 
3234 2780 33 4325 1530 5291 148 775 1099 
712 5100 1319 2136 5557 2840 2216 1855 872 
274 5339 957 562 2382 3897 3142 458 4485 
495 1677 5645 1348 5139 3917 4106 891 2272 
584 3379 740 2706 614 5490 1144 5074 6031 
5938 3776 2224 4232 1326 2808 1780 2147 4142 
4241 4471 4541 3792 937 4014 1567 3043 1215 
5763 5217 472 3976 5715 5693 4439 1252 984 
511 460 6014 4619 1384 6020 5311 5344 4991 
2407 3211 4752 1060 3343 3982 3324 1273 4475 
4211 1569 4011 1595 4359 4593 4001 1735 651 
1395 2243 3372 3753 837 3647 2130 4939 3749 
1650 5756 2411 677 5099 1422 3456 5178 4503 
1763 390 459 5499 3967 1908 272 2992 1727 
2556 3548 5464 4620 443 3561 2537 4063 5843 
1531 1932 4653 1305 5810 5941 5000 4320 5852 
5779 5670 2713 1778 3074 326 1768 3888 5817 
990 3222 2402 5536 4377 5761 3905 28 3305 
3063 5371 5347 1959 1070 1359 2632 931 5483 
4389 137 4393 5467 776 99 5509 4724 5468 
3174 3151 163 5638 157 4889 5945 993 763 
3950 2559 200 1974 4928 121 492 3432 4330 
4921 2894 915 1485 4453 5991 2771 1031 4030 
3171 5721 1540 816 4805 4823 2575 3196 2472 
4360 4034 5045 4308 5019 716 664 2271 1401 
1256 5568 1249 2931 723 5800 4157 383 4474 
6028 3285 4287 421 4763 5751 5169 5004 1230 
882 5976 1210 5674 4582 3269 5447 3466 4408 
3200 4971 1687 3849 2551 2949 3590 3507 5025 
2759 1701 5691 4916 2695 4644 2756 1581 3167 
4260 2918 3540 5411 1601 3727 6038 4371 5961 
3302 2717 869 3473 552 13 3669 2879 970 
4891 1857 658 4762 438 4435 3878 2466 5748 
3626 572 40 3533 4806 5162 4509 2045 2235 
4736 3565 1728 5513 5844 4443 267 5352 4198 
1533 5157 3464 1400 2969 1664 624 2818 4547 
4355 4954 2662 5512 3949 3504 6015 4119 1263 
5032 1199 1736 1940 1792 104 4684 1611 5537 
5544 347 1247 2943 5322 3935 1935 571 3785 
4105 3550 233 875 2453 2023 2823 5173 4080 
5029 4663 5131 149 4140 1742 5214 4761 462 
722 5996 3452 1877 5120 150 3100 1919 1828 
556 239 1369 5805 2788 4321 634 896 3182 
2659 1303 1022 430 5903 1465 5191 1452 4050 
2295 1949 3158 5807 4365 5303 5356 1241 1112 
313 5736 4694 944 2438 5084 1848 1175 3968 
4628 489 3641 2987 1495 3779 3403 2847 1879 
6055 5268 4871 86 3671 3623 1286 4833 49 
4739 535 2991 4664 494 5716 1127 5192 4484 
232 3319 1393 4431 1933 4788 5097 3314 3587 
3134 2149 4159 1555 2722 5454 4976 755 1773 
1732 592 3204 5895 1213 4811 3631 64 1270 
5142 5028 1046 4083 3448 1181 3472 76 2025 
4884 1862 133 3008 1118 4828 2463 976 196 
5826 5093 3719 4799 5504 3162 388 4457 3003 
6033 3674 4086 5418 2917 3188 1814 4603 2140 
4049 2578 3838 4825 5749 690 1975 3555 5368 
3345 4158 2346 1804 3923 177 4298 4590 3213 
1607 3875 4176 5402 89 1760 5294 3534 632 
2444 4019 1103 3564 1613 1957 90 3102 4414 
2735 2011 4741 3157 2891 784 5473 1373 4638 
1794 2148 185 464 5514 3409 4809 3121 607 
1529 4591 3839 5689 2198 3952 3318 505 2751 
1010 3275 5159 1161 587 4607 4682 3852 3363 
2105 2871 6 2320 3416 436 1597 2100 6059 
2946 2714 1009 3172 4397 5967 442 1045 2357 
5636 3454 3268 2328 2815 1204 568 5799 2324 
2266 1868 1266 4608 4450 2322 3103 5943 854 
5066 1331 4660 3606 3224 4237 4698 4781 5472 
2730 1659 5623 5038 683 5922 1157 979 2744 
1660 4239 1801 2554 488 4257 1886 3105 1955 
1203 2562 1875 4104 3925 5259 565 4862 167 
2591 5130 5874 3071 4624 1795 4448 4290 4913 
6034 1159 3135 5754 129 5107 396 5491 299 
539 2152 5067 693 6050 1893 2634 1460 3482 
4033 5879 474 2394 1592 2160 2517 5123 2976 
1568 4315 3336 3611 1775 60 2265 1892 2291 
5270 2763 2362 405 643 5541 2914 395 960 
5313 1475 4288 2668 5607 2973 1189 2448 4756 
1424 5782 1694 4500 5640 4426 2633 4088 1977 
5732 5309 1730 3805 1399 2290 525 2443 5643 
4079 3742 1225 4566 3654 3518 1851 5228 4137 
4618 1972 2640 3386 4317 1147 4816 5740 1719 
80 2521 4767 4713 2143 3140 2122 739 1589 
2671 32 3604 372 5016 2195 666 4344 1117 
3787 1583 2826 3607 251 3320 1666 3771 4299 
173 1553 2584 4427 4599 2952 5299 4804 2596 
5696 3066 1332 4878 5219 1519 2385 5261 4221 
4144 2593 5037 3985 4641 3971 1064 5149 2920 
2605 1040 3481 2947 293 4180 1089 499 3759 
107 3511 2482 2439 3556 923 4420 2926 4131 
218 5163 2139 5953 3253 3053 2269 4725 2404 
2367 282 3756 2692 2470 4349 5921 6032 1748 
2797 594 361 2824 3676 3160 4398 5026 2392 
5952 4943 2985 1034 225 3080 2619 5125 640 
5911 2534 2259 4025 5902 4667 5697 792 1878 
3890 1902 2447 3330 2421 2127 585 5915 3773 
5236 3655 2006 4849 2316 4082 4577 4700 4285 
5150 3688 3873 2752 352 1712 3286 744 10 
2675 1993 967 5091 5336 2111 5195 2688 3310 
5229 1938 34 5695 1693 2238 5133 4 4766 
4707 4449 158 3259 1542 4498 2841 3333 1285 
3842 4845 1053 171 4975 350 1306 1430 5049 
5959 4983 2958 3000 2315 5515 5707 703 3810 
3156 5293 2227 893 1899 510 4868 4787 109 
623 5859 305 2666 910 2471 3522 5586 4266 
487 1791 2525 1834 2564 4906 581 2553 2481 
1746 3072 1958 1427 4914 3568 2406 169 5304 
2222 1843 2393 985 5152 774 5391 3840 3901 
2868 4623 3004 5208 2460 1264 1937 3665 4719 
3845 1295 1335 203 698 5778 3501 5058 5011 
3197 3965 6004 294 3114 1069 3816 4369 2423 
1723 226 1743 806 4709 1562 1129 2693 5166 
3002 1408 4282 1093 4581 2008 5521 1289 4810 
738 1456 5365 2096 4052 662 3297 1420 4152 
4255 2372 2498 4779 3882 170 2046 2060 1704 
1556 1340 4228 2020 4051 4556 4390 949 1646 
2597 1873 2073 2279 1212 2170 825 1945 2068 
705 4864 1049 4473 2817 3552 1590 3877 3864 
929 1982 3809 3662 3195 1774 5094 2333 1624 
713 5381 5087 1214 3026 5957 3794 574 3981 
1462 2345 5624 514 2440 1895 1224 5786 4518 
2664 4174 3153 1292 5864 1174 2029 1575 696 
3024 5861 2531 2455 4826 5190 5958 4986 2256 
5168 5246 5366 688 3701 4347 2613 2211 3012 
2915 2972 3703 2903 3046 5760 4458 4323 973 
2745 4328 2120 528 3113 2028 2371 340 4400 
3734 1190 235 5523 3051 51 1779 4984 5369 
22 5085 549 3019 3109 1486 4933 591 4043 
3899 4495 3619 2540 629 4637 5970 1122 3373 
2728 127 3900 2935 4039 1731 4138 3477 4757 
2944 1554 3082 5571 5187 1429 1036 4149 4543 
1608 31 2845 5482 5981 822 3569 3183 2026 
4381 4575 180 5249 5260 477 6023 3419 4576 
728 1291 523 5101 1992 3407 5526 4226 2983 
1150 217 709 2542 2428 5593 3468 3868 3453 
5877 2539 2522 602 3092 1606 3261 1097 4335 
452 1829 2834 3514 4782 5434 6019 964 3129 
4291 1423 1026 1939 4092 1697 135 2809 828 
3312 2760 1707 3165 4243 3052 353 6016 3494 
5393 694 5060 4368 3073 628 5471 3663 1811 
3980 4854 649 1673 4097 4679 1793 2715 4396 
3953 4383 2758 2566 5002 868 1689 5538 4966 
3062 5134 5284 5346 5675 1098 1074 2669 4312 
2896 1473 1457 4322 5384 567 356 4314 2129 
1454 6051 617 2736 1655 2979 228 4626 1193 
4600 4751 4070 852 3335 1468 4631 1991 5578 
4764 5121 782 3239 533 5287 2400 1091 3460 
3469 814 3978 5012 5362 1523 1124 2012 3970 
4759 3340 5907 172 3115 4054 579 3299 4695 
1356 381 3951 1984 325 733 3069 3375 5849 
1008 3016 4557 5599 2528 3986 2053 19 1146 
3067 3620 4585 2015 4784 1047 5330 5337 2175 
256 1297 595 4148 4169 1037 2746 4454 4041 
3572 1847 2493 3496 3855 3963 3557 1866 2565 
1350 4405 1973 5554 5885 3579 2767 146 3229 
3430 4249 4572 4837 4818 4059 1610 2001 5579 
731 4204 1330 5742 324 541 4146 453 2072 
4553 5795 3096 4346 3628 1185 796 1415 2816 
2580 4836 4533 3168 427 2878 1528 394 4410 
3347 1339 3097 3241 387 5610 590 82 5023 
1596 926 3055 4436 5277 4539 1068 1770 2614 
2151 5451 2574 3941 1202 5527 5926 4701 3987 
5102 889 155 4277 3149 3141 3471 4899 4432 
5913 1087 2805 1100 2055 3795 4651 5189 2839 
1739 5156 509 6054 5240 3175 5729 1662 2892 
2922 4569 319 2978 2657 2721 824 795 260 
4220 4520 2091 1490 5604 2157 876 4972 1013 
1536 3898 234 4240 3216 5567 6069 3582 4006 
2866 4840 3517 1055 2727 5685 897 1962 925 
887 4487 4728 3630 5973 3488 2308 3526 2391 
1436 4514 5794 1498 1898 543 334 3170 1341 
1970 4058 2431 2212 3667 1237 3431 3444 3289 
1854 1876 5254 311 5486 4472 3050 1375 3881 
2090 749 4944 3892 1653 2106 4834 4965 5489 
3247 5611 4740 119 2289 1757 2814 2477 4829 
4815 2486 5453 2629 3645 3861 2648 704 1149 
55 3527 4353 6057 5226 3081 5814 1132 2599 
1437 2964 1644 1577 5628 3090 2491 2213 2697 
371 5580 3045 108 4225 3643 3380 4297 5364 
2729 5286 5078 1771 5890 2618 4244 3863 5039 
3529 5105 2962 2104 3270 3480 6036 4858 444 
2884 1627 1738 297 5295 3807 5894 1434 4251 
4361 4629 5481 1641 2330 1580 3521 772 2607 
5984 4859 413 87 3294 3562 3538 3803 5936 
1268 5575 3851 5184 4609 349 184 5433 5750 
4802 1705 5869 416 1142 2646 1279 4143 2490 
2999 5621 4178 4926 2326 5901 1301 409 5485 
3597 2909 5478 2287 2860 1387 2065 3248 811 
4374 580 2812 5320 2102 941 1338 846 4982 
3369 3030 5562 4672 2034 341 485 4873 919 
1463 4167 4963 2252 6012 3775 26 4554 5704 
296 5367 1983 6039 3256 1560 1096 1818 576 
866 1233 4256 3202 2748 2974 5289 283 4727 
3325 5409 4551 3650 4342 5700 4416 4588 1584 
4613 5622 5477 4065 550 3437 2162 2738 1115 
2899 5224 3746 5777 3474 5422 2789 3366 2663 