# vtk DataFile Version 4.2
Generated by LIGGGHTS
ASCII
DATASET POLYDATA
POINTS 5997 float
-0.0162979 -0.0174726 0.0027679 -0.0108952 -0.0206658 0.00298196 -0.0010984 -0.0232934 0.0024588 
0.000155437 -0.0190972 0.00221511 0.00297937 -0.0231711 0.00239697 0.00438391 -0.0210901 0.00284889 
0.0079698 -0.0217663 0.00218341 0.0126314 -0.0182563 0.00261239 0.0143515 -0.0168252 0.0022513 
0.0145308 -0.0189084 0.0018539 0.0166581 -0.0171083 0.00216523 0.0125087 -0.0203203 0.00252854 
-0.00690152 -0.0117433 0.000669455 -0.00449636 -0.0118492 0.00274796 0.00192938 -0.0114432 0.00296127 
0.00199253 -0.0145569 0.0023436 0.00561743 -0.0117021 0.00227161 0.0106867 -0.0153698 0.00302726 
0.0120997 -0.0138247 0.00272367 0.0163594 -0.0109121 0.00245794 0.0145367 -0.0142643 0.00260057 
0.0190305 -0.0141535 0.000309394 0.015471 -0.00702677 0.00278008 0.00233573 0.0234731 0.00234961 
0.000816344 0.0218471 0.00301248 -0.0170514 -0.016311 0.00945589 -0.012593 -0.019416 0.00319383 
-0.0141725 -0.0188544 0.00441483 -0.0111094 -0.0172541 0.00429259 -0.0128149 -0.0172612 0.00569811 
-0.015892 -0.0176996 0.00574737 -0.0120111 -0.0204532 0.00547584 -0.0102159 -0.0189595 0.00575751 
-0.00919043 -0.0219685 0.00571822 -0.0139486 -0.0191807 0.00663668 -0.012042 -0.0186614 0.00707776 
-0.015954 -0.017811 0.00809721 -0.0139362 -0.0168489 0.00908563 -0.0128949 -0.0200772 0.00821898 
-0.0147662 -0.018659 0.00960098 -0.0114592 -0.0166131 0.00825096 -0.0119199 -0.0185005 0.00926224 
-0.0108307 -0.0211891 0.00694928 -0.0109161 -0.021286 0.00899775 -0.0102618 -0.0195327 0.00814289 
-0.00905181 -0.017394 0.00750689 -0.0096539 -0.0175666 0.00946657 -0.0127545 -0.020134 0.0105252 
-0.013261 -0.0178925 0.0108688 -0.0112823 -0.0173509 0.0108047 -0.010296 -0.0193061 0.0102335 
-0.0160616 -0.0174454 0.0109227 -0.00888274 -0.0219765 0.0105951 -0.00766415 -0.0223899 0.0035218 
-0.00369933 -0.017093 0.00437337 -0.00534675 -0.0197291 0.00311197 -0.007666 -0.0176693 0.00437937 
-0.00842686 -0.0201826 0.00473499 -0.00384084 -0.0213151 0.00413134 -0.00335276 -0.0192369 0.00407661 
-0.00192637 -0.0222402 0.0042138 -0.00344798 -0.0235788 0.00450193 -0.00578 -0.0183804 0.00517315 
-0.00529556 -0.0227353 0.00517804 -0.00669767 -0.0211026 0.00528143 -0.00746535 -0.0188564 0.0061863 
-0.00232265 -0.0172971 0.0059868 -0.00129198 -0.023954 0.00509414 -0.00119097 -0.0187847 0.00520103 
-0.000945331 -0.0165847 0.00451013 -0.00426218 -0.0167185 0.00649857 -0.00675092 -0.0169286 0.00662841 
-0.0075364 -0.0226293 0.00667351 -0.000477639 -0.0213172 0.00558146 -0.00850639 -0.0222788 0.00857554 
-0.00785795 -0.0204208 0.00780872 -0.00738853 -0.0180267 0.0084177 -0.00816408 -0.0195605 0.00959107 
-0.0016981 -0.0166524 0.00793581 -0.000670556 -0.0238427 0.00742632 -0.00704208 -0.0216228 0.00989641 
-0.00146304 -0.0238736 0.00983436 -0.00572884 -0.0176127 0.0104308 -0.00238569 -0.0167201 0.00982876 
-0.00319537 -0.0236258 0.0110387 -0.00807059 -0.017737 0.0108047 -0.000143633 -0.0177344 0.00938952 
-0.00526039 -0.0232009 0.0108244 -0.00645649 -0.019681 0.0109141 0.00710797 -0.0186114 0.00327573 
0.000237416 -0.0221877 0.00374018 0.00168157 -0.0201524 0.00337336 0.00257245 -0.0222618 0.00467842 
0.00283116 -0.0178464 0.00402995 0.00482499 -0.0231333 0.00366252 0.00478553 -0.0193759 0.00442927 
0.00705579 -0.0205247 0.00409075 0.00107541 -0.0235279 0.00518486 0.00208126 -0.0195523 0.005512 
0.00764968 -0.0176151 0.00506375 0.00535472 -0.0213981 0.00477528 0.00787801 -0.0222992 0.00528461 
0.00358333 -0.023598 0.00581431 0.00247464 -0.0213929 0.00685011 0.00522798 -0.0176521 0.00569852 
0.00600738 -0.0230892 0.00619532 0.00204412 -0.0168923 0.0057749 0.00393215 -0.0199637 0.00624644 
0.00110488 -0.019913 0.00926459 0.00778509 -0.0175029 0.00714443 0.00181729 -0.0235686 0.00719207 
0.000617799 -0.0238006 0.00900542 0.000982323 -0.0219994 0.00813444 0.000667288 -0.0201179 0.0073183 
0.00538229 -0.0187086 0.00752122 0.00413629 -0.022525 0.00762831 0.00337062 -0.017816 0.00703259 
0.0066785 -0.0206736 0.00648691 0.00320756 -0.0196816 0.0083114 0.00271016 -0.023581 0.00950357 
0.00790866 -0.0194959 0.00771092 0.00126441 -0.0178101 0.00793762 0.00414297 -0.0171866 0.0088116 
0.00663457 -0.0223238 0.00817755 0.00514768 -0.0206785 0.0078838 0.000857487 -0.0220509 0.0102793 
0.00352714 -0.0216353 0.00947912 0.00654323 -0.0191229 0.00961975 0.00174744 -0.0169277 0.00969405 
0.00488283 -0.0231986 0.00957488 0.00398829 -0.0188885 0.00999404 0.0023809 -0.0205183 0.0107113 
0.00794349 -0.0224596 0.00979536 0.00546556 -0.0208409 0.00991873 0.00559148 -0.0175996 0.0109093 
0.00818764 -0.0184662 0.0107176 0.00862603 -0.0202972 0.00564355 0.00967973 -0.0184237 0.00362901 
0.00970488 -0.0164985 0.00455673 0.00999273 -0.0214301 0.00362865 0.0119515 -0.0185203 0.00462212 
0.0137355 -0.0195412 0.00450414 0.01466 -0.0170925 0.00438171 0.0117244 -0.0205022 0.00492865 
0.016674 -0.0170268 0.00464377 0.00966887 -0.0184937 0.00580382 0.0104344 -0.021353 0.00645714 
0.0141469 -0.0191926 0.00654904 0.0122738 -0.0181908 0.0065923 0.014295 -0.0166726 0.00642423 
0.0162233 -0.0175622 0.00664642 0.00861888 -0.0222286 0.00760709 0.0100409 -0.0216224 0.00904686 
0.0105461 -0.0194335 0.00744195 0.00982152 -0.017008 0.00747897 0.0123709 -0.0203482 0.00703664 
0.0131833 -0.0172068 0.00826694 0.0113499 -0.0168857 0.00923504 0.0151813 -0.0183301 0.00853407 
0.0126491 -0.0202017 0.00907882 0.0088672 -0.0199854 0.00946779 0.010891 -0.019294 0.00944519 
0.0142944 -0.0167884 0.010024 0.0163206 -0.017144 0.00994021 0.0140308 -0.0191107 0.01007 
0.0115592 -0.0208409 0.0108112 0.0123596 -0.0181934 0.0108327 -0.0173347 -0.0163533 0.00747374 
-0.0175983 -0.0155693 0.00394405 -0.019759 -0.0134157 0.00397953 -0.0203314 -0.00908859 0.00422521 
-0.0184829 -0.00822033 0.00473251 -0.018417 -0.015059 0.00616355 -0.0222485 -0.0084338 0.004129 
-0.0201116 -0.0128378 0.00605448 -0.0208473 -0.0110121 0.0052553 -0.0189645 -0.0104052 0.00491862 
-0.0181597 -0.0132142 0.0053379 -0.0222657 -0.00845396 0.0068874 -0.0202206 -0.00879543 0.00670667 
-0.0214004 -0.0103645 0.00726362 -0.0192449 -0.01106 0.00698278 -0.0186842 -0.0130579 0.00744245 
-0.0181739 -0.00917744 0.00684646 -0.0172405 -0.0108973 0.00738033 -0.018558 -0.01494 0.00875817 
-0.0205017 -0.0120784 0.00824115 -0.0222008 -0.00889427 0.00893272 -0.0202071 -0.00960842 0.00877918 
-0.0188703 -0.00804225 0.00839707 -0.0170898 -0.0111089 0.00504939 -0.0169922 -0.00879731 0.00847649 
-0.0215112 -0.010426 0.0100594 -0.020523 -0.0083956 0.0103629 -0.0224672 -0.00825151 0.01101 
-0.0109386 -0.0162216 0.00621042 -0.00886121 -0.0162957 0.00573433 -0.0151769 -0.0161672 0.003872 
-0.0162355 -0.0156655 0.00576969 -0.011713 -0.0151249 0.00310839 -0.0164196 -0.0139518 0.00440551 
-0.0144672 -0.0131755 0.00457859 -0.0129931 -0.0111909 0.00508625 -0.0148204 -0.00996337 0.00473857 
-0.0116052 -0.00958113 0.00493076 -0.0107745 -0.0122758 0.00398882 -0.01324 -0.0150207 0.00520645 
-0.0165952 -0.00891429 0.00493057 -0.0137944 -0.00868549 0.0061017 -0.0128428 -0.013172 0.00641544 
-0.010373 -0.00822093 0.00653576 -0.0107063 -0.0140537 0.00552069 -0.014741 -0.0139023 0.00684646 
-0.0161954 -0.0124673 0.00623168 -0.0142234 -0.0112284 0.00676235 -0.0157306 -0.00982042 0.00653455 
-0.0125705 -0.0100082 0.00707788 -0.0112815 -0.0119376 0.00674172 -0.00916823 -0.0147225 0.00441786 
-0.00897467 -0.0106654 0.00475762 -0.0149702 -0.0160349 0.0074992 -0.0167867 -0.0139365 0.00758339 
-0.0150215 -0.0142837 0.00885911 -0.0107975 -0.0147534 0.00785553 -0.0130954 -0.0142883 0.0082609 
-0.0149815 -0.0123269 0.00833415 -0.0128202 -0.0117609 0.00823315 -0.0151402 -0.0102868 0.00843671 
-0.011742 -0.0105521 0.00943207 -0.0109465 -0.0125469 0.00873056 -0.0104902 -0.0102469 0.00783628 
-0.00967236 -0.00927225 0.00966046 -0.0096628 -0.0155389 0.00935356 -0.00873774 -0.00882403 0.00788072 
-0.0153364 -0.0156825 0.0103228 -0.0129394 -0.0157994 0.0106056 -0.0113794 -0.0144212 0.00975666 
-0.0133416 -0.0129157 0.0101173 -0.0161859 -0.00813081 0.0103783 -0.0138696 -0.0106729 0.00997335 
-0.0111136 -0.00980138 0.011192 -0.011597 -0.0120279 0.0108452 -0.00923305 -0.0112401 0.0106096 
-0.00976717 -0.013316 0.0106907 -0.00526528 -0.0145359 0.00324753 -0.00300546 -0.0134659 0.00451224 
-0.00408786 -0.00873705 0.00476432 -0.00295765 -0.0105257 0.0043694 -0.00595201 -0.0098569 0.00406272 
-0.00217709 -0.0152596 0.00556359 -0.00184254 -0.00856134 0.00505049 -0.00441777 -0.0152184 0.00508517 
-0.00770287 -0.00892202 0.00605947 -0.000965652 -0.0098552 0.00630988 -0.000413515 -0.0106226 0.00442763 
-0.00277878 -0.00930525 0.00702567 -0.00543151 -0.00917723 0.00714671 -0.0034006 -0.0113489 0.00665714 
-0.00316527 -0.0146298 0.00724108 -0.00035589 -0.0143531 0.00396286 -9.31416e-05 -0.0126316 0.00587074 
-0.00458856 -0.0165536 0.00914797 -0.00190008 -0.0148131 0.00892021 -0.00136919 -0.00989708 0.00869868 
-0.00380063 -0.00845825 0.0085374 -0.00345603 -0.0107865 0.00880583 -0.00177949 -0.0125355 0.00837793 
-0.000365881 -0.0144726 0.00710139 -2.6324e-05 -0.0164448 0.00659369 -0.00728023 -0.0158046 0.0105291 
-0.00350563 -0.0147491 0.0101522 -0.0081845 -0.00878628 0.0109672 -0.00482979 -0.00925648 0.0100787 
-0.00381728 -0.0123199 0.0100603 -0.00163637 -0.0114996 0.0102767 -0.00656206 -0.0103088 0.0105676 
-0.000798928 -0.0134101 0.0101401 -0.00333665 -0.0105885 0.0109919 0.00641402 -0.00818106 0.0035753 
0.00783657 -0.0130584 0.00353965 0.00615638 -0.0156704 0.00431871 0.00388547 -0.0157058 0.00491779 
0.00275034 -0.0125373 0.00464381 0.00215696 -0.0111631 0.00614062 0.00113978 -0.00925272 0.00578814 
0.00420711 -0.0106954 0.00472142 0.00641466 -0.00835649 0.00563333 0.00680878 -0.010955 0.0048028 
0.00573681 -0.0134529 0.0034726 0.00122382 -0.0141973 0.00549669 0.00783444 -0.0155221 0.0057015 
0.00385467 -0.00933458 0.00637144 0.00427003 -0.0122301 0.00628604 0.0060919 -0.0104367 0.00682804 
0.00545185 -0.0148057 0.00664354 0.00170401 -0.0154865 0.00815158 9.45596e-05 -0.0154268 0.00948429 
[...]
POINT_DATA 5997
FIELD FieldData 7
id 1 5997 int
1586 3476 1631 1007 302 2845 1555 64 773 
388 920 46 1840 158 102 151 342 1528 
1241 160 493 48 565 4347 3066 5960 31 
4968 2593 3339 3324 2824 1129 2997 4596 2981 
4825 5571 2529 5211 5959 5697 3621 5561 5609 
2854 5520 5986 5444 4187 5630 5156 4199 162 
2836 808 729 756 2482 1305 1221 2275 2669 
176 2398 671 3273 812 4306 983 706 2911 
157 1901 3593 4200 4809 5957 5879 4916 5706 
5427 3472 5956 6009 4987 4864 5654 4980 479 
23 37 2741 3495 2072 409 3807 3668 4683 
4387 5476 4094 4934 3292 4409 4346 5790 6023 
4673 2609 4733 5038 5836 4326 2703 2928 4321 
5392 5595 4333 5423 5683 4888 2765 5615 5263 
5759 2250 5131 6022 5111 5621 4137 2528 4514 
3293 5998 2103 2243 570 5326 916 179 3371 
154 3498 5509 1513 5155 2301 875 2160 4705 
5618 5143 1690 3977 1995 5006 3227 5383 5125 
5809 1599 4840 1464 229 4351 1045 3217 65 
212 3770 332 2038 587 1972 2444 2025 4166 
2652 2048 4348 4868 4112 2414 4829 1136 4717 
5068 676 5224 4907 5146 5420 4475 618 1968 
4480 1649 397 1810 1284 3570 611 1016 1217 
1111 3166 614 1694 3758 13 1008 1449 1150 
2727 4905 764 1913 4724 644 2520 6027 4320 
4237 3632 2740 5195 5799 3400 1353 3999 3790 
5540 5120 5603 5370 2458 4286 4598 4738 1714 
5789 1670 2049 186 1119 2552 1372 970 3637 
2946 641 1141 949 2388 2339 2728 16 85 
5201 5304 3396 2193 3683 4211 5536 5705 5310 
5507 5605 5629 5181 4283 5989 4665 2952 2091 
580 1100 595 1747 621 1039 1730 749 83 
1738 2633 1571 1110 3390 3794 4549 5796 3017 
5255 69 504 3697 2442 4129 5915 4466 2684 
5490 5734 3596 4136 3513 5180 6055 5806 5065 
3546 4744 4543 3308 2673 14 2595 379 2298 
3022 1811 578 230 1875 1499 849 181 640 
1543 1729 1228 2770 1254 2799 425 1399 631 
3970 1051 3275 3207 973 1639 1722 5215 155 
1338 2138 1554 2384 1302 3012 1070 625 733 
3821 2278 278 2748 2637 1504 59 962 364 
213 1013 61 702 856 637 286 550 597 
760 1776 657 378 854 215 1406 185 443 
3188 273 1226 1186 1614 633 484 432 56 
627 3272 11 4 77 647 1304 86 689 
72 259 210 366 1474 285 1856 2464 295 
1089 558 791 246 145 3584 2342 489 1866 
1320 1163 1059 708 2877 419 447 3381 1064 
453 3032 2296 2135 433 1760 963 2805 1511 
219 830 1343 884 518 4631 4935 1501 473 
2424 917 2073 3544 2792 971 1215 2558 20 
2234 166 649 626 1067 223 761 2226 2070 
34 568 719 2868 554 1096 142 687 1172 
503 769 464 718 1337 781 226 2408 991 
2372 241 599 805 1262 456 269 463 2453 
3078 2804 656 1378 3002 243 403 899 1400 
913 824 1473 452 369 709 1505 184 759 
2127 704 326 218 1838 546 770 592 2039 
1425 553 1546 237 2242 1269 2716 1339 1021 
98 3109 2005 2100 511 1074 1019 427 58 
564 2567 789 1191 3073 2572 519 1698 2040 
1318 1703 1655 2017 624 1921 1692 472 1375 
1664 1062 1772 1176 880 107 1369 1757 2 
1604 543 1492 274 131 1906 648 103 1842 
675 2062 3623 2420 1891 1648 1695 395 2228 
2293 363 902 1084 1930 1630 3160 252 1068 
1195 1308 3287 1824 1857 100 2354 1073 1733 
988 108 109 661 711 445 1755 480 87 
206 1540 491 408 1570 1 1126 138 2856 
1675 1094 228 92 573 2255 1880 122 1767 
1001 1165 475 2626 3397 1360 1509 1205 905 
413 1815 344 32 598 63 347 340 18 
437 1347 1775 3331 1218 636 1526 981 1742 
1294 1047 105 68 731 298 261 439 732 
1430 818 799 1121 728 974 690 796 354 
57 110 442 91 820 754 1769 577 367 
488 156 1248 748 943 420 1043 751 268 
71 115 794 995 1002 848 619 123 890 
904 582 457 531 171 238 1028 861 586 
668 199 224 737 783 172 723 541 540 
214 383 2612 1223 362 455 999 1829 1402 
211 2212 1066 1390 1389 1299 137 1159 180 
684 878 606 2330 1322 882 414 271 939 
844 887 497 2403 2076 1190 270 284 126 
2067 2338 1237 392 2471 1267 1058 2470 940 
352 1564 1441 1658 22 912 2320 494 544 
1249 1329 3565 1010 1283 2240 36 2906 1956 
623 2581 804 2258 1493 318 200 1124 1314 
1197 1230 467 2451 1636 1808 727 677 2343 
581 1627 1483 29 2513 966 3548 643 1672 
2112 1765 3037 426 5 1376 2762 1490 334 
2208 778 537 2998 1440 1415 15 860 1637 
3391 1801 3462 852 244 694 1187 921 2625 
2016 994 3151 2116 2187 234 1077 1899 1398 
2263 1104 1419 2720 168 2037 301 1227 1768 
713 3572 1103 1668 1933 1529 944 1576 2756 
825 3444 2648 1669 823 2613 2249 2907 5735 
1220 2583 1619 2113 3082 3322 316 124 2143 
1088 1629 817 2440 1481 1624 1035 1881 1545 
2780 4229 1229 2069 1527 3494 1365 2084 833 
2753 2399 1332 351 1152 2823 2171 788 3348 
2474 3277 2701 3960 2869 2645 283 1761 444 
1717 3569 1079 4022 2958 2592 2986 1979 2498 
2065 3540 3394 1973 2051 2534 3239 3958 712 
469 779 870 2133 390 144 1900 743 2401 
741 1589 1958 734 2681 4084 2173 2114 1282 
695 2313 94 348 150 1781 2130 2550 3478 
1932 2169 169 1426 2724 1042 1666 396 926 
393 1331 1386 2890 1225 1275 355 2594 1080 
128 1652 1907 161 2736 2539 2659 1295 1678 
313 1137 1143 4955 25 2332 950 343 373 
1041 254 361 359 961 132 766 113 2692 
371 1222 281 227 1603 1680 76 1200 771 
1167 798 38 328 978 1432 1523 1132 205 
277 399 391 1367 35 662 630 73 325 
249 681 1033 1020 1642 320 96 1350 315 
660 907 291 152 526 1662 93 1587 898 
1065 8 377 539 1321 1198 622 89 969 
1265 189 931 1106 601 784 610 292 1848 
1735 1565 3124 800 505 836 1288 2050 173 
1424 506 2102 402 1025 845 1161 813 55 
646 2776 140 2239 2561 1626 353 21 672 
1582 450 2452 507 1263 2508 651 3906 1026 
1410 4557 1333 1213 1912 1595 534 1475 857 
2224 5481 763 3184 2350 3762 4062 1173 1107 
1427 3512 2059 1947 1676 1544 566 3103 4581 
2319 4970 2422 2425 3909 5278 5393 801 4024 
1168 2794 3219 4053 3289 3452 481 1858 989 
3496 2605 5042 1746 2327 841 3785 4582 509 
1108 333 4883 4519 1751 4880 2274 3340 4090 
2229 5810 3384 5642 5254 5564 4679 5200 4223 
4860 3741 3172 2943 4357 1610 787 5357 4521 
985 1279 4372 536 1944 458 1991 517 1264 
5353 1607 972 2503 275 3009 4646 1928 2924 
2631 2537 3193 220 1330 3990 3215 2912 3648 
3388 4162 2812 4392 2162 5941 6017 2839 3932 
4015 3776 4280 2713 428 579 1182 3585 2735 
471 2036 7 502 4249 2777 1812 1562 1744 
4565 2883 1559 33 3901 2198 1889 4971 74 
2849 2803 1443 4086 2269 3784 4191 2280 2555 
4703 2689 3069 1027 666 1904 3989 747 2597 
832 683 1098 3163 1444 3610 2221 2390 1072 
4551 309 239 1278 2154 1640 2600 382 2646 
2071 2838 946 3590 634 1946 159 2950 2244 
4958 4225 4433 3313 3559 4731 47 175 730 
4202 2564 3985 4381 4909 5550 79 3350 3140 
5014 4490 2122 2879 4256 5282 5729 4234 3662 
2683 3946 2811 3433 4495 1592 4315 4141 3984 
3153 1105 979 4406 4816 4850 3746 3711 1645 
3253 4632 4262 4835 4919 3301 1606 4713 1890 
5589 4272 4572 3195 2578 5275 4979 3018 4107 
5750 4327 4535 4605 5662 4158 5103 5082 146 
4795 2322 2030 5115 3837 4671 3748 28 4478 
3963 4591 5174 5416 2757 4559 4294 4932 4643 
4383 5390 1368 5884 4532 4773 5828 5794 5204 
5421 3236 5862 477 5510 3913 5176 3795 5573 
3306 5359 5671 5711 483 1549 3479 5202 1081 
5538 5410 2705 4664 4011 6064 3680 4580 4858 
1459 4722 5841 6053 4266 6041 5133 5592 4965 
5933 5844 5262 5157 4995 6046 5694 5824 5608 
4235 4940 6066 4496 5029 5497 4855 4410 5391 
4460 5506 5212 5486 5470 4876 4522 4401 5054 
4666 3285 5268 5808 5899 5446 5969 5677 5950 
5843 5166 4706 4996 4312 4923 5727 4877 5887 
4806 5150 4786 5112 3353 5183 5514 4692 4570 
5270 5935 5885 2325 3465 4462 4402 5788 4140 
2723 2518 4939 5953 5184 5300 3859 4721 4197 
4350 4004 4542 1239 4873 134 5742 3171 1716 
5565 5041 4530 4791 4657 4912 6006 3800 1934 
1069 1274 5947 3779 3491 2531 4305 3652 304 
3811 2121 2772 1977 3699 4655 2739 2281 4042 
1484 2874 918 3774 2917 2008 293 129 1465 
1728 837 4228 1148 3120 3729 1232 925 545 
5189 4424 5627 5447 5768 4745 5135 2109 4378 
5818 3789 5857 5632 3625 5485 4393 5419 4982 
4127 4526 5755 4650 4784 4403 5848 5283 4135 
4875 5075 5122 3885 4621 5365 4760 6057 6036 
3930 4944 3712 4999 5348 5451 3240 5914 5074 
5582 4793 5680 5106 5113 3566 5100 5316 5099 
4241 4699 4506 4956 5781 4799 5965 5770 5333 
5277 4602 5094 4649 5182 5238 4984 4510 5619 
5778 4693 5347 4688 4558 5541 5596 4054 5685 
3825 5877 6070 6032 3630 4429 5628 4328 5382 
5955 3162 5036 5687 3505 5893 4161 4201 5331 
2058 4075 4846 5860 5178 5474 4600 5198 4763 
5882 4976 4398 5647 5607 5643 5563 5569 4698 
5411 5963 5199 5756 5206 5261 3917 5149 2800 
4750 4215 5086 5373 3549 5440 2568 4859 4647 
2927 4861 5454 4184 4450 2922 4687 4638 4285 
1879 5433 5585 3992 6016 3995 3028 4445 3987 
1003 4836 3267 4513 5137 5674 5710 5997 2878 
6008 4106 5780 1171 3988 4407 3515 5883 416 
4917 5551 3743 3659 2297 1754 3402 2456 4456 
5299 1037 5820 1945 1046 3038 2817 3862 3723 
338 5045 2371 3460 528 305 3817 3201 5542 
496 3122 2276 628 5637 2797 2057 2386 3690 
4743 1720 4168 3127 3822 3183 5379 4798 2118 
1951 2379 3925 45 3525 5675 1178 2045 975 
2096 862 1699 1193 17 714 908 1346 1552 
602 67 208 720 693 1048 609 404 584 
757 967 1319 70 703 1285 1286 446 1151 
2289 1115 5376 2423 4431 4446 2074 3274 2417 
2271 4610 5015 1114 2364 1307 2376 2409 2290 
3225 1421 1482 3029 174 1711 2576 1411 1983 
2454 81 1383 3327 4025 2230 560 562 4789 
2304 4389 2190 3664 1580 2507 1787 1261 5279 
3412 5235 3874 3725 462 3852 3221 2366 5749 
1404 2655 279 802 2374 863 2560 50 1766 
2331 936 2833 2337 1207 5223 2708 163 3200 
3945 2134 2416 3937 2717 1745 3053 2893 5116 
3708 5228 5043 1502 2203 2847 3366 2598 1534 
1532 1457 3564 2480 3376 2264 3756 5725 5714 
4788 1681 1326 1301 2832 4660 5340 3019 2664 
5002 2410 3202 3 3553 1651 1525 2115 530 
3777 2629 4527 117 2495 2954 1633 3284 2670 
3232 2253 5701 4252 3189 5874 5354 5023 4952 
1401 5475 2617 3732 2385 4702 3317 3851 1158 
4691 4886 4017 5512 5377 5814 2976 3052 4772 
3059 2303 1784 3077 2095 4292 790 3074 3827 
3606 3158 380 1783 2915 478 1189 716 1468 
1567 2545 3603 2222 1520 195 1942 312 4258 
3229 2527 2254 1453 2369 3749 2300 4719 5117 
4777 4969 5539 4150 3501 2925 650 2971 3577 
5751 2191 1315 2892 2815 4885 3720 5097 1938 
1090 2535 3545 3467 1893 3352 1506 1723 1777 
2429 2499 251 1146 482 2317 3164 752 1594 
2001 1209 247 2457 1325 1183 255 910 529 
2657 2521 2344 1581 4563 1289 296 1661 2200 
3436 2439 1408 2532 2693 2149 2855 1391 1598 
1053 583 1235 2145 847 1770 9 1078 957 
62 692 232 1584 1071 235 964 816 1429 
1017 998 1351 1572 1550 1843 549 193 2288 
881 894 1015 30 679 740 1049 525 1521 
368 310 935 588 1359 866 262 782 557 
470 851 1177 148 290 1486 95 147 495 
1113 1202 945 178 1004 101 1724 1539 1169 
436 1054 750 287 953 952 1382 263 797 
1538 2541 889 461 1691 183 686 2842 1379 
1199 959 1885 1122 3234 1250 1253 3148 3001 
1786 424 2533 879 2707 1412 2285 980 3341 
3556 1268 407 2432 2183 1718 2530 2421 2446 
2023 3192 3010 2509 2151 2944 2467 3665 2152 
2450 2028 2378 118 2007 2677 182 2351 600 
2387 1779 3813 1518 2345 3033 1428 938 670 
2512 330 97 1354 1300 2085 3075 2341 1276 
2904 1032 955 2043 2697 3518 777 1919 1969 
253 2916 552 375 2155 1753 2299 3100 2018 
356 2389 1030 3873 2778 1954 3067 937 2744 
698 3297 2483 327 1316 742 1998 864 2975 
2312 3802 2215 2000 1952 3000 3071 3383 1836 
1653 2465 2014 2846 2687 1036 2658 3159 2287 
2650 2696 947 2501 3238 2201 3823 2732 2711 
3629 2433 2902 1817 1214 3118 1370 1807 1476 
2957 3633 1920 1130 1510 3554 2053 2602 3903 
3724 4273 1797 3466 2088 1876 3427 3389 350 
4531 1145 2261 1092 2490 3360 2307 1819 3403 
2129 1792 513 2764 1006 2158 2930 299 1936 
1990 3266 1488 3672 4817 2968 2806 4172 3624 
3300 3831 501 3329 960 1472 3521 2830 2880 
4468 2206 3734 3049 2665 2962 3224 2808 3398 
4063 2661 2329 3986 2967 3136 2875 2775 4583 
322 1663 1127 3771 1763 3679 4176 3537 4553 
4332 2691 2759 2942 1535 508 111 1887 1491 
202 265 1451 745 3358 5896 4068 810 1939 
2083 1849 1641 3178 1850 3081 2019 2080 822 
753 2485 3561 1336 448 2139 603 658 3244 
248 892 1394 1888 3594 2238 2136 613 2107 
4515 141 815 1578 846 112 976 593 1256 
885 1579 2167 276 1272 466 620 3374 1204 
1153 4336 4119 2031 793 2825 1435 735 2738 
3510 900 372 1845 4753 1667 257 1203 843 
755 400 498 3386 1174 874 329 242 744 
297 608 116 2348 1813 1147 3607 819 40 
2463 2098 877 258 951 669 922 3119 2192 
197 928 3531 3693 659 3283 1101 1281 4308 
516 1175 1566 3333 635 365 2763 1240 2213 
2905 4231 1063 27 2900 891 49 3489 3558 
1646 2353 3670 2360 2695 699 807 2009 3728 
3014 4230 3380 3552 1986 4307 4190 4361 4411 
4104 3539 2929 3996 4313 2698 4959 4524 5243 
6059 1679 2630 4204 4908 2400 2427 3752 2081 
2266 3271 4589 3416 4464 5000 4173 3788 3592 
2884 3526 4896 4756 4764 5165 2774 3058 3781 
4617 3004 4030 2965 3883 4037 4382 4505 4246 
4870 5091 4473 5140 2979 4966 3407 4472 2940 
5921 2990 3895 4096 5753 4369 3694 4310 5005 
4097 3994 5566 5207 4597 3896 4900 4484 5655 
5319 5801 5309 3294 5483 4540 3522 3681 5861 
4577 3483 3910 4575 5242 3323 3260 2596 5700 
3268 2795 3967 5929 4055 5286 5922 4298 3857 
2608 4785 4108 4396 4065 3520 3367 3311 4329 
4263 532 5478 3907 5121 5982 5868 4070 4623 
3739 2760 3470 3844 2179 2945 4232 5291 3695 
3086 4023 1997 3170 4437 4512 3506 5829 5731 
3900 2462 5599 4248 2951 605 2380 1397 5168 
2828 1834 2983 5288 4700 4819 4537 5919 3791 
2649 2267 3421 4762 2870 5739 3819 3595 5409 
3661 4454 4882 4300 4124 4792 2235 3677 2781 
2733 4768 5718 3083 1759 3586 1804 3226 3441 
4746 4937 4734 5522 3251 5728 1342 1712 1961 
4985 2207 3316 3527 1820 423 4451 5386 5772 
256 4458 5876 3413 3355 3068 5098 4737 2373 
6007 1349 3940 2437 1992 3347 2584 4871 2725 
4033 1498 2365 4654 5847 3657 3440 4120 2647 
4370 5911 4533 3312 3865 4343 4181 1993 2821 
5719 4476 4355 2316 3165 3346 3759 3620 2147 
2101 2438 5574 2054 4146 3111 4009 4567 4001 
1709 4147 4925 5161 5901 2964 5702 3583 5917 
4354 4667 5193 4422 5813 54 4585 4590 4207 
5623 4206 5678 4518 5422 2852 1160 3177 5992 
4964 6011 3674 5920 5707 5673 4028 4775 3447 
1833 4685 5556 485 5588 3713 1878 4416 2265 
5350 5659 236 2941 4624 2585 3924 888 5849 
5056 5949 465 4771 903 1125 4890 2809 5765 
5803 1417 1855 3477 2241 3043 1355 4269 5761 
814 2260 1485 5667 2881 3576 2431 2377 1296 
722 3639 4340 3245 2391 3653 24 3102 3406 
1949 4021 4653 1697 1515 4612 1533 1311 5508 
1144 762 2068 5482 4449 5413 1886 4534 2055 
4866 5717 5951 5266 4352 5346 2097 5823 840 
3980 2909 5312 3344 2955 5763 932 2497 4051 
1547 1789 2934 4830 6060 5428 5258 5019 5437 
5301 5657 5412 4953 2218 5908 5375 6065 4236 
4455 5679 5321 4675 5001 4290 4253 4949 4078 
1234 5013 5892 4748 2747 5281 5107 5777 5744 
5758 5297 5403 5611 4593 5894 3783 3254 4847 
4913 3926 5985 5132 6039 6010 4426 5644 5330 
3618 5037 3754 5274 5089 5923 5450 4365 5145 
4208 5339 3084 5932 4259 5743 4132 5487 3650 
1519 6052 3921 2956 2987 3649 2056 5832 5203 
3944 2099 4747 5147 4954 4220 654 5645 4170 
3651 5153 1981 5177 3735 4926 680 2412 1290 
2283 3646 346 1257 858 1138 2194 1987 3418 
80 294 1602 717 3880 1593 1708 1236 307 
2124 5241 4906 4824 5926 1455 5434 5641 3780 
4823 5496 3191 5034 4463 4214 3915 5105 5247 
2090 4712 4287 5558 5253 6005 5488 4114 3591 
3214 5533 5553 4545 4071 4498 4802 4711 5505 
5459 4000 2993 5943 3168 4145 3991 5968 4142 
3877 5169 4770 5907 5059 5067 4277 5101 3667 
3356 4865 4895 3772 4634 5366 5130 5698 6031 
5025 5954 3914 4899 4752 5324 4219 5044 4797 
6054 6038 4710 4853 5010 4812 4541 5518 5658 
5898 4443 4893 5524 4778 4319 4243 5993 5218 
5384 1823 5530 3357 4441 5858 5626 3142 4838 
5817 5484 4335 5593 4754 3588 1705 3673 5531 
4342 3243 5903 5020 5797 5648 5152 3682 1903 
3983 4384 5544 4604 3927 5715 3011 6062 4818 
6040 4380 4894 5142 5676 4628 5962 3953 6028 
5795 5397 1902 642 2601 3302 2078 1732 1489 
3246 2745 4118 1438 1659 4636 4233 2108 1859 
5109 4260 1865 2032 3580 5740 1758 1643 12 
4568 1884 4284 4377 1688 3222 2662 6029 930 
1291 527 691 454 1297 10 1233 896 201 
435 776 1395 1381 667 786 4981 5269 5927 
4457 2466 1500 2510 3401 2819 2223 3535 1461 
2843 2876 982 3085 1628 2131 4057 1940 4652 
3475 3968 2579 3486 336 2899 1924 3146 1950 
3455 5704 2641 4961 3524 2515 4186 3843 1635 
5032 4618 5138 4892 2519 2181 3700 4218 3025 
2999 4019 4216 2788 3702 5372 4152 1854 2406 
5567 4983 3671 1671 2610 3453 4504 4481 4076 
5991 5327 5374 2761 3614 2159 3457 3256 2566 
2569 3760 2816 3972 4550 4238 4400 2493 6024 
4059 4175 3115 4185 3041 3090 3031 5079 4491 
5682 5688 3861 4046 2358 4640 3507 3395 4111 
5114 5442 4143 3279 4578 5516 2853 5221 5784 
4822 5322 3599 4179 3368 4435 4375 5774 3969 
5329 4947 5863 4967 5805 5939 5996 4012 6012 
5504 4997 4595 4008 4951 3978 5689 499 5881 
4843 4701 3050 5473 4614 5964 5766 3065 3372 
3912 5613 1309 4500 4986 5401 2861 5167 5248 
4720 4267 5069 3828 4684 4003 4157 3950 3918 
1996 2807 5225 5308 4425 2022 4928 3481 548 
4686 4783 5631 3314 2003 4092 775 5240 5205 
4950 1897 4672 5811 1955 1605 207 4801 785 
585 1131 2077 2318 99 4461 2413 133 130 
1352 1463 2006 492 2980 2651 3902 1982 2672 
5931 2682 4539 1910 1005 3719 1805 4911 2355 
1334 4293 4639 663 1112 1244 1292 673 136 
104 1095 240 655 370 685 384 774 1673 
867 1563 1830 522 1149 1116 984 827 639 
440 314 88 51 1782 222 260 576 1771 
612 1344 1644 765 1731 738 317 567 1075 
1560 4073 412 2195 821 1056 2496 4101 1507 
3519 3445 4637 1118 2245 2126 1638 4440 3799 
2383 3378 3027 2706 1953 449 3034 3093 3678 
3286 4130 4493 2570 3488 3199 3155 5467 2966 
3796 1970 2959 2730 3030 3855 3942 1588 2992 
2988 2702 3547 3949 2591 2455 1363 2618 2961 
4254 3698 2336 2734 3641 2294 2850 2786 3459 
1609 66 3451 3745 1384 2903 3298 4644 3007 
2125 2333 2346 2064 3523 2771 1702 2178 3060 
2785 2478 1157 4026 2678 191 2793 2790 2666 
2615 3740 2837 3602 143 2644 3252 4165 4779 
4448 4414 1894 1512 2506 3480 3773 3072 3410 
3571 2972 2184 6030 5057 3431 2923 3138 3415 
5260 3514 2829 3502 3808 941 3643 4089 3338 
1802 4317 2196 3908 3581 3493 2926 3262 1748 
2426 5344 3131 4356 3196 1454 3750 3133 3008 
1965 3013 3369 2712 2635 1984 5073 4805 3975 
1706 3841 2994 3330 3763 3270 2491 3830 5306 
2953 4465 3337 3638 3839 4587 3727 715 3079 
3315 3955 3209 3332 4820 1210 3645 4436 2256 
4561 2755 2718 2750 4255 3419 4904 4110 2660 
4270 3449 4787 3573 5046 3928 4189 2153 3916 
1418 5746 1994 2937 2931 2767 4314 4080 4151 
3997 4459 3628 2798 3890 3504 2963 3582 5890 
3872 5620 2791 2021 1978 705 2176 2628 1364 
2544 2865 701 1185 1433 2511 4715 1093 2434 
965 1340 2075 617 3149 3897 3104 2580 2046 
1585 474 2978 2494 1423 616 4399 2292 2251 
2165 1310 2586 3343 4391 2989 3611 2818 1612 
2589 2667 1405 1883 1844 2443 3114 127 1120 
2273 357 75 604 909 300 139 1752 987 
231 422 1029 968 389 1700 1517 1569 726 
5187 868 1139 1895 1273 52 1024 2237 1140 
1133 1825 460 638 337 1548 2306 321 2411 
2543 1925 2448 2199 1687 1872 1739 1494 551 
710 3054 1022 1976 829 1243 2459 2252 2079 
924 1686 547 2012 883 2063 3560 3213 929 
476 2841 2117 3636 1701 934 1756 2571 2619 
2060 1280 3303 1721 1791 3094 2577 3089 2858 
2286 1531 1439 149 1361 2859 2436 2913 1162 
1922 401 3261 381 3601 2524 3941 4641 2562 
4103 3842 4198 2826 1623 4796 2624 1541 5840 
2676 4309 4167 4159 3490 3463 4552 1298 3962 
4548 3555 4180 3446 1192 2554 2679 2246 2305 
2141 2468 1713 3424 2447 4363 2504 2087 1622 
2309 3040 5430 5880 3265 4303 4044 4726 4682 
5343 3497 4599 3838 2549 3125 3194 4716 3634 
5491 5090 4368 5402 3886 4010 5952 4188 3764 
5060 5526 5439 3167 2671 4810 2742 3894 4304 
3320 2086 4395 1847 5576 3568 5912 1743 4903 
2802 4083 3551 3187 5307 1918 5477 2919 2752 
5236 2974 1882 5974 1931 1385 5752 5661 2882 
4704 2381 4430 2093 3617 1892 2565 1704 106 
4656 590 5233 2773 653 2995 4930 4125 5537 
1869 2743 1785 3644 3055 2205 4002 3290 3420 
4588 272 1462 3696 5160 203 2873 4349 4052 
1553 1231 2150 3840 1184 3005 4723 4339 4029 
4093 3026 5063 5798 871 2370 4323 3152 5035 
4217 3471 3448 3223 5039 4069 1099 1896 4608 
2180 1377 1076 2405 3635 1963 1181 3319 1877 
4251 1011 2863 4670 1061 2546 2189 1674 4732 
1558 2553 1537 5077 1087 1448 2709 2685 2866 
2614 1852 1246 1822 323 1480 2010 915 1357 
2938 4592 135 1611 2210 2779 1827 1219 2404 
2157 1794 2397 2430 4808 2840 5930 4938 3129 
1923 4311 4371 1839 3276 3482 2622 1503 2441 
893 4839 306 3731 2209 2356 2563 319 4344 
2844 2382 2202 2827 2029 3609 510 2334 394 
4482 4497 2970 3575 5318 2435 2247 855 4887 