# vtk DataFile Version 4.2
Generated by LIGGGHTS
ASCII
DATASET POLYDATA
POINTS 5997 float
-0.0167824 -0.01697 0.00768261 -0.0168587 -0.0168905 0.012553 -0.00978003 -0.0184313 0.00600574 
-0.0099567 -0.0217106 0.00599983 -0.0136064 -0.017281 0.00599958 -0.0111377 -0.019899 0.00599911 
-0.00870808 -0.0201489 0.00599996 -0.0142093 -0.0191863 0.00599929 -0.00895498 -0.0172538 0.00739516 
-0.00903633 -0.0220785 0.0078285 -0.0117416 -0.0179958 0.00609365 -0.0112579 -0.0192174 0.00792741 
-0.0128112 -0.0201347 0.00706794 -0.00950007 -0.0201531 0.00809682 -0.011188 -0.0212205 0.0074974 
-0.0132396 -0.0173333 0.00809617 -0.0160054 -0.0177492 0.00599991 -0.0107912 -0.0172913 0.00818459 
-0.0142765 -0.0191407 0.00799656 -0.0121847 -0.0205588 0.00909988 -0.0103263 -0.0215645 0.00926757 
-0.0102888 -0.0189728 0.00965886 -0.0120545 -0.0180059 0.00955918 -0.0157087 -0.0181048 0.0089302 
-0.0096281 -0.0170817 0.00979726 -0.0135656 -0.0193258 0.00985638 -0.0118206 -0.0195499 0.0108069 
-0.00910022 -0.0204222 0.0103553 -0.0142982 -0.017346 0.0101256 -0.0166212 -0.0171413 0.0105842 
-0.0107492 -0.0180895 0.0116533 -0.0109514 -0.0213163 0.0111501 -0.0130145 -0.0180888 0.011466 
-0.0101478 -0.0198867 0.0122915 -0.0124191 -0.020402 0.0125129 -0.00905858 -0.0170233 0.0117115 
-0.00972866 -0.0218041 0.0126741 -0.0153471 -0.018417 0.0114458 -0.014051 -0.0192663 0.0127064 
-0.00857306 -0.0222627 0.0111111 -0.00843489 -0.0188682 0.0121591 -0.00835166 -0.0185978 0.0100351 
-0.0142786 -0.0167379 0.0131627 -0.00797957 -0.0220487 0.00599991 -0.00769392 -0.0221751 0.00931985 
-0.00762341 -0.0184691 0.00599967 -0.00751747 -0.0208144 0.00753101 -0.00792946 -0.0189195 0.00801942 
-0.00691225 -0.0229253 0.00764283 -0.00633377 -0.0203196 0.00599911 -0.0018795 -0.0238646 0.00599949 
-0.0027519 -0.0220671 0.00600018 -0.00587485 -0.0224716 0.0059985 -0.000756967 -0.0219376 0.00599971 
-0.00447225 -0.0210489 0.00599912 -0.00363201 -0.0182878 0.00608202 -0.00273125 -0.0200688 0.00599885 
-0.000879157 -0.0237242 0.00772474 -0.00562283 -0.0184511 0.0059999 -0.00415501 -0.0234909 0.00599972 
-0.0029092 -0.0236951 0.00770512 -0.00147604 -0.0198426 0.00753579 -0.00405094 -0.01986 0.00754993 
-0.00168669 -0.0181296 0.00651763 -0.00365981 -0.0218428 0.00776744 -0.00671373 -0.0174385 0.00745146 
-0.00166014 -0.0218189 0.00777995 -0.0049675 -0.0233546 0.00782158 -0.00559262 -0.0213481 0.00762858 
-0.00294463 -0.0182756 0.00806492 -0.00493981 -0.0181403 0.0080503 -0.00598532 -0.0231915 0.00953508 
-0.00275118 -0.0204877 0.00893281 -0.00734251 -0.0202109 0.00942824 -0.00249994 -0.023763 0.00966146 
-0.00469772 -0.0206561 0.00935203 -0.0039924 -0.0188137 0.00968084 -0.00648339 -0.0184098 0.00930237 
-0.00204921 -0.0218841 0.0101804 -0.00615298 -0.0214076 0.0104966 -0.00408175 -0.0225426 0.00959232 
-0.00338216 -0.0205545 0.0108547 -0.00152609 -0.0239223 0.0114009 -0.00669469 -0.0230121 0.0115568 
-0.00518906 -0.0171408 0.0110464 -0.0055658 -0.0194823 0.0107182 -0.00710068 -0.0176665 0.0112846 
-0.0036357 -0.0235768 0.0112967 -0.00281449 -0.0221546 0.0124806 -0.0046381 -0.0218953 0.0117049 
-0.00389154 -0.0182018 0.012135 -0.00759108 -0.0206081 0.0116522 -0.00490719 -0.0198693 0.0125658 
-0.00777574 -0.0225652 0.0131785 -0.00297431 -0.0202149 0.012939 -0.00622837 -0.0213252 0.012925 
-0.000502779 -0.0238497 0.00968423 -0.003585 -0.0166841 0.00994634 -0.000271026 -0.0223393 0.010974 
-0.000263266 -0.0194348 0.00599977 -0.000184521 -0.0238996 0.0130334 0.000118916 -0.0238832 0.00599891 
0.000970232 -0.0225577 0.00722678 0.000999793 -0.0209836 0.00599741 0.000252893 -0.0207971 0.00783946 
0.000412478 -0.0178481 0.00700943 0.000586023 -0.0222551 0.00916599 0.0017878 -0.0237948 0.00856365 
0.00223133 -0.0237433 0.00599991 0.00174263 -0.0189486 0.00599991 0.00280017 -0.0221887 0.00794299 
0.00237919 -0.0171146 0.00737138 0.00284874 -0.0217411 0.00599805 0.00556685 -0.0199585 0.00698665 
0.00351622 -0.0180215 0.00599959 0.00382459 -0.019997 0.00600753 0.00431742 -0.0235576 0.00599928 
0.00550562 -0.0182229 0.0059989 0.00711614 -0.0207442 0.00599909 0.0074637 -0.0187755 0.00599967 
0.00468045 -0.0217414 0.00679849 0.00620104 -0.0230345 0.00669191 0.00669303 -0.0177351 0.00754754 
0.00234728 -0.0203254 0.00731843 0.00461914 -0.0178308 0.00774632 0.00421005 -0.020299 0.00841417 
0.00601946 -0.0191694 0.0087676 0.00768452 -0.0226236 0.00796732 0.00613274 -0.0211468 0.00848973 
0.00422848 -0.0235838 0.00799583 0.00295605 -0.0187432 0.00837676 0.00257906 -0.0208985 0.00944935 
0.00486203 -0.0178162 0.00973056 0.00596335 -0.023102 0.00886258 0.00131935 -0.0238199 0.0105056 
0.00341556 -0.023705 0.00981789 0.00439655 -0.0220037 0.00944273 0.00748928 -0.020456 0.00978409 
0.00747065 -0.0226619 0.0100993 0.00368856 -0.0193823 0.0101232 0.0016798 -0.0219026 0.0109247 
0.00539765 -0.020418 0.0102009 0.00523964 -0.0233018 0.010714 0.00172908 -0.023796 0.012465 
0.00361382 -0.0236951 0.0118067 0.00687443 -0.0228492 0.0119977 0.00386887 -0.0208693 0.011447 
0.00504676 -0.0189241 0.0115152 0.00501665 -0.0222159 0.0123779 0.000783052 -0.021801 0.0127068 
0.00275955 -0.0220717 0.0125967 0.00660605 -0.0211346 0.0129879 0.00341952 -0.0193151 0.0126219 
0.00497522 -0.0174281 0.013103 0.00800767 -0.022533 0.00599812 0.00794919 -0.0206488 0.00781428 
0.00807018 -0.0208802 0.0116497 0.00329837 -0.0167387 0.00910642 0.0083249 -0.017074 0.00659913 
0.00336424 -0.01668 0.0121844 0.00909362 -0.0204489 0.00599963 0.00853515 -0.0187421 0.00768739 
0.00917691 -0.0221335 0.00920259 0.00947616 -0.0219748 0.00723329 0.00935654 -0.0201441 0.00914099 
0.0104109 -0.0199817 0.00742944 0.0101731 -0.0175945 0.00767805 0.0110925 -0.021119 0.00897762 
0.0114311 -0.0209381 0.00599984 0.00958127 -0.0185096 0.00599961 0.0112328 -0.0173826 0.00599797 
0.0131979 -0.020001 0.00599993 0.0139585 -0.0181513 0.00599914 0.0123897 -0.0184906 0.00719157 
0.0150592 -0.0186537 0.00758997 0.0126275 -0.0203059 0.00798989 0.0135589 -0.0175842 0.00853515 
0.0113899 -0.0190095 0.00887652 0.0140319 -0.0194359 0.00911581 0.0106647 -0.0201244 0.0106585 
0.0125916 -0.0203253 0.0101761 0.0125683 -0.0181205 0.010225 0.0154305 -0.0183717 0.0100686 
0.00973692 -0.0218381 0.0110972 0.0140756 -0.019387 0.0111316 0.00908688 -0.0221726 0.012956 
0.0098234 -0.0203786 0.0124706 0.0124132 -0.018824 0.0120895 0.0155564 -0.018263 0.0121821 
0.0118227 -0.0207322 0.0121705 0.0139981 -0.0194609 0.0131284 0.0136309 -0.0175029 0.0129671 
0.0164075 -0.0174011 0.00680869 0.0143131 -0.0171007 0.0111322 0.0165207 -0.0172764 0.00880054 
0.0166834 -0.0171174 0.0109917 -0.0175856 -0.0160956 0.00599991 -0.0176791 -0.0159394 0.00938744 
-0.0191594 -0.014425 0.00599893 -0.0184449 -0.0152161 0.00768861 -0.0191063 -0.0105005 0.00599978 
-0.0201417 -0.00879154 0.00599914 -0.0210838 -0.0112224 0.00599979 -0.0195702 -0.0135867 0.00796357 
-0.0220254 -0.00945882 0.00599988 -0.0195119 -0.0124578 0.00600663 -0.0199199 -0.00934448 0.0081187 
-0.0174953 -0.0116833 0.00599945 -0.0217186 -0.0101721 0.00784282 -0.0186768 -0.0116045 0.00761099 
-0.0206541 -0.0119117 0.00782716 -0.0192121 -0.0104923 0.00969157 -0.0208527 -0.0093476 0.00998616 
-0.0192473 -0.0142792 0.0102113 -0.0178303 -0.00908476 0.00937584 -0.0171836 -0.0114256 0.00923102 
-0.0188848 -0.0124498 0.00945831 -0.021029 -0.0113208 0.00972691 -0.019029 -0.0091489 0.0111599 
-0.0181761 -0.00916272 0.00715865 -0.017658 -0.0139702 0.00903846 -0.0181356 -0.0155413 0.0112933 
-0.0202085 -0.0126836 0.0109373 -0.0218738 -0.00981155 0.011641 -0.0180281 -0.0113691 0.011043 
-0.0201272 -0.0107771 0.0115327 -0.0204492 -0.00871702 0.0125196 -0.0184435 -0.0132205 0.0117059 
-0.0173521 -0.013396 0.00701915 -0.0168587 -0.0129078 0.0105312 -0.0169225 -0.0143314 0.0123783 
-0.0189568 -0.014676 0.012974 -0.0200256 -0.0129879 0.0129048 -0.018355 -0.0106583 0.0129493 
-0.0168018 -0.0122747 0.0124272 -0.0175034 -0.00856203 0.0123103 -0.0103893 -0.0165264 0.00599966 
-0.0148765 -0.0164851 0.00732268 -0.0130478 -0.0157887 0.0101085 -0.0131883 -0.0153196 0.00798493 
-0.0164632 -0.0150008 0.00781152 -0.0119161 -0.0142999 0.00599877 -0.00910235 -0.0149963 0.00599954 
-0.0136546 -0.0152837 0.00604078 -0.0156426 -0.0132035 0.00599923 -0.00898225 -0.0107732 0.00599896 
-0.014531 -0.0114973 0.00599923 -0.010294 -0.0131326 0.00599966 -0.0160961 -0.0102556 0.00601263 
-0.011334 -0.0114258 0.00599888 -0.015651 -0.015203 0.00599842 -0.0139034 -0.0093056 0.00599793 
-0.0119765 -0.0087768 0.00599964 -0.0160274 -0.0118515 0.00742035 -0.0105128 -0.00982491 0.00686766 
-0.0099944 -0.0116894 0.00745892 -0.016557 -0.0100046 0.00797222 -0.0129476 -0.0107627 0.00697414 
-0.0116319 -0.0110943 0.00844105 -0.00934707 -0.0138394 0.00761125 -0.00880848 -0.0101042 0.00787441 
-0.0121426 -0.0127581 0.00725122 -0.0136369 -0.0132841 0.00603052 -0.0140387 -0.0122211 0.00779586 
-0.014709 -0.0140851 0.00753196 -0.0136621 -0.0097551 0.0085525 -0.011264 -0.0154872 0.00746685 
-0.0106741 -0.0129752 0.00882946 -0.0155867 -0.0161237 0.00921075 -0.0152391 -0.0109809 0.00911349 
-0.0133465 -0.0114768 0.00951697 -0.0156098 -0.0130355 0.00897585 -0.0130562 -0.0135539 0.00891425 
-0.0164229 -0.0148596 0.0105153 -0.0112477 -0.0163846 0.0107363 -0.00982035 -0.0153401 0.00884046 
-0.0104364 -0.00955857 0.00889873 -0.0142013 -0.00993995 0.0104694 -0.0115444 -0.0118972 0.0102688 
-0.0115118 -0.0146106 0.00961452 -0.0162252 -0.00976302 0.010355 -0.0121636 -0.0098061 0.0098754 
-0.00886711 -0.0133917 0.00988668 -0.0145607 -0.014517 0.00981219 -0.0132956 -0.0129423 0.010875 
-0.0155165 -0.0115093 0.0110221 -0.0105512 -0.0134866 0.0109594 -0.0121945 -0.0144934 0.0114893 
-0.00961029 -0.0152493 0.0109021 -0.0151502 -0.0134636 0.0114063 -0.0125549 -0.0163073 0.0122465 
-0.0148549 -0.0158238 0.0112972 -0.0123183 -0.0087955 0.0115941 -0.0135956 -0.0137231 0.0126903 
-0.0165074 -0.0103029 0.012272 -0.012692 -0.0108573 0.0115327 -0.0140309 -0.00981694 0.0125916 
-0.0141723 -0.0118217 0.0124683 -0.0105622 -0.0158789 0.0125454 -0.0100308 -0.0139718 0.0128261 
[...]
POINT_DATA 5997
FIELD FieldData 7
id 1 5997 int
2089 2223 1450 2723 3414 5569 3111 2776 2264 
2021 4428 2996 2206 4807 2042 4611 3625 5629 
4574 302 271 1141 4718 4876 95 1366 2769 
3632 5990 5666 1162 5359 2081 3322 817 1455 
3298 4674 3556 3909 4860 410 2439 93 5414 
4423 5452 5529 4370 5711 5528 1512 466 2636 
286 3584 1979 685 4696 469 2698 2611 5977 
1394 2342 1844 4246 635 582 3804 3640 2925 
5875 5965 4529 2086 5488 2844 455 1014 2299 
3463 5812 2074 4476 5614 3919 5153 1299 4803 
1751 729 1025 2516 4467 1549 1135 4911 5785 
2113 4270 2504 2535 2056 936 859 2940 3943 
4534 2934 3316 2875 2177 4477 288 5092 943 
3664 367 1963 995 620 4048 3578 1917 1404 
3999 748 2116 1526 3429 187 4175 5518 5312 
3038 67 5851 2651 3207 3281 7 5865 1386 
417 5964 2176 379 1559 1300 1638 71 1609 
1514 2156 819 2190 1267 701 5679 4605 5928 
1515 950 963 5773 2479 3243 3713 5425 2893 
3408 1853 420 5828 65 5170 3238 5458 2027 
1967 2007 5588 1197 5021 1861 794 5845 615 
3862 4263 5456 3880 4521 2103 2492 5728 1079 
3684 700 3991 3049 446 3930 295 3581 1272 
2049 3439 5363 278 2210 3328 254 1173 4706 
3240 328 1696 5570 1618 1842 4994 4329 5858 
1966 3558 3251 2484 5360 953 4224 684 2327 
3765 5853 1758 3402 916 4010 47 1729 4218 
3608 3091 3678 4022 2858 1711 4242 5054 4791 
5128 5545 5966 2652 1076 317 807 4755 366 
2284 1004 2359 1075 2381 5603 1911 3273 4160 
5595 5233 1953 2134 445 4091 815 1383 343 
2366 2555 636 3799 1154 4685 2161 3651 2214 
1002 3768 5880 3617 2725 2876 382 892 5963 
5808 1990 2145 3853 946 4262 2002 4922 3648 
2984 641 5759 2718 1788 2341 215 996 3958 
3309 4872 864 4227 3210 429 400 4466 277 
4915 3034 223 1200 2416 1724 3997 5326 5511 
863 1543 240 1072 1753 1615 1883 5832 1747 
2970 5196 2639 2600 4109 968 5283 2732 4722 
1722 1165 1726 3013 84 5493 2637 3698 2168 
5441 4386 3618 1504 2798 1671 3201 3359 3084 
4540 5385 6061 1201 1041 1700 1343 100 5109 
1839 1874 4531 2164 2427 2806 1363 4768 2761 
3451 3132 351 2932 23 2413 1799 4516 5440 
3984 3545 4835 126 779 2550 321 4269 3563 
1184 2218 6040 3865 545 5498 1518 2828 5213 
2276 3445 424 3279 2711 1119 1682 1471 5375 
1918 2085 1088 5234 2869 4645 38 4187 4801 
2705 316 788 3700 3922 2405 4552 2071 2185 
3519 4879 4852 3781 5449 482 2837 2128 1756 
2171 1101 2488 4856 2189 5889 1403 790 1881 
6025 1276 4587 699 3410 4409 1506 457 3118 
4702 2231 3415 6053 5637 546 1298 5708 992 
2615 3047 714 3912 5723 298 4415 3819 5737 
2142 3758 4407 2200 1986 1766 1767 4292 4941 
335 3666 4445 2631 270 4201 3163 281 3332 
4659 3960 2123 673 5373 5772 3145 3189 707 
867 4848 253 1311 5975 5661 1302 971 6068 
619 4100 1672 702 5855 932 2351 5755 844 
4981 4869 3832 5404 2762 3646 4578 920 115 
3969 5681 5474 123 832 2031 4101 1209 1170 
5613 3260 961 4573 3690 1708 5211 2831 3817 
1073 2141 4559 1865 5669 835 671 5298 2098 
4202 3599 3497 818 4066 1111 1248 4293 5542 
2219 3179 2468 1864 1871 3264 4074 803 1015 
1603 4455 2863 1901 2507 3075 5408 1863 4111 
4102 977 5041 659 2890 4545 4634 2325 2355 
753 3697 2126 4680 3616 721 1699 3184 5997 
5071 5442 4252 5930 1688 2437 1351 195 1838 
2770 5654 3389 3886 692 3349 913 263 2307 
4683 3406 5255 965 5144 3342 3461 142 3502 
5815 3774 61 612 4208 4465 1824 952 1269 
3221 5053 4886 4563 1989 1011 2298 3812 1882 
2536 202 5476 858 5998 279 4222 3621 1720 
2783 188 5239 4589 5396 5788 2955 1924 3426 
5351 850 2063 2627 5765 2583 506 2997 403 
1172 1061 1914 5651 2234 611 3732 5338 3744 
1137 5609 2655 3434 1740 3483 5701 532 4047 
1750 5006 5335 5048 1557 756 5597 2183 5565 
4494 1453 1082 885 5705 2560 3858 4098 5995 
4595 4601 2497 3834 2567 754 1290 4307 2415 
419 1889 2658 1487 2956 4462 5202 5263 3911 
1250 4055 2459 2945 3490 1605 5494 5712 715 
4996 151 2429 1449 1769 1313 5954 78 2318 
4089 5439 3544 5933 1258 399 4267 5334 2197 
4483 1915 5315 5909 1645 4893 198 4492 4703 
1113 3447 2150 5398 4887 1564 1023 5282 2650 
213 3675 4936 327 5275 4874 5288 3058 776 
2070 517 4763 5822 2441 1253 2352 4783 3763 
797 1563 4480 4499 4024 3123 1816 4438 4583 
5631 241 529 5096 808 747 3728 601 2610 
5500 161 2277 2782 1551 787 5591 3871 3489 
1195 2779 771 4183 3687 3927 264 4358 2781 
1744 3580 2546 5751 1265 4287 6028 421 5419 
4279 3285 5770 1293 4901 2435 5256 6066 4408 
2434 4005 358 927 5783 2741 4546 5250 5389 
231 4489 3326 1451 5079 5584 2700 5059 3152 
5400 2203 3181 5122 4378 4121 3 2961 2301 
5177 2377 3154 766 2661 1444 2119 364 3265 
2791 5769 2502 4675 2495 642 5492 1413 4746 
5031 48 373 4156 2478 3503 357 3418 4955 
2199 3717 1600 3280 4435 4364 3626 3186 3916 
5013 3813 3413 2466 1164 3533 1018 4265 411 
5741 2370 2690 4905 5258 20 4908 661 2624 
5010 538 940 644 4844 2483 3057 4942 2686 
4697 1489 389 1896 3627 5171 625 4375 1497 
470 5350 1280 2683 2538 4461 4045 1651 3338 
3235 74 191 2062 1171 3937 5791 841 982 
3399 2523 3808 2864 4108 5698 1674 1367 451 
1985 1521 3550 3796 1333 1561 5951 5164 3536 
1136 3790 789 2906 1032 2544 4064 2775 3798 
4470 145 1410 5017 425 2283 3715 4785 3710 
5238 900 930 5517 156 3791 1761 5590 5495 
2764 1837 1755 4491 3392 5372 284 2702 2253 
3116 3948 3752 4800 2167 5641 5931 441 280 
5051 981 473 314 1240 2125 5383 884 1479 
2590 5475 3559 691 3513 4940 2422 3954 2146 
2861 5892 3146 5340 4795 5774 2975 5673 836 
5487 3424 1537 5027 1833 1491 1283 5867 1784 
686 5758 4184 888 1235 5968 2080 548 2153 
4850 4843 4128 1852 3735 2054 1355 2620 3729 
1130 1971 2178 1591 672 5900 1012 2261 4704 
4133 4841 1227 2373 3612 5664 4122 639 1754 
1956 2734 4956 2083 3420 4110 2039 4404 4776 
3854 5825 3120 2419 2653 2719 2461 3465 1020 
5790 2193 4037 5530 4564 6022 4289 3166 1362 
2795 3254 4657 2052 3738 3393 718 1085 732 
2202 3037 1482 879 3455 2923 853 59 726 
2417 2865 1900 5292 2953 3869 1469 1046 2463 
5986 3788 2511 4393 5146 5281 422 163 157 
144 5897 492 3010 2750 763 4457 5406 5634 
4604 1222 4123 5108 5725 3824 2549 3292 5937 
870 2273 4373 5531 1414 4071 2924 5823 2743 
275 1105 536 3593 3696 3398 3560 393 4898 
4993 307 5004 4158 5169 300 5176 3345 1230 
5674 3200 5368 3923 1210 5976 4928 882 2346 
3269 4971 4254 4582 177 1211 3466 2348 5612 
4189 2018 903 5503 3551 2747 3826 4594 2485 
5072 5266 1887 2058 4527 1547 1182 4334 1599 
4897 5574 1649 5866 4774 269 5833 4780 5159 
4895 1656 2751 3172 1435 3177 505 3878 572 
3852 4397 436 2198 5967 1728 6059 1045 4736 
1010 568 4608 5799 4666 1597 587 4185 1103 
3438 5257 1318 2585 1005 98 1663 1406 3023 
2285 1501 206 2207 2390 2638 1428 3435 979 
6 5038 5665 1660 3722 4239 2744 2320 2166 
2823 233 5472 1801 3318 1886 5623 683 2357 
488 4806 4140 1659 3952 2554 1203 2562 5922 
5173 3103 4875 1800 3598 5680 933 3661 3226 
5655 3907 5687 5183 2263 5104 4900 2990 1685 
174 3361 2087 3267 3686 3131 5297 1347 2137 
2340 1043 3778 991 8 537 2901 1913 2530 
1686 1749 4525 1409 2684 3975 934 1474 4501 
4234 4615 5015 4191 1183 45 3600 2572 41 
5285 1296 1328 5764 1995 6044 4962 861 2376 
1571 4929 5809 1024 348 1969 3638 1566 1376 
208 1078 291 2424 2093 439 2186 5353 1841 
2848 5466 404 5642 5617 1138 563 3767 1885 
5106 76 5842 3591 1270 3644 3472 4413 162 
5123 1893 2701 669 3404 804 4020 5427 4302 
2799 4714 928 4186 5243 3035 3766 3205 2587 
2594 1194 4179 1090 3904 4029 4276 4738 3056 
1225 4248 5735 1760 739 1260 3112 2634 1213 
3448 2025 3336 3008 3162 1181 1592 250 2735 
2917 1957 5879 4288 4088 4086 5093 388 3611 
2859 1976 976 5640 643 196 4215 133 5644 
4315 5142 378 5294 2159 4137 525 3875 4602 
2124 2856 5075 5073 2443 1086 2294 918 2133 
4176 4343 3137 3534 1733 632 2414 5473 3564 
1804 4019 1613 372 4741 4430 464 2891 2011 
4298 5402 2826 4590 988 90 1607 185 1794 
4638 2784 5821 607 1481 3007 5296 3101 2576 
4786 89 5272 5524 4902 5436 3531 5510 4946 
5706 603 377 3704 1667 791 4964 2110 5480 
3213 337 1186 3102 2946 4878 606 4414 4607 
3363 3416 4555 2815 1507 1161 4682 2105 442 
2871 2714 2605 2324 1009 1001 5792 2521 3409 
1204 1121 784 2793 1868 2100 3275 2403 598 
159 4056 290 5846 1157 5743 4316 3011 515 
5037 1407 2557 1332 2385 5219 3541 3985 3971 
2593 2710 5261 4641 5149 2349 1064 392 2019 
4771 1040 3337 1805 752 175 220 5662 5627 
1259 246 491 4190 6060 1826 2870 2450 3668 
2517 1131 4017 1775 2994 4033 938 3159 2362 
6034 1094 2475 2976 3482 2394 474 1765 960 
4756 1892 4500 3714 2265 2973 5589 1759 2412 
5113 2617 4565 3566 547 1652 5290 4502 4094 
2319 1114 5660 3993 627 1466 4317 3751 5740 
5643 5979 4162 2448 405 3604 3742 1719 4079 
2763 1117 5541 1399 1568 2160 1589 173 5270 
1578 1694 1679 5313 5910 2874 4866 1424 3607 
4384 4974 5782 2584 4057 3005 2084 4099 578 
2122 2835 3136 4951 30 2649 2977 3883 3914 
2644 5960 4096 6035 114 4726 2240 3577 5228 
5016 4630 4566 1972 1851 4816 871 3654 32 
1147 4344 666 4767 3386 4599 4713 2671 4618 
2143 5299 3320 1666 4427 2952 4804 874 5974 
746 1777 3771 2596 1583 4299 5752 402 2703 
5696 3787 4403 5160 4710 2755 3553 4616 4760 
4617 2195 2640 2489 3518 210 1810 745 6062 
5505 259 5618 4549 3300 2350 1412 2426 2807 
4532 1519 80 2838 2335 1921 4144 251 3140 
2947 2980 2174 4221 3964 2968 143 3759 1996 
2139 361 2824 2482 4131 4725 5601 5163 2926 
3942 225 2404 1089 585 4420 3041 1418 3947 
2310 5876 5465 83 369 5854 2534 757 5264 
5914 3739 1346 1532 3031 4817 4129 5069 2388 
1 594 3872 4612 1748 3676 2619 4667 4025 
4943 2797 2675 4398 5236 2259 5911 1712 3053 
2367 2692 5026 2111 1902 3080 3253 1229 2269 
282 5797 1034 3801 5915 3890 764 2006 2316 
2260 3747 3025 3160 5902 1776 821 2752 3395 
3989 527 741 3021 3315 2454 1364 3757 1488 
5639 1287 2508 4068 1870 4332 3505 5862 3595 
799 5502 4749 5470 3124 5181 2512 3330 1878 
5150 5405 2937 4681 1221 2389 440 4700 1993 
4577 3873 5049 10 1128 1232 3333 1048 1000 
216 2447 802 5056 1588 500 57 2854 1629 
4164 781 4229 999 3689 1931 717 4490 3237 
1830 3596 397 2242 2187 4744 3833 5731 3227 
922 18 4903 1637 5262 166 1285 3417 5293 
5407 1846 53 4286 1920 3634 5212 5840 5088 
5556 5602 4132 4508 2208 5443 1636 3009 359 
5942 898 12 1710 2569 107 1191 2471 305 
2525 5635 2868 2043 2194 3827 3511 2112 2442 
4953 141 4278 355 2205 5532 4250 2561 1907 
2942 2079 5208 5235 499 5671 4168 5921 3895 
2766 1289 3901 1102 1628 5365 774 1325 4180 
3244 1295 5953 218 2423 203 484 1335 138 
3515 985 1264 5135 4331 698 5778 1906 1743 
3501 5279 2361 3816 5318 3965 857 890 4283 
847 5834 4519 3603 4135 1673 2849 2827 5720 
5827 5325 306 4362 5314 4324 2687 1065 3859 
1884 39 4977 1379 2066 2691 323 2179 3002 
4530 3712 1093 2919 3748 219 3291 4709 3520 
5684 4614 5166 4581 5886 2392 5745 4349 2096 
2985 6009 1562 2008 5232 1556 2498 6032 2421 
4228 4152 640 3297 2470 1709 5125 559 3882 
170 1056 1630 4412 3026 504 4460 5535 5932 
1275 3208 5803 3287 954 5496 4773 4754 2778 
1849 589 4206 3032 4665 2181 5463 2344 695 
3449 608 4402 5361 1059 3147 6008 1897 3020 
1546 862 5525 16 2548 5714 2737 204 4686 
1968 2233 193 4708 618 3348 1212 534 4345 
1890 3277 3683 3542 4051 1316 4340 2170 2383 
1646 2841 2693 1129 2020 5199 2279 1873 825 
4473 5952 5962 1623 2154 1714 4544 758 4827 
2288 4418 5935 4512 3633 759 4777 3341 4819 
830 5429 2963 5126 4732 5533 911 5392 3786 
4945 6027 3856 1062 1156 1228 5100 1324 2533 
626 5572 951 3176 124 4348 4717 742 2749 
3487 3691 3252 2016 2998 2336 633 4853 1850 
855 4770 5668 1516 4511 3339 6010 5306 2017 
4390 1502 4497 261 4217 2586 1802 5929 5317 
4485 3708 3740 4442 329 4295 4482 3508 3702 
2101 5501 3745 3467 2365 3913 823 2630 2369 
2515 1257 1467 3194 148 4130 5766 648 6049 
3079 2136 2989 3720 2216 1319 4596 5225 1458 
4678 1538 5339 5278 4606 1348 4927 4456 3093 
1677 957 495 3234 4493 1099 712 2072 1894 
322 4640 1312 1797 3155 3358 4584 2249 5549 
5563 5005 4087 2215 1133 877 2138 5724 1772 
3401 1981 5820 5566 3760 4309 974 3370 660 
3249 4720 1245 2048 2449 3918 2547 5247 1737 
3764 518 3750 4117 2579 5709 2314 1632 513 
1148 3840 734 5722 5576 5237 3512 56 318 
1433 2458 4796 1791 2911 1721 969 2519 3143 
5040 1039 1017 5871 4238 4688 3228 1937 4623 
5391 4195 2024 2460 224 3870 735 5244 3693 
2707 4075 2050 3933 1909 593 2107 3374 2733 
2022 5319 3601 2248 5796 2948 4021 2986 92 
4592 4772 645 9 2237 682 97 3956 3442 
2420 4300 793 1550 5008 360 3450 5462 380 
4560 294 5152 3083 3845 1625 3453 1820 4949 
2539 1066 139 5033 2872 5058 1288 828 5323 
5877 2982 1715 1104 4161 4821 3828 140 1570 
4548 4255 3271 81 2873 4705 676 4968 3499 
137 4961 2616 5733 3388 4350 3860 1038 4947 
1634 1226 4351 1315 465 5606 182 765 4194 
2881 1378 1063 980 3823 1647 4115 558 720 
4154 2292 4282 5568 5002 1689 2809 2896 5744 
3062 508 5521 5346 2908 5284 2669 135 1274 
1074 3887 4032 777 5538 1457 2626 164 2609 
5944 5158 4253 2009 4518 2904 1891 3673 2551 
3272 3721 2794 1160 5200 1391 2464 4644 710 
2075 2759 4260 1050 5836 1198 4000 1385 503 
3351 5816 2756 25 3356 5658 2635 3167 1371 
1510 1255 5374 3457 2929 1354 5362 3262 6026 
3340 2597 3970 5012 5577 3098 4312 2073 1459 
1091 401 4076 4296 814 631 1997 2191 4792 
1764 2309 29 5230 3199 4762 5748 1857 438 
1635 3014 3983 1942 658 5248 5162 5513 244 
5534 5844 1400 5520 5022 2969 1664 5676 4894 
5420 5645 2895 2995 3485 1940 2706 2045 4054 
1736 780 4509 4355 3800 40 1706 562 1855 
33 5291 2780 4325 1530 2943 1935 2825 571 
2716 4105 4080 2453 5029 3785 1742 5322 775 
5131 274 5557 3935 2382 872 2840 3142 3917 
3897 891 2272 3379 584 634 740 3452 462 
5120 2788 2023 1822 5077 3797 483 907 2862 
4633 3276 190 4142 5600 5971 5110 512 3979 
3737 2836 4093 2905 6058 3411 3539 479 486 
1642 531 1051 5881 2246 5062 17 5947 5856 
6018 3968 2552 4992 4014 937 3976 5099 5841 
5507 5461 3792 2765 4241 1650 1215 4711 5217 
472 1175 1422 4934 2147 3043 5693 5763 843 
677 5715 647 4437 4439 5903 1389 5046 3994 
5178 2499 5063 2411 5050 3220 2192 1167 1544 
390 5467 5955 2244 200 4921 3456 3967 5991 
1908 4503 5756 1932 1365 798 5271 1329 1936 
3548 5464 5499 2559 272 3561 5721 2992 5941 
4715 3433 4952 4620 502 1727 5000 2556 4939 
5810 1305 5843 2537 443 4063 4973 1495 1531 
1778 3888 2304 99 5483 4789 5638 3432 4389 
1485 4724 3151 5945 3174 5468 2588 993 5509 
4889 2894 4453 3188 4030 4034 121 1974 3838 
915 2472 1401 2575 1540 1031 3950 3196 664 
5045 4805 716 3171 2771 4429 2629 4825 723 
4528 4823 4474 1741 4890 3095 868 4308 1249 
816 2271 2648 5800 5019 2931 3861 3645 1149 
383 55 2949 1581 4330 3590 5691 5447 3507 
1701 5025 4360 2444 3157 1687 4809 552 3727 
4916 2695 2918 3540 3270 2879 1601 6038 4274 
3473 5961 13 970 6036 2964 4361 4891 1738 
444 5295 1705 4858 5543 1641 5894 622 2148 
4353 4297 869 3669 3849 3643 4371 2599 2717 
5321 267 4443 1533 5352 3565 1373 2266 3454 
3464 2322 3121 3039 4198 5512 5636 4660 4842 
520 2092 2818 5066 5943 2235 3504 6015 577 
854 5032 4547 2662 1263 1792 2812 1627 6043 
4954 4119 5411 5544 3480 1199 3302 624 5537 
5682 5320 104 1611 4684 3807 3248 2909 5157 
580 663 6003 2954 1529 2860 347 1387 2287 
297 1331 722 875 4663 149 4761 5996 5214 
1877 4698 2730 2328 3268 1875 5130 1955 167 
4257 3105 4104 3925 556 4294 4781 5805 3949 
5259 150 1919 1828 3182 1369 1247 4862 5188 
3100 239 1303 565 3474 3071 2591 434 2659 
285 2387 5478 3437 3639 5450 112 4765 2220 
5245 1813 1465 2275 1178 3403 2295 4050 4628 
3779 4448 1795 1949 1452 1127 5191 1879 5807 
489 4624 3158 3314 5754 5084 5356 86 2221 
1763 2987 3641 4739 2847 6055 4871 5129 4083 
4811 3623 4290 2291 3631 3671 60 1862 2668 
64 4833 1286 4828 5268 1118 535 5491 4664 
2991 3319 232 5749 1933 494 49 4484 5716 
5895 3587 227 2921 5097 3134 1732 1555 5454 
2898 5192 3087 4159 2149 5418 2867 4884 6033 
4799 5028 4603 3719 5826 2578 106 621 5519 
4882 3929 3674 690 5227 1975 3003 2140 865 
153 5459 1565 5504 4049 448 5558 1814 1676 
5806 4235 5653 4486 1520 1472 4699 3089 573 
4163 3555 221 4496 878 2513 5608 3077 2245 
3990 5514 3839 1317 555 4591 553 242 1402 
4716 1320 1368 3068 4960 986 3258 5648 197 
2251 1684 2188 3367 1734 3754 5047 1831 5983 
4610 2884 52 2888 301 413 5850 772 3521 
4570 2300 2374 2480 1153 4143 1860 2689 5646 
3161 4028 5793 1336 160 526 4103 4391 2913 
1944 5689 1524 5969 3606 1155 1266 4008 3125 
2920 4450 3224 2354 11 1219 4237 4333 374 
1922 4656 4505 1573 2077 2753 2041 2047 437 
5925 1951 4166 4580 3428 406 4478 5355 1345 
1835 1809 3836 616 1218 2258 2436 1585 2672 
2281 5896 1337 1587 3381 5055 4337 1806 5103 
2571 812 1582 293 3576 5874 480 3940 4124 
5379 4793 309 5380 3042 2677 6017 111 5082 
3815 94 3288 3257 2774 1251 5703 5620 3962 
4913 129 1460 2514 3135 1189 1159 5607 5107 
1730 1475 4535 5067 396 2633 6042 3204 5819 
6050 5719 693 2708 4046 299 3679 3848 2792 
5036 3805 2951 3293 395 1977 4426 5309 5307 
3185 2914 711 4937 2851 3706 5435 670 2290 
5560 2364 2201 46 1910 1216 6000 27 128 
435 2401 838 5310 5732 3212 2409 1619 540 
5918 5415 211 2321 1398 5203 820 5305 433 
5197 4775 5460 2386 5210 3350 3236 6005 1790 
767 2010 2830 3711 3973 770 2938 516 3902 
5956 4932 4692 4151 165 3193 5873 2880 3209 
1309 5551 3495 247 4336 4464 1941 3946 3549 
461 5161 118 2673 3421 304 1633 5626 4650 
5950 2293 5138 2941 4778 5801 2833 4504 667 
4441 5811 1665 2226 2912 1192 5194 183 3296 
1432 2467 1987 3589 2685 2772 4380 3190 205 
1553 3066 3362 2368 2739 5497 2462 2323 3481 
2623 5683 3629 1417 2232 4622 5223 6029 5718 
493 3412 5630 839 2731 987 449 4406 5927 
4938 4997 4524 2332 3304 2724 2501 5592 1058 
2005 5868 5831 2506 4914 475 2109 3773 3443 
3321 3245 5686 1271 4451 2883 3844 3756 1310 
456 4658 4463 5018 5332 1361 77 1631 5633 
3493 4226 2592 5552 4506 2247 4907 1505 5771 
4275 1994 1964 4883 5446 905 5527 873 3709 
2313 3278 4060 4655 3364 5089 792 5336 1693 
4082 3655 2577 5345 4849 5265 1691 1542 4216 
1998 5598 5798 5561 588 4280 786 5657 3931 
5908 5030 2030 5920 4830 4787 5201 4261 4812 
1923 4957 3567 3783 2114 2099 324 3476 2853 
3846 4646 1823 3944 4440 3974 3680 5992 345 
1388 1856 1938 3831 564 3988 3027 158 35 
73 132 4919 4881 3012 339 1234 6063 2280 
2069 3682 3743 4376 1145 3149 4449 34 3259 
3810 3286 744 5515 2688 3688 967 4 623 
5707 4510 5133 5182 3310 893 3128 4498 2903 
4707 1576 1176 5195 109 5369 2238 3703 2543 
1254 1952 3899 4495 22 1344 510 2745 376 
4838 4043 5085 1426 3938 4933 5091 4392 4285 
4399 2540 1899 4328 2660 2613 155 2067 4980 
3377 3180 3127 3215 4647 2527 2353 5899 467 
418 1808 1817 590 79 3535 1306 352 703 
171 2227 4983 1430 4188 3156 2531 2315 4868 
3000 5959 3842 2958 2371 5348 3051 1053 3024 
696 235 4346 3987 5523 1044 1174 973 591 
3734 4400 1224 296 2028 5386 1238 5555 2665 
1139 4906 5586 5304 923 2393 581 2553 910 
1834 3165 3407 487 1843 2564 5981 1815 3569 
3368 1958 1427 5898 3072 2428 822 1992 3183 
3436 4149 1106 5593 1746 908 4341 2406 6069 
42 2887 530 2061 5140 21 3554 1845 4733 
959 384 935 3568 3665 5484 2303 833 4145 
3078 1723 5659 1340 3114 4719 3064 5101 4264 
5624 675 1483 1509 2787 1503 4576 3841 2222 
4383 751 880 117 2983 909 5469 5300 5526 
3290 5151 773 728 3266 4061 1158 5993 4387 
5231 2777 4231 725 3733 2196 5342 2500 169 
1416 3670 6030 3218 4654 2230 6047 1717 2720 
5009 2902 5650 5859 2481 4306 4880 1425 4885 
4979 1930 3885 2446 5147 3044 4822 609 1604 
1522 5972 6070 3311 5727 4861 3957 5052 4044 
2180 649 2524 2127 738 1895 5316 4444 3730 
521 2832 5730 3809 2345 5043 4388 1602 5354 
2255 5989 5399 1803 1725 5768 3231 2465 4421 
4586 689 3677 3334 292 276 2950 3390 3475 
2602 1169 6067 3523 4042 541 2250 3866 4052 
4779 4621 806 2877 2474 5393 1003 1821 3400 
2144 519 3106 6024 3622 2712 5578 6002 287 
5585 3307 3685 2604 4479 265 3876 3903 5083 
5615 2037 3019 604 1590 1945 705 949 5094 
4930 1134 4766 3877 3864 4626 1420 4810 5697 
1049 2333 5229 2029 1774 713 1982 4036 4826 
1214 1177 688 883 4458 4923 2440 5366 5410 
4671 2907 4347 1819 2121 1486 3731 3830 5926 
3085 1462 697 3055 4305 5137 5324 4247 2068 
478 1007 5610 3825 238 3619 4556 514 391 
3425 6046 3229 3657 2503 524 85 2032 948 
4691 365 5872 5395 743 2505 4986 3530 2664 
2274 4845 4798 1081 350 4864 2455 5168 2612 
3458 2035 4015 5205 2598 4367 5864 4174 1575 
5401 340 5786 1292 5861 3096 5190 3153 3109 
4975 2565 2972 731 2528 1612 1190 2211 2120 