# vtk DataFile Version 4.2
Generated by LIGGGHTS
ASCII
DATASET POLYDATA
POINTS 5997 float
-0.0100328 -0.0205919 0.00600979 -0.015249 -0.0180083 0.00599968 -0.0132862 -0.0173813 0.00602091 
-0.0138638 -0.0193852 0.00642286 -0.0105519 -0.0186605 0.0060231 -0.0112461 -0.0167803 0.00600084 
-0.0168876 -0.0168488 0.00600135 -0.0121839 -0.0205134 0.00628027 -0.00668405 -0.022853 0.00604543 
-0.00791585 -0.0201057 0.00603719 -0.00513787 -0.0216081 0.00630522 -0.000449131 -0.0213605 0.00600314 
-0.00576695 -0.0196387 0.00601988 -0.00374764 -0.0200903 0.00600303 -0.00410254 -0.023499 0.00600555 
-0.00581581 -0.016769 0.00599853 -0.00865368 -0.022147 0.00606926 -0.00754925 -0.0179617 0.00605247 
-0.00436773 -0.0181596 0.00599828 -0.00255413 -0.0217269 0.0060215 -0.00175528 -0.0237834 0.00611366 
0.000206996 -0.0232813 0.00601825 0.00635378 -0.0172211 0.00600455 0.00474163 -0.0184626 0.00603583 
0.00690189 -0.0215181 0.0060024 0.00156308 -0.0217216 0.006031 0.00516482 -0.0205195 0.00599945 
0.00473473 -0.0226435 0.00600443 0.00184071 -0.0197005 0.00600941 0.00183781 -0.0165019 0.00600543 
0.00225335 -0.0237633 0.0060663 0.00680424 -0.019256 0.00603429 0.00856077 -0.0203561 0.00602841 
0.013861 -0.0195532 0.00600295 0.01376 -0.0174502 0.00599902 0.0103331 -0.0214664 0.00602027 
0.0156048 -0.0182088 0.00606253 0.0120907 -0.0205205 0.00619273 -0.022229 -0.00809818 0.00599907 
-0.0207517 -0.0117207 0.00600172 -0.0192327 -0.0102632 0.00601881 -0.0217095 -0.00999951 0.006342 
-0.0202414 -0.0085373 0.00599803 -0.0185375 -0.0121405 0.00610587 -0.019336 -0.0141174 0.00600004 
-0.0182119 -0.0083508 0.00605295 -0.0173647 -0.0137573 0.00599938 -0.0172376 -0.010095 0.0060024 
-0.0158947 -0.012401 0.00600255 -0.0133424 -0.0152827 0.00600024 -0.0138816 -0.011901 0.00600683 
-0.00886594 -0.0134614 0.00600185 -0.0120305 -0.011074 0.00601235 -0.0113485 -0.0146906 0.00600456 
-0.0119318 -0.00888571 0.00600234 -0.0106308 -0.0125213 0.00600543 -0.00956779 -0.0108261 0.00599985 
-0.0136649 -0.0098945 0.00604674 -0.015513 -0.00900891 0.0059989 -0.0093786 -0.0087857 0.00600101 
-0.0136626 -0.00788774 0.00601317 -0.00780531 -0.0157652 0.00601276 -0.00726754 -0.0122485 0.00600351 
-0.00147352 -0.0125606 0.00602354 -0.00327395 -0.0134284 0.00600029 -0.00133836 -0.0101834 0.0059992 
-0.00343959 -0.0103193 0.00600755 -0.00741261 -0.0094867 0.00599949 -0.0050397 -0.0116104 0.00603943 
-0.00147377 -0.0148557 0.00602744 -0.00372202 -0.0160065 0.00606442 -0.0041816 -0.00843261 0.00601368 
-0.0021034 -0.00828831 0.00600991 0.000351057 -0.0116872 0.00599928 0.00762741 -0.00961606 0.00599879 
0.00105096 -0.0098165 0.00605167 0.00749981 -0.0155728 0.00600168 0.0072259 -0.0135948 0.0061186 
0.00258453 -0.0113746 0.00602561 0.00744632 -0.011609 0.00600013 0.00366071 -0.0131758 0.00601676 
0.00563233 -0.0148054 0.00600609 0.000542943 -0.0149264 0.0060078 0.00286444 -0.00897928 0.0060001 
0.00362645 -0.0152248 0.0060814 0.00553295 -0.0124358 0.00604045 0.00447773 -0.0103259 0.00601369 
0.00165144 -0.013209 0.0061754 0.0156789 -0.0160795 0.00599728 0.00923251 -0.0141596 0.00600597 
0.015158 -0.0141295 0.00601017 0.00981169 -0.0121454 0.0060141 0.0137622 -0.0124285 0.00602462 
0.00955401 -0.0101624 0.00601497 0.01186 -0.0112081 0.00602999 0.0115079 -0.0139548 0.00601968 
0.0129527 -0.00817093 0.00602729 0.0152498 -0.00951996 0.00604114 0.0133033 -0.0150142 0.00609242 
0.0158852 -0.0115541 0.00604987 0.0112007 -0.00911049 0.00643114 0.0173648 -0.0140301 0.00600167 
0.0216834 -0.00925434 0.00600045 0.0197016 -0.00840892 0.00600264 0.0177598 -0.0160082 0.00601395 
0.0174425 -0.00923559 0.00600806 0.0205033 -0.012332 0.00602888 0.0192225 -0.0103517 0.00600679 
0.0181716 -0.012176 0.00602849 0.0193644 -0.0140017 0.00607317 -0.0219123 -0.00454369 0.00599846 
-0.0230478 -0.00620828 0.00602098 -0.0236421 -0.00353833 0.00600429 -0.0216016 -0.00243663 0.00599937 
-0.0235024 -0.00154475 0.00600018 -0.0204797 -0.006518 0.00599883 -0.0220631 -0.000101236 0.0060002 
-0.0172557 -0.00190364 0.00599876 -0.0179347 -0.00378681 0.00599952 -0.0194185 -0.00244722 0.00601326 
-0.0201225 -0.00057394 0.00599939 -0.019814 -0.00448188 0.00601495 -0.0183124 -0.00625427 0.00600135 
-0.01651 -0.00727395 0.00601829 -0.00971047 -0.000196876 0.00599834 -0.0150804 0.000363635 0.00599896 
-0.0165707 -0.00527431 0.00600562 -0.0159915 -0.00339892 0.00638769 -0.0107441 -0.00727707 0.0060016 
-0.0105326 -0.00328366 0.00599898 -0.0133566 -0.00259828 0.00599878 -0.012821 -0.00574501 0.0059977 
-0.0108844 -0.00524953 0.00600009 -0.00904466 -0.00602762 0.00599886 -0.0115926 -0.00158881 0.0059992 
-0.0151292 -0.00163604 0.00600435 -0.0133329 -0.000602574 0.00599932 -0.0147893 -0.0062273 0.00599803 
-0.0142355 -0.0043475 0.00639418 -0.00894778 -0.00206101 0.00600349 -0.00871265 -0.00405704 0.00641425 
-0.0078107 -0.00756044 0.00634526 -0.00773226 -0.00047315 0.00599842 -0.00153483 -0.00149668 0.00600534 
-0.00297523 -0.00289521 0.00600307 -0.00696647 -0.00233911 0.00600112 -0.00365046 -0.00101239 0.00599936 
-0.00585443 -0.0073092 0.00601158 -0.0049546 -0.00252743 0.00599936 -0.00565941 -0.000638408 0.00599945 
-0.0070322 -0.00563201 0.00601068 -0.00112924 -0.00346843 0.00654955 -0.00150836 -0.00558711 0.00599798 
-0.00480391 -0.00552852 0.00600502 -0.00324221 -0.00670691 0.00645725 0.001126 -0.00703803 0.00600099 
0.00652722 -0.00104819 0.00599859 0.000331176 -0.000669148 0.00600219 0.000633456 -0.00269146 0.0059995 
0.00637742 -0.00404203 0.00616255 0.00451345 -0.000442163 0.00600477 0.00507708 -0.00252642 0.00600147 
0.00225846 -5.72617e-05 0.0060016 0.000541862 -0.00483747 0.00599927 0.00421471 -0.00440665 0.00600835 
0.00268449 -0.00578115 0.00602044 0.0023167 -0.00377049 0.00600311 0.0031516 -0.00196081 0.00644705 
0.00797377 -0.00534496 0.00599948 0.0148036 -0.00736222 0.00600463 0.00864397 -0.00750145 0.0059992 
0.0128737 -0.00602267 0.00599799 0.0141011 -0.00443673 0.00600216 0.00814997 -0.00297148 0.00600172 
0.0104117 -0.0065585 0.00599952 0.00983219 -0.00461216 0.00601202 0.00858384 -0.0010276 0.00651863 
0.0149987 -0.00263728 0.00602476 0.0115238 -0.00107982 0.00599885 0.0118111 -0.00433156 0.00600201 
0.0102898 -0.00266071 0.00604465 0.0161542 -0.00427137 0.00602624 0.0154471 -0.000705399 0.0062876 
0.0135346 -0.00134085 0.00649951 0.0212983 -0.00720307 0.00600153 0.0194038 -0.00643021 0.0060134 
0.0224402 -0.00432851 0.00600374 0.019059 -0.00204853 0.00600295 0.0171592 -0.00671848 0.00600001 
0.0180542 -0.00491847 0.00604723 0.0197889 -0.00391945 0.00600038 0.0215594 -0.000653379 0.0060026 
0.0169405 -0.00208639 0.00600053 0.0231028 -0.0063304 0.00600054 0.0213498 -0.00265082 0.00599857 
0.023843 -0.00196129 0.00599858 0.0189091 -5.28467e-05 0.00600396 -0.0238538 0.000677755 0.00642276 
-0.0169957 0.00092956 0.00600373 -0.0189759 0.00132859 0.00599955 -0.0176466 0.00281831 0.00599781 
-0.0219279 0.00205343 0.00600953 -0.0179176 0.00479678 0.00600583 -0.0234131 0.00459789 0.00599679 
-0.0229805 0.0065479 0.00600093 -0.0199144 0.00474036 0.00599863 -0.0238401 0.00264334 0.00606102 
-0.0218879 0.00822028 0.00600003 -0.0186705 0.00768812 0.00599973 -0.0168722 0.00857632 0.00602277 
-0.0203943 0.00667947 0.00600336 -0.0170108 0.00657723 0.00600075 -0.0216337 0.0039441 0.00662737 
-0.0114907 0.000710246 0.00600619 -0.0156056 0.00239342 0.00599947 -0.0106305 0.00489392 0.00600257 
-0.0150237 0.00482462 0.00601201 -0.0116044 0.00829163 0.00599927 -0.0126413 0.00477145 0.00599898 
-0.0138047 0.00640728 0.00599788 -0.0146673 0.00821154 0.0059982 -0.0119011 0.00279256 0.00599956 
-0.00955049 0.0031473 0.00599975 -0.00936774 0.00644389 0.00599899 -0.0133668 0.00139399 0.00599948 
-0.0138647 0.00326646 0.00647947 -0.00835576 0.00825275 0.00602268 -0.00854057 0.00142297 0.00599897 
-0.00656284 0.00114498 0.00599912 -0.00224755 0.000410232 0.00599765 -0.00434925 0.000978698 0.00603863 
-0.00266502 0.00236445 0.00599875 -0.00380464 0.00400975 0.00600157 -0.00533492 0.00272202 0.00599817 
-0.00629037 0.00471864 0.00599899 -0.00476414 0.00602469 0.00600707 -0.00145028 0.00723049 0.00600167 
-0.00348459 0.00801007 0.00599883 -0.00272435 0.0056919 0.00605782 -0.000895866 0.00485895 0.0062103 
-0.00731918 0.00300585 0.00600965 -0.00830788 0.0047477 0.00601224 -0.00735475 0.00651072 0.00600127 
-0.00633943 0.00824888 0.00600199 -0.000381734 0.00120106 0.00599883 0.00758818 0.000658224 0.0060339 
0.00053501 0.00630397 0.00599925 0.000999109 0.0037395 0.00599909 0.00562164 0.0017005 0.00599826 
0.00444884 0.00545894 0.00600179 0.0023828 0.00706471 0.00599923 0.00535954 0.00782871 0.00599911 
0.00248929 0.00507049 0.00606938 0.000192944 0.00836952 0.00599972 0.00634691 0.00609069 0.00599858 
0.0072923 0.00813702 0.00641482 0.00163255 0.00184353 0.00600021 0.00360949 0.00142546 0.00599907 
0.00738386 0.00264686 0.0060019 0.00382241 0.00350681 0.00600982 0.00579318 0.00389692 0.00603222 
0.00769538 0.00461893 0.00610839 0.0110898 0.00728498 0.00599877 0.0146005 0.00848584 0.00599953 
0.00906943 0.00606613 0.00600016 0.0118228 0.00355783 0.00600472 0.0137402 0.00466674 0.00599876 
0.0119176 0.0009255 0.00601794 0.00982085 0.00363296 0.00600689 0.0129672 0.00654384 0.00600124 
0.0153465 0.00347776 0.00600046 0.0149512 0.00625795 0.00600299 0.015769 0.00152374 0.00600165 
0.00924639 0.00805724 0.00600035 0.0126179 0.00850857 0.0064034 0.0135579 0.00255669 0.00607145 
0.010904 0.00531696 0.00629377 0.0223595 0.00118127 0.00599889 0.020353 0.00139622 0.00600022 
0.0164872 0.00762457 0.00601077 0.0238375 0.00254076 0.00600653 0.0184267 0.00710012 0.00600455 
0.0225084 0.00638034 0.00599983 0.0222991 0.00845168 0.00599693 0.0181583 0.0018016 0.00600946 
0.0169954 0.0056497 0.00600669 0.0195825 0.00325383 0.00599989 0.021002 0.00497046 0.00600206 
0.0189609 0.00515507 0.00600343 0.0204834 0.00701507 0.00606727 0.0217293 0.00310517 0.00600205 
0.0175448 0.00371151 0.00600217 0.0235274 0.00454694 0.00607987 0.0201944 0.00899819 0.0060213 
[...]
POINT_DATA 5997
FIELD FieldData 7
id 1 5997 int
2190 2233 4618 5704 4784 5361 3464 3756 2788 
2387 5135 4650 3671 5372 5785 2186 3010 3760 
5488 5066 233 1461 4098 4153 4389 5890 5453 
5646 1660 5838 5241 3658 5793 2512 1688 3563 
5668 2315 5297 5894 4657 4733 2275 3915 4526 
5281 5641 4522 6039 5235 3475 3761 2590 2294 
3926 4962 1917 5732 5403 5329 5013 4983 4299 
2848 1245 4074 3700 3299 1388 3882 4780 4982 
5245 3848 2272 6052 4975 1344 4914 3409 5092 
4828 1924 4941 1238 3968 3519 2279 2530 1083 
4047 1861 2270 5635 2575 3220 4242 5425 3669 
3345 5771 4408 4056 5578 3179 1612 3898 2910 
5345 130 397 3593 1045 689 86 6009 1829 
568 4475 1968 719 31 756 812 168 507 
2854 1284 4706 2552 1400 5879 4791 4402 1505 
1808 301 4916 2836 452 37 1060 1007 2928 
4078 5705 16 2991 6023 970 5089 4197 1823 
3981 3948 5172 5744 5111 4570 2674 4321 4443 
3390 5742 4004 5817 5145 2723 4282 5283 3666 
4523 3880 4913 5185 4064 3859 3655 5004 3182 
4721 5450 3921 3237 1500 3612 5175 4452 2987 
165 1863 533 5827 5274 3642 5177 5923 180 
353 200 1230 292 3746 2244 4731 4381 800 
5917 54 3018 3711 4158 1410 509 4816 4162 
989 5872 5702 4850 1592 4262 2327 5678 481 
1912 811 1746 899 316 704 5042 1398 1077 
2263 4495 5082 1882 3496 3785 2720 5200 2941 
5589 1039 1519 787 1545 1738 1664 2503 2440 
1062 3963 1375 1624 1369 2442 6008 621 1747 
5932 712 108 87 5339 5832 3800 3754 2354 
1716 2298 5487 1481 1570 2056 342 3649 1934 
640 2518 2595 570 46 1710 580 4954 5476 
3201 1571 4346 5509 6022 578 3101 4520 4815 
2746 3887 4749 3738 4668 4028 4919 5692 4525 
5008 2392 4034 589 5088 4624 4315 5320 4942 
4591 5614 1533 4933 4373 1890 4413 5602 2322 
3684 1878 5406 486 4671 3245 5849 3875 5862 
2585 5139 817 5056 4559 2640 1144 4775 1264 
1755 1944 5884 741 5421 3680 5416 3494 4372 
4249 4521 3576 3837 3066 1013 2713 2705 702 
5176 76 1444 799 818 5523 5159 1328 5323 
5696 979 3144 4517 1396 4766 897 1467 3619 
3477 5196 1959 6035 5709 2860 3858 3405 5217 
6021 451 1374 4773 3705 5387 4371 5222 311 
1515 2639 5580 4669 5413 4532 888 5508 5828 
5667 5204 2881 2391 3248 3486 5927 163 3437 
4745 5279 5926 5376 4711 2223 5122 2018 5857 
4393 6053 3100 5781 3298 1782 5755 279 5485 
3852 462 5627 5680 2109 5262 1609 4907 5848 
4218 1580 3564 5050 5105 2023 4789 5333 2966 
5084 2417 5552 1250 5768 3945 5219 1885 797 
5099 3263 1718 336 2569 3108 2455 2707 1575 
3259 2841 2436 3341 4779 5694 569 2961 5818 
1215 2421 4509 148 339 2128 5224 1773 197 
2271 250 4951 1711 1542 906 4025 2174 2814 
2576 5938 3327 1657 2507 3234 3256 5030 2026 
1983 2216 691 2668 4439 5315 516 5070 1387 
4740 374 1644 4440 4463 4826 3736 3625 1466 
5802 5064 2376 3943 1908 337 1596 3297 260 
2020 2331 1316 1435 2533 1049 4648 2485 952 
3973 2453 3733 2085 3768 3426 5434 2273 5980 
765 3904 670 1056 5229 70 5830 1684 4151 
370 1203 5670 574 5534 894 1919 1874 843 
5158 3222 440 5188 2905 4511 198 3453 5132 
3780 4530 302 3353 4087 4855 3783 5419 2124 
4128 3772 4214 3191 5059 5101 5032 5017 5910 
3105 5107 5232 2747 4312 4642 2393 5935 3993 
4195 5777 2997 3401 5179 3942 5712 2960 5234 
1989 2406 3412 288 4378 4748 4831 4367 2090 
4419 4912 4040 3792 3664 1532 3221 3702 5263 
5334 4765 5314 5190 3725 5371 2635 1199 1518 
3524 4175 5983 3455 2819 4865 3211 5909 4602 
3445 3667 4431 5239 4824 5238 600 3269 4278 
3383 3874 3899 2975 2374 3137 1301 2717 4019 
1082 3665 1123 4164 5558 5467 6061 5336 3530 
3678 3115 562 5360 1681 1455 3814 4729 576 
5981 2734 725 4579 3067 3816 3766 3709 2699 
645 1154 4008 1412 4769 2643 5073 2285 2519 
639 6024 5347 1469 4177 3721 2359 3029 2183 
1534 4428 3169 4640 3422 5395 5587 5653 1691 
4843 5496 2013 3393 3698 5598 1941 1310 3881 
2347 2362 4751 5519 3091 240 177 3242 297 
5942 3893 216 1962 5095 2361 3305 895 3949 
6005 4606 2641 4446 831 2358 2755 2751 3597 
3689 3283 3998 673 1937 1356 3451 2820 431 
3031 5021 314 5380 2662 2426 1053 567 1806 
5341 82 1202 3535 5928 806 1471 1447 1715 
1828 5724 1940 5253 461 1821 5638 1724 3450 
4130 2719 1095 5851 774 5527 5208 4630 5394 
3971 3206 5936 1560 287 945 1770 996 1470 
4898 5244 2509 2737 1563 1506 5226 2308 5864 
746 208 5502 967 5961 201 2700 1319 792 
2672 584 3786 4725 984 1292 1115 4950 101 
2349 1460 3889 720 1486 4626 3668 3476 2824 
1901 1649 65 223 3166 145 285 295 2868 
684 1129 72 1197 4806 5497 4426 6010 4460 
1810 1631 3217 259 1856 162 764 2444 5514 
157 3339 2593 2398 4968 4166 671 210 554 
1474 791 318 2464 5 1490 1159 467 505 
651 137 1265 2166 366 5706 1217 1694 1299 
677 1190 332 601 1333 2226 729 3621 5808 
489 4496 5836 5038 5427 3465 3017 1119 3758 
3151 184 34 2451 2016 1067 4306 4673 3495 
326 5431 4786 1670 626 808 5484 5956 4683 
5689 706 1372 5595 5212 5822 2049 2558 709 
369 1840 2039 186 1858 841 1104 5885 5625 
4864 3812 5536 2648 1305 142 2343 4860 3572 
3991 2388 5304 5898 5306 2193 5166 5623 4504 
5621 4227 5955 6054 2003 4681 3292 5683 595 
5790 69 5639 4797 5727 158 527 2599 3046 
3911 2714 4462 4665 5899 3618 5130 5881 3843 
2800 4812 5593 5796 5518 5218 4877 4283 85 
641 5530 5384 4770 4752 5698 5270 3697 5993 
5150 1671 4441 5733 6000 5010 5411 4277 4754 
4139 4350 3892 5995 6038 3044 4409 5531 3171 
4947 4960 1418 3430 5269 5714 2493 3588 2796 
335 23 5786 3359 5682 4335 4157 2259 5041 
6031 5256 349 4541 5031 654 5615 4542 4243 
3408 4046 4337 1793 5492 4358 5458 5114 3673 
5025 4012 4895 5863 3072 6015 5364 5225 4366 
5529 2323 5501 585 5726 2556 3542 3832 2831 
1169 4848 1069 5521 4325 5246 5240 4783 5788 
4931 3582 5469 2346 5905 5651 5142 3395 5650 
5500 2161 222 5034 6013 1816 5815 4322 430 
4625 1434 5247 4573 3418 4921 1252 1556 4423 
3442 5764 515 1247 5445 5658 5738 1364 1916 
5940 5093 4293 5544 5287 4767 5889 2996 4847 
4487 2573 3647 5511 2638 4554 3715 5950 1981 
3434 5028 2325 1593 5691 490 1463 5330 5850 
2980 5037 4412 2195 4915 776 556 3487 3829 
612 2505 4113 2920 705 4244 2140 5631 5684 
4936 4659 43 1055 602 4718 4073 844 882 
1124 1314 1263 784 534 5750 4433 3559 2540 
610 5913 4518 1595 3124 3313 2578 4107 4713 
3876 857 1475 2350 4557 1026 727 1565 5546 
3181 1106 4354 5422 79 1735 3906 4202 4835 
2564 4225 5707 3177 4490 5920 4585 4100 4182 
5568 3864 3849 5083 4567 3428 3350 4629 5729 
3985 3674 3946 4474 4343 60 3174 5276 403 
994 3984 5662 824 5481 1227 3433 3195 3153 
4605 4979 1105 2274 4141 3301 5566 1296 4883 
5564 4535 5275 4505 2037 5810 1899 5655 1269 
4582 4272 1606 2810 3384 2605 5642 4406 333 
5992 4382 1576 5286 3407 2229 4096 4037 3447 
3686 5103 3253 3208 3474 2486 5588 5760 3167 
3508 3107 2784 5560 4966 5060 2086 2731 2127 
4870 913 1419 4327 1425 833 234 2907 2613 
4880 4484 5975 2498 3713 4964 5977 4357 4679 
3444 2069 3648 949 3917 151 5199 5373 5734 
3109 2756 1668 3540 1855 5350 1473 3260 3823 
3741 1768 1546 2940 759 2732 2979 3322 4472 
6011 3363 3994 5765 4334 1833 2633 1529 5952 
3883 1220 5242 3461 2616 1838 4215 4304 5338 
3396 3967 2965 3681 4065 409 1141 1108 5131 
5255 472 624 283 1991 4519 1906 648 2845 
5953 4888 102 1527 3235 3987 6055 3927 5756 
4628 5254 2878 2823 536 363 5735 1997 3596 
1730 5674 5882 2645 5440 3243 4407 1881 675 
4859 504 2568 5915 103 3266 2806 880 1973 
5309 2924 5317 3162 6012 4333 2951 4445 2399 
5180 1152 1648 3215 3043 3172 3990 5997 3513 
1604 2420 2143 107 985 4873 4208 2741 1772 
2528 5586 4934 5759 2103 1875 4285 2609 1921 
661 2780 100 5565 1692 3953 410 3964 2225 
445 109 1879 4170 642 2072 1555 479 2243 
2091 1708 958 5184 2045 4750 1100 274 124 
1824 408 5490 4514 5197 3807 4549 3988 1540 
2922 3650 1629 565 1094 3161 5626 5715 4425 
1524 2017 5675 2062 4384 134 2822 3022 4140 
5591 5579 5743 3084 1274 2703 5392 3498 5618 
1239 4259 2765 5155 773 213 5164 5676 3370 
5805 4701 4155 4132 6006 2673 1690 379 3028 
4007 3856 5280 2956 2160 2412 3735 1528 4939 
64 2250 4094 4869 5962 5147 4926 5998 3779 
160 5947 1776 364 167 2142 3944 4365 3651 
5153 3293 1995 3729 1138 3371 1499 3454 2194 
5448 4747 6049 1236 5645 5423 5813 5867 4508 
2004 120 5460 1371 4590 4727 4067 3218 485 
3499 2015 438 3484 2310 607 1867 5018 3349 
873 990 4990 2680 2715 2985 2969 5775 3805 
19 1967 4296 4038 5230 3098 6018 2621 3095 
2921 6042 4264 5875 487 5055 4206 5748 5352 
3613 3722 5666 4390 2295 4574 3954 1160 4281 
4661 5970 3236 1689 4708 1826 5747 4469 4633 
2852 53 5673 5399 84 4800 4695 853 3931 
2217 4338 1452 2862 5452 4123 1085 6044 4077 
3204 2105 5494 5209 1156 1436 1634 4376 3742 
2694 5949 5825 1600 4943 5461 5601 3879 5590 
4821 3365 5369 5053 5660 2834 834 3806 5575 
2168 5695 5119 264 6051 3307 5987 1677 3150 
280 3626 2172 5085 4362 5937 4852 2872 3278 
5672 4014 5062 3021 1134 3929 1050 1341 4560 
5170 4386 164 4922 5945 4594 4891 4420 5967 
1516 4732 5265 3687 1918 2181 822 2642 2791 
4072 3854 5659 1809 933 5342 4148 275 3116 
5357 3600 3241 1417 4988 972 3070 722 5634 
2636 1311 5115 1279 2431 1251 5555 4295 4099 
5174 1330 4612 3406 4049 4470 5994 1616 5974 
4516 739 1862 5816 1180 4340 3757 1345 3175 
3765 555 5853 28 3639 3249 4058 4811 1405 
1610 5803 4632 2260 1229 144 3924 465 5353 
458 2401 2735 3009 4932 4795 3425 5410 3748 
5794 2809 4643 3306 4347 1282 728 390 2171 
3193 2241 4229 743 1368 2036 3585 1530 2265 
1645 3653 4084 3479 477 4269 5941 5538 988 
2114 4478 6017 2173 4392 2757 236 1182 1081 
2689 3344 517 4294 3913 2537 2692 2198 1781 
4890 1949 1744 5390 4994 2377 2681 1562 1958 
1769 5671 920 286 1430 2777 471 820 105 
961 113 5359 5711 1811 179 439 48 832 
974 550 1121 2030 2646 3989 132 68 1041 
2883 666 690 354 657 261 57 1549 33 
637 483 754 1098 4580 359 281 488 3824 
5971 4488 5557 4268 3197 5812 521 5871 3016 
5723 3458 4736 5669 2094 4544 5515 524 2284 
768 4627 3020 4178 4467 5134 5570 2525 190 
6033 5722 1258 5783 2177 1647 1685 1696 3753 
5904 4479 6068 2607 2939 1442 5381 886 3820 
5471 5468 1870 3543 306 5271 4126 1431 2119 
4442 5745 5988 4095 3616 1966 5472 4761 5272 
2888 3737 5332 5362 954 5144 809 616 3847 
5584 2375 2563 3429 968 5852 2816 4265 3605 
2356 1034 5791 1883 3303 4415 5886 6007 1445 
5577 415 3334 5854 5856 1040 5355 1014 919 
1860 1216 3102 786 1822 2989 2441 204 4489 
3209 2481 3035 1914 3318 1764 523 5703 231 
3054 4555 6 1841 2237 1625 1273 4546 1448 
2492 2487 5819 3186 1485 1392 571 869 1312 
1125 3797 24 2955 4383 4528 1355 762 3730 
3845 814 217 2611 2042 538 1522 1407 5782 
4771 4603 5978 2120 1971 1957 5096 3701 2047 
386 5337 4020 1985 1798 1211 1886 4652 4424 
4875 4610 1361 4829 5189 5632 4631 1114 917 
1261 4237 5592 1787 4944 5685 938 4506 758 
5015 4286 2459 2560 5553 4216 1753 4693 1207 
2416 953 2876 2778 2520 4112 1536 4231 4709 
2303 5157 1404 1501 1307 4486 5600 2230 5447 
3007 3200 2043 3502 3202 1136 5824 2744 3939 
2655 2044 2011 2708 5435 6036 2598 883 2933 
3240 5133 802 1557 4375 289 2213 3544 3033 
1433 1539 2478 5699 30 5866 4217 1954 2074 
4274 3228 2383 1243 3071 2588 1813 2454 4845 
5708 520 659 830 1591 2292 2009 4127 5878 
401 2448 2761 5774 1120 2982 4388 3871 2916 
5525 4586 5792 3135 793 5720 3417 2506 232 
4308 2032 2149 2164 463 5721 2622 2895 1756 
1579 866 3853 757 679 310 1661 2046 3410 
2288 2618 3862 1256 4114 5375 4634 5366 6046 
6060 4236 5985 3356 4906 5437 4953 5075 2218 
4498 4403 5608 4455 5001 5657 3825 3214 3507 
3053 2893 4238 4059 2159 6020 4838 5043 4793 
3468 1950 5072 2458 3930 5106 6032 4688 2833 
5807 5228 1635 2790 686 3459 4385 5094 5619 
4071 2203 1745 5223 2847 4287 2579 4788 4145 
4545 499 4050 5074 1628 5916 4510 3591 3376 
2515 5067 5391 5688 4328 2899 2993 3589 4142 
5943 5991 3708 3168 5892 1383 5887 5758 4973 
2336 5954 5097 3716 3328 3556 2477 3096 2835 
1054 1253 669 1240 182 560 3869 4414 5113 
4092 4457 3048 2786 1797 2450 2666 3225 2134 
4760 357 5778 4481 4061 955 5835 1766 5505 
4981 5725 2832 5023 5327 3368 97 5907 4465 
1494 3317 2115 3019 2923 4252 5116 3431 3622 
5548 2768 5415 5493 3763 5169 1873 1726 1411 
1421 4550 2894 2859 3726 2299 790 1854 81 
170 2759 2261 2959 300 5110 1846 2804 4790 
2409 2304 656 1844 5656 2480 2156 4374 1244 
3424 3481 474 3059 1871 2329 3130 3744 350 
3332 3045 819 5513 821 5104 5404 4686 522 
2146 3064 3427 3141 1994 1915 2861 412 5251 
893 924 329 1044 1597 6026 1665 965 324 
141 4331 2033 1739 2944 4928 1955 609 5495 
1535 2660 4854 1583 2344 2078 4833 5462 3338 
3504 2439 3286 4133 588 4561 4801 5305 2815 
3692 3890 2942 1763 4270 3492 4672 2473 4998 
9 1521 1605 4757 133 67 847 5151 1178 
1395 454 896 1290 5328 3114 3925 4109 1291 
1381 1987 717 3331 1728 703 693 3304 2772 
176 4666 5054 5446 4201 1221 1972 4480 618 
2070 3584 1636 939 2319 402 587 1066 3184 
2508 4326 3142 5470 2981 2911 1483 271 5412 
2482 4692 212 20 3324 1304 1111 1389 1089 
558 21 887 836 55 2879 5193 3103 1107 
5654 6027 4987 5561 3770 270 414 1058 3140 
166 4200 1866 676 1161 3999 2048 1544 1288 
581 5459 4710 2973 2728 4778 5891 4401 2187 
1415 2943 427 5140 5026 1450 3637 546 592 
763 5939 3185 4600 4410 3273 5091 5198 5112 
243 1337 4923 5201 5858 5149 4185 5181 5036 
5324 983 218 1627 4909 1669 2811 1213 58 
2249 1016 5569 5563 4846 2339 2946 2422 553 
4211 1493 5860 770 1751 1074 2669 5002 2964 
4896 1021 1173 825 3798 5640 5374 4163 4138 
3382 5543 5826 3090 3888 5524 2566 5888 5382 
3041 5874 4853 4076 3978 4152 5011 1191 5044 
3614 3732 5963 3833 4435 5647 4836 5528 2927 
5261 1401 4319 5643 3505 4976 1036 4398 4678 
2572 1703 2253 1651 4111 3633 3159 2058 4719 
2957 4400 3545 5984 2467 4893 4254 4728 3357 
5048 2082 3050 3587 1157 2449 4364 1996 5473 
5086 3025 2688 5401 2963 5167 4013 4698 3128 
838 3957 4857 3810 2106 5081 1224 4607 5766 
3969 3950 2914 2710 5613 5964 3212 4219 4134 
1984 5883 5069 4513 3372 3623 5237 1009 3972 
3229 5248 3851 3718 6048 530 5918 4432 4952 
5442 5539 4444 4026 2712 5454 2385 4744 1783 
3515 299 5931 4714 5426 4894 1965 4712 3056 
5126 6001 1613 6067 4684 615 2667 4174 4039 
5821 5834 4380 2022 2096 6002 4804 3176 548 
4500 2857 3804 632 3918 6062 6014 3719 4813 
5210 5784 3955 3839 5833 2937 3246 4258 4003 
3912 6030 4992 583 3579 1551 5192 1151 593 
617 10 2200 2994 1078 1233 2289 1897 1091 
3143 3922 2535 1112 4079 1149 404 785 3817 
975 1758 1732 2318 1289 136 4377 1179 2077 
5617 1186 2340 1286 5740 492 4302 340 6019 
5795 2121 5574 4207 2050 4062 6063 5257 2472 
47 2683 3865 3620 5161 2517 4422 4355 4887 
5517 2175 5118 4945 3326 2548 1799 6043 3835 
4651 2402 5550 3762 2504 3111 3575 4685 1774 
3952 175 3310 2690 3778 5443 4060 5612 2634 
1208 5295 1487 5839 1803 6050 5318 5713 3255 
3296 510 5693 5389 3541 1414 2766 4878 2901 
4548 3483 3087 4677 3113 3583 5556 3895 3004 
3503 2523 3627 4716 1206 4742 4188 2002 700 
1835 3638 4575 4473 5946 4572 2100 2604 4090 
2897 4395 3803 3280 3891 5319 1618 3775 652 
2312 5154 3323 4794 1853 5922 5489 3404 3534 
3321 3281 2802 4805 3841 5430 5840 927 26 
4075 3910 1930 3629 4273 5303 4048 564 2990 
3764 4900 3551 3704 3361 3198 2567 3058 1339 
3717 2974 3088 1308 1318 3187 3683 2774 5829 
5439 3125 5753 2764 4851 2551 4597 4930 3568 
3836 4776 4303 4756 4704 1192 4108 3203 2754 
4577 2871 4002 4619 2671 4682 5465 4614 1176 
4543 2891 1492 2592 2631 1607 4246 4466 4369 
3546 2869 1931 4861 3992 3569 3844 1928 1761 
543 5585 5780 4184 4817 902 3287 4263 1110 
1705 2293 3394 1891 5065 2880 3932 1195 5806 
4329 5137 5020 2474 1189 2545 351 5483 2534 
3239 2945 2812 4638 4785 1079 1979 2701 2093 
2228 380 3606 5252 4220 1729 1757 4106 1859 
3983 2276 3794 3549 2601 395 2 4997 14 
1088 1399 2874 5205 775 3860 3995 2807 6016 
1171 2770 3682 5322 3314 83 4136 1903 5903 
5637 3267 5308 5152 5433 1695 1001 749 444 
1084 1951 5542 4387 2684 206 3302 4260 4604 
1818 5996 3308 4647 1003 92 3776 1068 5215 
2355 5302 4036 3011 4503 5143 4144 267 2326 
1438 4233 4917 4137 4221 5123 2099 493 3156 
221 4116 4297 5811 2006 1643 1489 5449 5203 
1977 3120 1778 3902 3663 1788 5906 858 5109 
4972 80 4042 680 1241 5385 6029 1814 114 
2367 2739 3122 5186 5300 5326 4477 1254 304 
2281 5797 4539 4118 1148 5551 5016 4927 2706 
2445 2992 1741 3801 561 3061 3373 4694 2041 
4609 5999 4601 3173 421 42 1620 3205 1242 
5363 4536 5966 4271 5499 3126 5944 5061 1018 
3747 2328 2851 5058 1802 2415 4803 5804 803 
1727 5408 5636 2610 2510 2024 5313 1831 5298 
5880 3473 5535 1403 1894 3550 406 3456 2152 
3288 5554 1531 4616 3975 5078 1038 3861 2900 
4989 1102 4576 3030 3676 3826 4863 3027 4483 
3392 4131 4165 3707 2214 2428 4485 187 850 
4360 4839 1948 6058 3039 992 4171 5311 3675 
2357 2864 1437 4985 2896 376 1212 4212 872 
1255 5307 1271 1023 3594 5124 1656 1975 4782 
5800 2850 3026 4135 2010 2352 4834 2443 1847 
2758 4977 1456 2675 1611 2589 3982 1852 2060 
5259 3818 829 4203 3796 3319 4902 1517 1133 
4918 5798 5624 5290 5344 1712 2035 146 2760 
220 1420 5128 535 5690 5464 272 5267 1601 
653 4341 2546 5400 5731 75 3388 2380 5293 
4396 5162 5160 1012 2977 605 2092 3506 948 
1422 1780 696 2123 4052 767 638 4027 4125 
2363 4251 2709 532 3617 1277 3258 4430 1800 
4209 4169 5537 2574 90 1087 500 1733 1900 
2753 480 5478 91 428 1052 2912 4280 1589 
5573 2133 418 2055 903 502 1135 469 3277 
3907 4646 2516 4971 6064 7 181 711 4022 
4437 849 4015 3024 3863 1287 579 2550 4653 
2749 1736 4416 1385 1 3960 870 2462 1963 
5233 1184 734 2538 4051 6003 688 1789 4032 
5121 1559 1313 1035 4330 1348 5665 1785 5285 
1719 4564 2267 5291 2984 119 491 4565 74 
779 4021 1073 425 3227 5125 2849 378 732 
2597 1904 577 854 683 4551 2390 3163 4705 
1543 215 442 916 227 766 1167 367 1680 
388 110 1200 760 796 1072 3795 361 1222 
747 156 1432 61 1603 1812 1523 5414 5581 
2484 874 4620 5686 3042 2536 5396 4105 2867 
5873 3769 1139 559 3439 5757 2246 2479 2511 
4453 4871 2919 1964 2286 1569 929 2721 498 
3366 5934 27 4222 2012 5466 2771 2686 3654 
3482 1503 3974 1352 2430 3377 2199 4288 1700 
2988 4421 3799 1024 1674 2725 1181 2210 1877 
2494 2913 4938 4808 4122 5221 620 3316 4102 
2934 928 3290 2204 3413 868 4451 5358 4323 
1335 4730 4245 389 1988 4676 266 78 2302 
405 1246 2685 2779 5077 1185 551 1864 4827 
2373 2405 4592 1357 2189 4311 3840 466 2614 
1588 2781 4608 1266 2584 4993 2370 4436 1740 
4807 3251 3121 3767 4841 2828 3399 5763 159 
827 5039 2257 1587 3129 5378 5761 4707 4901 
5441 5325 331 4121 1128 196 245 1693 1574 
5510 125 4005 2068 5202 5456 4957 2656 915 
4613 1306 360 2209 1458 932 1495 3362 4978 
2704 772 4494 2144 3688 1734 194 1961 3485 
3980 1590 5951 4722 2414 5877 5908 5182 4621 
4956 6070 5365 3885 5420 4995 4799 3265 5258 
1714 4290 5268 5628 3630 2423 4235 5770 5799 
5321 5019 6065 4187 450 5444 4699 5120 1449 
1379 991 2529 815 3712 2438 1150 884 4738 
5277 643 936 5960 644 5195 2794 2424 1300 
433 3615 2287 3001 4660 5603 4313 3529 2463 
5057 5211 4348 2541 4724 4307 5911 1525 5051 
1276 1131 1786 2188 715 2906 3740 4080 3634 
956 424 2652 3378 963 3685 2262 1550 2371 
3032 3469 5108 795 5902 147 1953 1572 909 
1032 1679 2333 1280 4856 183 449 2825 2496 
4240 3751 4088 4447 3976 1101 2602 1538 1884 
3364 3369 5100 2932 4057 5865 4935 1790 296 
1752 1850 2145 1896 740 4720 1285 4820 2490 
2165 4492 5231 1340 3006 11 957 1408 964 
881 2080 851 235 5504 5102 2651 663 1720 
4759 5968 4984 4940 4253 4949 5611 5644 4830 
3472 5679 6066 5301 3254 1234 4876 2877 5959 
2038 5969 5506 4199 1586 2342 5986 5609 878 
4825 718 3909 3400 966 4429 4000 5474 4593 
5331 4802 5486 4649 13 5596 3285 5428 5206 
5965 2208 3877 5843 5789 4054 860 5348 1353 
98 4980 4675 5316 4905 5507 769 687 4053 
3566 4558 5451 614 2372 1686 1172 2716 2242 
2513 4030 4587 3937 5340 5989 5814 2366 50 
5079 244 2005 5605 1214 5893 2795 3565 3079 
3002 3073 3694 2583 2113 237 2954 5749 2650 
947 801 1637 3077 1201 805 3294 3052 3677 
1933 2711 823 3643 4540 1476 3462 456 3036 
864 1158 4356 4772 1566 1164 4974 4837 3138 
2902 4910 2360 1619 5377 5842 2300 1309 1510 
4156 1454 375 5129 2227 664 1876 5049 3148 
1615 3523 4702 4963 4920 3547 437 2696 3720 
3051 248 2139 2489 2369 3573 3436 930 3398 
1391 2222 3501 3375 2665 482 2971 4969 3916 
5924 867 2637 650 5354 2413 4417 3525 1594 
3828 5751 1792 3330 603 4459 3013 528 2129 
5479 4872 4885 3691 1707 2938 3127 99 3690 
172 859 3183 862 2108 1359 4639 2021 338 