# vtk DataFile Version 4.2
Generated by LIGGGHTS
ASCII
DATASET POLYDATA
POINTS 5997 float
-0.0166663 -0.0170578 0.0124356 -0.0158067 -0.0179797 0.010831 -0.0129681 -0.0190028 0.0104981 
-0.0118736 -0.0206988 0.0106997 -0.0101633 -0.0194816 0.0105162 -0.0112252 -0.0177342 0.0111999 
-0.0099925 -0.021499 0.010811 -0.00926063 -0.0179966 0.0116063 -0.0134605 -0.0172935 0.0114462 
-0.0144358 -0.0190131 0.01199 -0.00881214 -0.0198766 0.0125725 -0.00844596 -0.0222735 0.0118926 
-0.0107725 -0.0213862 0.0127292 -0.00771109 -0.0190808 0.0108515 -0.00566538 -0.0195567 0.0106675 
-0.00128585 -0.0223947 0.0107972 -0.00424517 -0.0177975 0.0109543 -0.000829868 -0.0174047 0.0108999 
-0.00646041 -0.0173701 0.0106266 -0.000170315 -0.019342 0.0109809 -0.00541486 -0.0214881 0.0113931 
-0.00184499 -0.0204821 0.0109629 -0.0033908 -0.0217903 0.011272 -0.00283146 -0.0237056 0.0110542 
-0.00485388 -0.0233748 0.0109909 -0.00371647 -0.019797 0.0111385 -0.00204531 -0.0188105 0.0120747 
-0.0065741 -0.0230291 0.0120102 -0.00698288 -0.0208214 0.0125009 -0.00323084 -0.0172432 0.0126716 
-0.00489585 -0.0190126 0.0125502 -0.000508963 -0.0214161 0.0125815 0.00255691 -0.0214237 0.0105949 
0.00197084 -0.019421 0.0105172 0.00193753 -0.0233494 0.0108456 0.0031939 -0.0176366 0.0107367 
0.000403897 -0.0212856 0.0106803 0.00644793 -0.022463 0.0105427 0.00385093 -0.0236512 0.011421 
0.00594888 -0.0186121 0.0108765 0.00119592 -0.0176403 0.0111048 0.00453194 -0.0217577 0.0112373 
5.4885e-06 -0.0238746 0.0111812 0.00709628 -0.0203803 0.0110369 0.00386115 -0.019837 0.01111 
0.00807306 -0.0185543 0.0112824 0.00689002 -0.0168687 0.0113843 0.00524395 -0.0202323 0.0125583 
0.00452332 -0.0183561 0.0122833 0.00568088 -0.0231761 0.0123038 0.00261569 -0.0189567 0.0126618 
0.0013503 -0.0221397 0.0123962 0.00103826 -0.0201591 0.0123467 0.00299011 -0.0209215 0.0126749 
0.00754665 -0.0226239 0.0128132 0.0090147 -0.0201318 0.0104867 0.0106047 -0.0213351 0.0107063 
0.0106087 -0.0172501 0.0109109 0.0122511 -0.0204782 0.0118301 0.00857796 -0.0220926 0.0110087 
0.0107412 -0.0192939 0.0111466 0.0161544 -0.0176252 0.0113198 0.0126106 -0.0184987 0.0120207 
0.0147142 -0.0188696 0.0120417 0.00968048 -0.0217949 0.0126533 0.0100513 -0.0181869 0.0126671 
0.0083975 -0.0201984 0.0126788 0.0088727 -0.0166775 0.0118874 -0.0221857 -0.00876226 0.010619 
-0.0192745 -0.0141242 0.0110277 -0.0203558 -0.0123719 0.0113971 -0.0183726 -0.0121203 0.0113243 
-0.0213876 -0.0106514 0.0111874 -0.0179841 -0.0156759 0.0117989 -0.0188977 -0.00854208 0.0111746 
-0.0167964 -0.0130444 0.0123383 -0.0195838 -0.0106047 0.0121235 -0.0176499 -0.0100925 0.0119124 
-0.0164556 -0.0115232 0.0109626 -0.0147341 -0.012546 0.010455 -0.014283 -0.0144991 0.0104107 
-0.0126543 -0.0156768 0.0104762 -0.0155244 -0.0160033 0.011119 -0.00873369 -0.0112694 0.0113045 
-0.0124895 -0.0137441 0.0110705 -0.0139813 -0.0109799 0.0116308 -0.0104519 -0.0100999 0.0112812 
-0.015614 -0.00978353 0.0116606 -0.0137395 -0.0089904 0.0117267 -0.00926118 -0.00845935 0.011498 
-0.0118571 -0.00865386 0.0109884 -0.0163487 -0.0149588 0.0127232 -0.00848796 -0.0129339 0.0123999 
-0.0104434 -0.0125322 0.0120577 -0.0123635 -0.0121802 0.0124994 -0.0122289 -0.0101913 0.0122577 
-0.0080224 -0.0159715 0.0115215 -0.00202944 -0.0158138 0.0112725 -0.0028819 -0.0111109 0.0114483 
-0.00113136 -0.0140106 0.0112924 -0.00407301 -0.0158449 0.0114472 -8.13661e-05 -0.0123073 0.0113242 
-0.0060103 -0.0157946 0.0119956 -0.00650382 -0.0126453 0.0120436 -0.00309847 -0.0140215 0.012048 
-0.00611763 -0.0106846 0.0119849 -0.00459162 -0.0120425 0.0120357 -0.00169853 -0.0125182 0.0125003 
-0.0071547 -0.0143625 0.0128383 -0.00513933 -0.0140106 0.0125975 -0.00418787 -0.00993878 0.0124423 
-0.00778326 -0.00962669 0.0123565 -0.0017684 -0.00953852 0.0121095 -0.0058679 -0.00871877 0.0122933 
3.86675e-05 -0.0102954 0.0116612 0.0049102 -0.0165846 0.0109363 0.000334765 -0.0156839 0.0110841 
0.0039056 -0.0125359 0.0113197 0.00585989 -0.0131094 0.0112464 0.0046097 -0.0105913 0.0112335 
0.00755442 -0.0118601 0.0113895 0.00189662 -0.0126495 0.0112611 0.00256369 -0.010715 0.0113669 
0.00761657 -0.014152 0.0110926 0.00594859 -0.0150657 0.0117848 0.00367688 -0.00882005 0.0114833 
0.00574899 -0.00852556 0.0115942 0.00641805 -0.0103566 0.012068 0.00523974 -0.0118508 0.0127533 
0.00762796 -0.0152186 0.0128608 0.00178526 -0.0089456 0.0121211 0.0128384 -0.0143019 0.0115542 
0.0126864 -0.0167151 0.0111197 0.0112013 -0.0154635 0.0115999 0.0110454 -0.0135369 0.0110871 
0.0138398 -0.0125589 0.0114379 0.0146286 -0.0163672 0.0116401 0.0148689 -0.0143795 0.0114108 
0.00838786 -0.00997269 0.0117552 0.0119236 -0.0117623 0.0113744 0.013532 -0.0105695 0.0116258 
0.0158778 -0.0126556 0.0115939 0.0153907 -0.00983896 0.0113184 0.00935528 -0.0126535 0.0117558 
0.0136861 -0.00856908 0.0116053 0.00938615 -0.0146754 0.0120111 0.0102287 -0.0108133 0.0119593 
0.0150535 -0.0112545 0.0127946 0.0165493 -0.0151872 0.0123022 0.0175712 -0.0161202 0.0106227 
0.0199842 -0.0103618 0.0108335 0.0170207 -0.0110344 0.0113297 0.0177503 -0.0134702 0.011474 
0.0188077 -0.0117224 0.0119241 0.0218459 -0.00975355 0.011426 0.018197 -0.00941607 0.0111446 
0.019698 -0.013525 0.0119495 0.018544 -0.0150696 0.0126824 0.0208481 -0.0117189 0.0123178 
-0.0206146 -0.007524 0.01082 -0.0233215 -0.00497666 0.0108828 -0.0225436 -0.00319827 0.0102354 
-0.0219687 -0.00127041 0.0101969 -0.0199938 -0.000900793 0.0105362 -0.0169278 -0.00826919 0.0114792 
-0.0227964 -0.00694803 0.0113125 -0.0180182 -0.00659589 0.0113754 -0.0173842 -0.00470916 0.011616 
-0.0189809 -0.00351647 0.0111551 -0.0208145 -0.00270481 0.0111342 -0.021339 -0.00471334 0.0111821 
-0.0182681 -0.00161965 0.0113037 -0.0238046 -0.00189524 0.011162 -0.023744 -0.000593577 0.00934899 
-0.0195199 -0.00533059 0.0118125 -0.0211775 -0.0064118 0.0126524 -0.016659 -0.00273882 0.0119418 
-0.0236006 -0.00334847 0.0125991 -0.0221824 -0.00180691 0.0125884 -0.0204137 -0.000697981 0.0125583 
-0.0148867 -0.00263133 0.0107265 -0.0164158 -0.00122896 0.0105797 -0.014275 -0.000657465 0.0106109 
-0.0129857 -0.00712111 0.0117684 -0.0120928 -0.00530766 0.0113713 -0.0134514 -0.00384231 0.0115158 
-0.0106721 -0.00701476 0.0111525 -0.0126814 -0.00199449 0.011171 -0.010704 -0.00151513 0.0116011 
-0.0153767 -0.00427463 0.0118649 -0.0112674 -0.00343118 0.0117903 -0.00843969 -0.000650598 0.0113976 
-0.0152984 -0.00799958 0.012675 -0.0101681 -0.00513574 0.0118908 -0.014741 -0.00619 0.0120281 
-0.0166259 -0.000860125 0.0127421 -0.00209384 -0.00468948 0.0108842 -0.00816862 -0.00532359 0.0117686 
-0.0047651 -0.00722429 0.0115407 -0.00358938 -0.0032894 0.0109827 -0.00157133 -0.0027484 0.0113197 
-0.00437039 -0.00507613 0.0115456 -0.00630554 -0.00593762 0.0112944 -0.00291291 -0.00645407 0.0114078 
-0.00419514 -0.0013755 0.0111703 -0.0067114 -0.00392605 0.011581 -0.00659067 -0.00185087 0.0114116 
-0.00175543 -0.000703518 0.0112353 -0.00129445 -0.0075632 0.0119654 -0.00762725 -0.00761065 0.0122861 
-0.00321547 -0.00818083 0.0123717 -0.000696413 -0.00560219 0.012014 -0.00497428 -0.00310702 0.0125278 
-0.00315599 -0.000626404 0.0127188 -0.00527634 -0.000453333 0.0126629 7.34157e-05 -0.00163151 0.0109227 
0.00405195 -0.00309894 0.0105215 0.00754571 -0.000794321 0.0107611 0.00175319 -0.000531992 0.0107378 
0.00041879 -0.00358456 0.0112795 0.00122055 -0.00544521 0.0112855 0.00394036 -0.00505034 0.0114028 
0.00453488 -0.00696408 0.0112733 0.000676585 -0.00734873 0.0116408 0.00565466 -0.00391687 0.0114198 
0.00225594 -0.00256231 0.0112406 0.00587591 -0.00195947 0.0109118 0.0073786 -0.00751733 0.0122481 
0.00569506 -0.00587551 0.0125227 0.00738187 -0.0048259 0.0122849 0.00261445 -0.00676545 0.0118856 
0.00240773 -0.00437897 0.0125301 0.00754909 -0.0027259 0.0118908 0.00397904 -0.00156745 0.0118729 
0.000784756 -0.000661367 0.0125543 0.0144934 -0.00615463 0.0107828 0.0165922 -0.0029515 0.0108976 
0.0116339 -0.000869161 0.0109105 0.0124312 -0.00705299 0.0112095 0.0129941 -0.0049855 0.0114938 
0.0150417 -0.00431151 0.0114508 0.0155253 -0.00785509 0.011093 0.0125188 -0.00247756 0.0117321 
0.0145315 -0.00237779 0.0115865 0.0164605 -0.00574433 0.0115487 0.0158626 -0.000981669 0.0110441 
0.00954998 -0.000688235 0.0109861 0.0136257 -0.000466574 0.0111711 0.0108678 -0.00613579 0.0120944 
0.00934438 -0.00817589 0.0118908 0.0093872 -0.00477472 0.0121095 0.0112733 -0.00401728 0.0120594 
0.00970939 -0.00279719 0.0117957 0.0236227 -0.0036198 0.0105164 0.0177928 -0.00136636 0.0105805 
0.0204071 -0.00835085 0.0113025 0.0228743 -0.00695054 0.0115404 0.0175297 -0.00746659 0.0112233 
0.0209333 -0.00640148 0.0115657 0.0178941 -0.00432365 0.0116424 0.0220382 -0.00465739 0.0111748 
0.0191165 -0.00281813 0.0110272 0.0189476 -0.006026 0.0115596 0.0201181 -0.00440622 0.0117197 
0.0203648 -0.00134769 0.0115771 0.0222964 -0.000798799 0.0115835 0.0232614 -0.00541499 0.0127773 
0.0223504 -0.00840652 0.0128505 0.0220379 -0.00275899 0.0118865 0.0238545 -0.00194146 0.0121211 
-0.0190791 0.003398 0.0102261 -0.0237423 0.00129965 0.0101363 -0.0169663 0.00379317 0.00982244 
-0.0192995 0.00539343 0.00946466 -0.0213061 0.00590169 0.00955991 -0.021339 0.00374081 0.00984265 
-0.0195878 0.00121585 0.0103661 -0.0216 0.00173492 0.0100255 -0.0234851 0.00326294 0.0106121 
-0.0230721 0.00525521 0.0102594 -0.0170092 0.00614438 0.0102185 -0.0226833 0.00751603 0.0100213 
-0.0178384 0.000339156 0.0111086 -0.0174992 0.00232688 0.011083 -0.0219562 0.000323807 0.0116339 
-0.0189374 0.00655637 0.0110578 -0.0209913 0.00698992 0.0113864 -0.0204629 0.00775908 0.00951575 
-0.023822 -0.000118242 0.0122244 -0.0203455 0.00131077 0.0123047 -0.0238308 0.0018968 0.0122274 
-0.0220897 0.0029142 0.0123112 -0.0200151 0.00329926 0.0123314 -0.0233598 0.00469769 0.0121983 
-0.0190543 0.00511892 0.0124602 -0.0214781 0.00491928 0.011522 -0.0171521 0.00584174 0.012383 
-0.0228958 0.00679997 0.0126243 -0.0179105 0.00782899 0.0123965 -0.0135114 0.00477604 0.00956435 
-0.00982988 0.00585553 0.00959754 -0.0128486 0.0030072 0.0106249 -0.0112665 0.00148759 0.0107845 
[...]
POINT_DATA 5997
FIELD FieldData 7
id 1 5997 int
5106 2728 5789 5120 5164 2795 843 1213 5605 
4231 637 464 5239 1686 4480 4050 2243 2794 
2652 2374 4763 3221 3608 1384 808 2689 258 
5781 1303 701 220 4765 2035 3357 1110 13 
2561 2917 1451 3702 1536 3555 884 1319 5444 
1729 5738 3536 3642 984 1680 2966 1676 5187 
4588 726 2120 3231 4278 3168 2690 5283 1005 
4701 5142 2142 5140 1399 1322 1376 4201 2226 
1021 1123 1731 1654 377 4232 56 4002 5206 
4984 1706 1179 5893 1984 4003 4716 816 4799 
1237 3265 2355 3960 5772 149 1678 5632 430 
383 2543 3986 2495 5075 4987 3211 5616 3179 
1210 938 4684 3553 4894 1835 4757 4575 469 
2323 4286 757 2259 4970 4917 1853 732 5668 
5688 106 5788 1926 5574 2573 5925 2198 2551 
3149 1816 5182 1973 4256 2874 3486 2137 1202 
3777 1449 1041 1665 5441 1506 1056 4953 4059 
945 1770 5846 2281 5251 2225 2627 2663 5292 
507 3529 5348 1653 4114 5356 5526 3060 4247 
2266 5704 6009 4846 863 1043 5866 953 2590 
1843 1433 3014 155 1078 3131 705 3420 911 
1091 473 3397 4143 5633 708 118 101 1020 
4168 4284 3320 1359 3103 2059 2994 4142 4529 
2572 4314 593 4718 3287 3325 1650 4379 3693 
482 5156 4160 5280 690 2017 381 142 5273 
1107 3055 4492 1559 2325 5650 3416 3690 1381 
2434 2372 2789 5699 5502 5237 602 1758 5979 
629 3786 750 4153 691 5256 4581 3443 3308 
1708 2700 122 3280 2411 5676 2861 4331 2308 
889 1915 4915 1777 1577 2505 4263 2205 2162 
5570 3018 5323 5971 3126 1139 452 2746 1371 
3373 2199 3144 3263 4942 4816 5040 2998 2511 
4618 1400 3746 4815 3738 5515 2484 1362 2246 
3439 2443 3966 5948 5468 970 1461 853 5088 
3405 969 384 2587 3544 1389 5934 5982 2025 
1142 5535 2248 3327 1533 4484 4964 4661 4483 
4271 3935 2900 2776 3089 2496 1429 2529 3685 
5602 1632 6023 2168 5453 1552 402 2827 2691 
5466 4102 4479 1709 1538 2808 1823 5245 16 
516 5461 2430 1034 325 3675 3933 531 3806 
316 4914 897 4165 4591 4078 2322 3207 4387 
1140 2215 4025 5557 5082 3785 5406 4413 704 
3496 5030 5742 3393 1936 1442 968 5000 2536 
5649 4828 3625 1238 5111 5315 1878 621 1369 
3753 3477 3713 5938 3666 3658 3519 4775 2928 
6052 3968 3307 787 2640 446 470 1075 5339 
1664 1193 1375 818 4559 712 1203 5204 4560 
1539 3336 2009 5405 2032 4436 1024 4104 307 
3514 6050 1149 1226 4878 2219 1360 1642 1541 
3938 1426 1132 1268 646 5809 2148 4117 1866 
4018 3087 334 3575 3040 2029 328 1161 3093 
2076 1812 5806 3679 2177 203 2773 5607 4410 
1972 3663 3343 423 5489 3956 5550 3549 5606 
319 2949 2968 1622 435 4569 2131 5736 1748 
4464 4159 5207 946 4022 3567 1427 2634 1778 
1293 804 1791 4405 460 3878 2479 5351 3745 
150 2452 4230 2950 1428 284 3210 2460 5171 
3023 4226 747 1788 4234 2999 5398 1321 807 
4531 2957 5767 5250 5944 4005 3042 2939 5869 
4534 190 4105 2888 768 4904 4222 3897 3097 
2382 4068 2908 5986 2435 4023 1537 123 5900 
4191 3379 575 1248 2117 2615 4122 1028 3377 
631 2012 1352 3599 635 1701 4537 999 5791 
2816 5221 2488 2277 3490 1825 371 161 849 
2395 1 908 2007 3362 4646 4972 2110 267 
4403 2107 3606 4176 4700 1979 6003 5054 5249 
3389 4011 2104 4604 194 2054 4666 1662 4042 
1051 688 4743 229 1759 308 5308 3274 5007 
962 2390 783 779 4427 1767 90 3163 4663 
140 1889 2947 304 4653 420 1211 563 5366 
3610 382 1167 766 3276 2858 2280 5737 2101 
4450 905 1042 502 5385 1900 2686 361 4204 
4882 1385 5216 5724 1766 1372 4515 3660 2744 
2601 4558 6024 3651 996 5435 3647 3057 915 
3200 5321 2519 4968 1026 5393 1240 4473 2566 
5015 3773 5072 3844 669 3455 3427 2044 693 
4193 4851 151 5716 4348 2285 1307 2178 5836 
1241 2006 739 5482 4553 2364 2562 1494 940 
5685 985 3709 2412 2092 961 4167 5246 5619 
2618 2090 4058 5341 1480 4393 4254 2030 4932 
4795 5552 2173 1470 5149 3582 3046 4496 883 
1597 5132 2477 11 4369 3930 1498 3814 1114 
4891 1500 279 5923 2329 4698 3139 3217 349 
116 4702 1692 2171 2072 105 3501 864 1817 
4407 148 4516 213 4786 3880 4346 3130 1613 
1981 5226 586 479 5691 2349 4693 2115 1136 
4767 3937 944 3457 3100 2509 1841 3720 1661 
1489 1834 2518 2124 4391 1126 5326 4783 2593 
5334 1594 3479 4063 5155 1169 778 8 1772 
5359 1881 5957 1438 1407 1325 2609 5147 3971 
2768 5834 2388 2980 5045 791 1382 5500 5604 
917 3566 3191 3551 5423 5740 5201 2754 6010 
4905 5924 3886 3877 138 2946 2301 2513 958 
2745 3912 4491 3750 1082 5418 2379 59 3229 
1098 3894 4090 4017 4235 215 858 5848 2542 
1150 1404 4086 5818 5770 4502 5248 3874 3011 
3370 2547 419 5211 1655 4600 686 4306 2397 
1096 5365 4509 5127 1253 4876 4109 5596 2603 
4952 3512 2708 581 2439 5486 387 4329 4097 
3694 4819 4903 1672 4375 4956 5428 3548 2474 
1361 3721 2350 835 3677 4579 1112 5507 3991 
1586 1532 5087 80 357 5228 2843 2145 4293 
841 2230 5073 4215 1996 2770 3630 5912 2476 
2297 5784 584 5927 639 1256 4061 2659 129 
5778 988 5850 3980 3111 1008 3927 3240 2650 
1781 2480 3283 2959 2002 5458 5337 3468 1257 
5440 5779 4237 2806 2102 3569 5961 3807 1220 
3169 243 1862 5375 2425 3931 3967 1430 4717 
1814 4130 5179 5513 3293 4794 5527 5317 113 
5091 5609 66 322 18 5464 3734 1187 4628 
5613 1251 5431 4603 1458 5877 3944 2644 3598 
3614 4494 5090 5935 4200 4678 550 4145 2981 
1340 5300 1095 2757 5048 1417 4118 1229 4720 
4610 721 4705 3445 5592 5974 390 4101 2777 
4372 5034 4608 4185 63 974 3561 4977 4829 
2656 4417 4931 2660 650 5771 2546 3193 2019 
1958 5098 5410 4980 2385 5830 3028 1811 2556 
2815 695 3957 6067 4630 3454 440 3655 3845 
2398 70 728 793 2585 5377 5794 5322 543 
556 1793 5511 1080 1518 5484 3450 465 6045 
5990 3255 1775 1667 5136 3571 5215 5559 5569 
1249 3294 1131 5205 4682 1646 2427 5870 4892 
3185 1183 4404 3965 2926 5864 1267 4840 315 
3554 828 6046 5424 2482 742 455 5700 3423 
3411 372 2157 5068 1969 5260 4292 5785 2687 
4146 3539 183 396 5730 1148 2095 5403 4951 
956 5878 2932 1482 475 1320 2121 1698 453 
433 4351 5657 4999 1913 1109 3065 2126 1302 
5252 4317 3356 2899 4900 5906 3978 745 5002 
1754 5780 2885 4468 2462 572 681 2571 2316 
2786 2077 4950 1484 4750 126 4448 4774 4275 
262 4349 3827 2903 3914 1017 2499 5391 219 
2915 3374 5640 977 3631 4842 4089 2974 4192 
4699 925 2410 5831 2408 3152 4925 2193 61 
1805 4814 132 5929 2729 39 548 5094 2767 
5193 792 1827 201 5847 3545 5556 959 3829 
1411 3073 1508 191 3188 1659 3462 3354 3064 
2943 4998 1153 4571 4798 12 5299 3922 752 
1286 3635 3372 2191 955 3381 5474 3682 2965 
5036 4180 2629 4082 4510 1476 98 4577 738 
4368 2064 4714 2287 1413 761 731 5505 3289 
1178 3400 740 993 4019 127 4228 3132 4675 
5658 179 4631 2822 4614 861 574 3302 2326 
4361 3524 3779 5638 5984 5954 642 918 4809 
1744 2882 1846 2062 965 1116 2122 1564 592 
1658 5344 3038 1079 5858 81 1232 2678 2549 
1421 2970 2433 2560 1573 2553 5706 2956 2774 
4239 1715 4589 1724 5915 3309 1373 4754 5110 
1836 206 3380 5533 160 1502 2 4401 5442 
5479 2416 2951 3953 340 2793 154 627 3257 
3804 4000 104 3645 2955 981 1177 5562 4380 
1147 3243 5126 3311 3415 5637 1521 5404 1927 
5997 6026 3418 3128 3659 950 1434 1275 1540 
1416 5815 1589 1955 5651 4511 4322 3472 1397 
1304 4120 1285 3899 57 5889 4358 567 3890 
4728 235 4764 2942 4297 664 1707 5208 5579 
1526 141 3036 2931 2920 3810 776 3989 3646 
2910 2747 5028 5409 2063 1524 3699 5151 2290 
4024 4459 1801 2096 3923 4500 5449 4392 3003 
2512 3206 250 5702 5871 1230 3010 4299 3954 
3197 3887 3751 2294 509 2233 1917 6039 1505 
3464 5686 1328 5279 1045 200 2867 406 1436 
4288 5061 4390 4749 4517 5696 5523 421 3303 
3747 4616 5243 4501 339 5159 3975 5669 1366 
414 4162 5549 5723 2128 719 2186 874 4158 
4467 1746 2327 3858 1242 5901 5224 2213 2275 
4520 4668 1592 3027 4434 1620 1741 537 1696 
1188 4512 3684 5217 1398 2026 4624 4135 1409 
2286 3030 4562 5825 2098 4074 5949 5695 3850 
4488 3228 4291 852 2848 5360 1298 1569 5873 
1396 4127 27 3703 1872 5053 2402 4694 1851 
2024 4548 966 4766 355 2333 899 5614 2392 
5161 3768 3081 1101 4574 3404 1351 280 147 
4327 1425 5754 3769 2172 5845 1190 636 2334 
1175 234 4172 4119 1050 3063 2533 2916 834 
2365 3592 809 2863 595 4623 2606 1786 4826 
5987 4594 2491 5760 3727 2061 1611 2141 3879 
4194 5336 3506 6034 1568 1952 2236 1848 813 
2576 2335 1542 4645 2756 2624 5890 3581 5227 
1743 5457 6005 7 5748 4134 3594 3246 3388 
3943 2485 4139 2314 3033 4943 2069 4197 1959 
3820 2907 4081 2216 562 5042 4681 4839 5672 
2428 3698 4250 177 1983 5551 1511 494 5092 
2279 4960 3995 529 30 3292 5433 5062 3165 
2176 5610 1855 5967 4212 6058 4849 2404 3560 
2782 1294 4411 3392 5503 1191 238 1657 1819 
5837 5071 5010 2859 5070 4902 3835 3045 3068 
4012 4482 3442 5798 5052 2071 2839 3444 1122 
4357 4898 4095 3430 4922 1134 1039 4691 4843 
821 1545 374 434 3390 3648 5598 2283 2362 
2292 1583 1141 4057 4443 1882 4880 337 1895 
3900 926 5064 2682 1922 2751 143 5817 3994 
1083 1062 5369 1519 3976 1747 4373 2733 5362 
954 2503 2619 4821 4741 1439 2210 400 720 
15 1029 3528 2400 2732 1093 2361 5301 634 
5790 5320 525 5975 2930 1547 498 1068 2602 
2418 933 1435 4098 1939 3781 3414 1219 1235 
4954 6008 108 2324 2838 1113 3264 1830 2020 
1874 5158 1579 794 2814 685 5006 2710 3075 
4874 1004 3272 1127 975 3426 3928 1919 2662 
3563 670 5004 1196 3782 2056 4523 5849 741 
5387 1515 4671 1944 570 3924 799 3619 1002 
486 846 1447 231 1860 2563 1335 571 1964 
1738 5310 1630 4240 2987 3262 3410 1481 3649 
1587 2284 4609 74 3541 2396 3636 4871 5800 
1333 1608 3224 676 3094 221 4549 3113 5951 
188 5282 2964 2992 4539 327 4385 5972 748 
5499 5146 270 332 3707 4066 5407 4310 55 
5278 1037 1582 3962 3446 3106 5718 3795 4499 
836 1496 2422 3951 848 4863 2632 5046 2504 
2240 4339 2856 2904 3990 4996 4309 4147 887 
293 1208 1281 5839 4552 2232 606 510 3310 
3296 2935 3739 4398 3428 1305 1365 2312 1603 
2175 4184 3491 3730 3896 277 3326 2321 3932 
4303 5626 4583 755 660 3114 1422 4065 3049 
4412 5389 1549 2166 1338 1348 3266 4257 3344 
41 558 5674 5733 1769 3406 1768 493 2368 
583 3762 1157 5940 4824 2185 2684 5192 3716 
1450 5796 2892 2125 225 3438 3815 22 3441 
3706 436 4041 4939 83 3223 4129 5291 3771 
1097 810 6040 2192 3719 3988 3834 1023 877 
5367 480 2984 2027 5510 2550 4734 4188 3244 
1012 1076 323 196 5031 268 771 3463 3186 
3688 2377 4971 4771 832 1184 4528 1492 3639 
5769 96 6069 4052 4051 2886 2475 1626 1467 
628 5381 3934 2913 2269 5266 135 3788 128 
4021 5335 2739 2065 5622 552 4753 2228 1886 
3776 5690 1719 4485 2437 723 3252 870 4785 
1935 5125 986 980 1459 4265 2375 89 5599 
3977 3731 4451 3826 928 2614 4787 1258 415 
3543 6035 3654 1883 1503 4730 840 4955 1785 
608 92 3261 1554 1513 4415 1910 5717 1877 
2725 3478 2983 2180 3607 619 2897 5448 1957 
5996 3620 764 1189 4202 540 5973 29 711 
4788 763 5795 971 2221 5922 1995 4280 5443 
4676 3156 5752 4069 6018 3819 1370 2209 4169 
1152 907 3784 2812 5189 2066 3022 2704 4654 
483 3583 4430 827 4527 4592 3434 4209 2472 
2807 5177 2431 1055 1898 351 1561 2068 2847 
1088 3258 4692 5680 3653 5017 3872 4673 1395 
1483 1104 4454 1047 2055 491 341 4564 1084 
4269 4746 579 3791 5947 772 3024 1574 407 
445 5573 1182 4121 360 379 2809 119 4860 
978 5654 2051 5805 222 5682 806 1610 671 
1645 2832 1897 1412 5803 5112 1903 3485 2781 
1963 4580 278 577 796 4449 386 3907 1789 
903 1932 760 1590 1985 597 1035 4437 495 
2245 5611 1493 2242 5150 4290 3632 1059 5960 
4916 3080 5395 5521 894 1378 5908 1314 2040 
5582 5600 900 2112 1773 2833 4587 801 1015 
1576 1022 4113 5238 425 2569 5447 1016 2717 
3259 5786 1138 5157 3297 2557 1764 4909 291 
5019 1522 2914 5067 5153 6017 2643 972 5855 
3391 3531 3346 145 5857 4709 2805 3234 1810 
2846 3790 4046 5930 1054 1669 2359 4634 2597 
3970 4462 2344 3032 2468 1722 4020 1247 3051 
4470 1282 1904 4934 2599 2830 5863 5242 40 
4295 601 5792 599 5591 3142 5518 680 3328 
5703 2894 1703 1444 456 2635 1757 4164 5400 
4949 5059 1771 4947 198 1971 555 902 1749 
4895 580 3435 6029 162 2579 3007 2159 5259 
5330 3964 4175 4804 405 1546 754 1244 4311 
5504 4084 3171 3833 5851 4418 538 4921 1949 
3669 2577 504 5942 3235 450 4157 773 2855 
5661 3260 1588 5295 259 1391 767 2001 4957 
2580 4249 247 2971 4216 4486 1982 1858 5814 
4053 2716 3267 2802 2406 4195 1978 2167 4869 
5572 2447 3522 1902 5439 3376 4572 2276 5968 
5268 114 228 312 4545 2109 1154 2203 4598 
4388 1478 2319 5623 5909 4879 4769 5799 2330 
3873 1557 2303 4103 1714 1525 3565 1534 5603 
458 4593 4557 2423 4312 5843 4367 3268 4778 
3431 3883 643 3911 5758 2520 4540 2011 5133 
1960 2336 289 5566 4940 3780 5844 2835 2821 
1840 2399 5143 2037 4414 4859 288 4841 2114 
5263 5271 746 2346 517 5689 1118 1901 3805 
3697 4273 2975 948 2045 1368 4079 1730 4983 
1732 3108 2099 4008 3077 5536 4568 3809 3741 
4493 3109 2933 4945 3796 3618 5981 1937 2299 
1279 2790 3615 3002 749 1278 2954 187 3067 
891 5811 2493 4823 535 68 5725 2972 1236 
5824 700 5130 5178 3353 5537 1215 5620 5621 
4542 2755 3577 1628 3071 2877 2179 4219 530 
3459 500 2487 2800 2592 4446 1510 6000 1962 
1787 5290 2758 5659 4308 600 2681 1726 4514 
5918 4229 144 3609 4285 1820 3249 1254 2250 
2857 717 3395 3460 1408 3595 1837 3488 5191 
655 133 5415 1975 3763 4852 1593 2544 4550 
2227 4099 4325 5277 5634 6055 5392 831 1612 
4374 1728 5509 3451 5129 5079 1994 3885 3715 
2481 4072 1850 3689 4877 2156 1000 3633 363 
765 5253 24 442 528 5269 1720 3573 5950 
4155 6030 910 5578 3862 964 545 93 5648 
3740 896 2574 2748 3921 5229 5425 4056 5746 
3542 5743 2270 5096 2129 5645 5114 3009 2353 
50 5759 2669 1270 3629 345 5264 2769 5032 
4833 3050 1627 4976 1223 1162 1652 960 5294 
4813 718 21 5762 2875 2541 4611 5012 5959 
1859 4667 3187 2695 4862 2053 443 1920 1885 
2383 253 3146 4320 1019 2762 5343 449 3469 
4440 163 5894 5066 4745 2147 352 1243 1868 
672 824 499 3 4726 5585 553 569 4706 
4789 1813 1453 2306 612 4108 276 3176 4920 
237 5991 949 2342 4457 176 2005 5963 3083 
4884 1390 2073 598 2514 2880 1512 4924 4719 
2201 5223 4252 1721 936 3803 2057 1415 3822 
5302 2169 338 2693 4438 2409 4755 4967 1884 
5005 921 3732 659 591 5328 2523 716 1908 
1711 5399 2134 4992 4007 1260 1473 4655 5675 
5374 4981 212 2208 2583 4456 2666 3396 1269 
4033 4640 424 656 2339 305 871 5883 1873 
3672 850 1472 3085 1146 5379 1633 2711 1036 
3507 2218 1892 5467 5749 2261 3816 4910 185 
4370 169 1871 1259 5643 4463 4287 3696 3402 
1507 5653 1488 2347 5955 2448 1717 2929 5512 
2613 5296 3517 1117 1255 4772 1951 4253 6048 
2084 3972 329 4986 5167 1797 5539 25 2699 
3351 2697 3304 1695 1974 4207 3047 5964 2696 
5197 5859 1942 2979 5656 4471 2034 2548 1171 
3096 3052 5117 5714 52 5003 3818 1164 2360 
3523 5516 5777 3638 788 2501 2196 297 427 
1204 2470 1437 3588 375 762 1876 2567 3012 
3623 6015 2952 2772 5463 924 2106 774 654 
3725 3580 2113 2853 1697 3044 661 3830 5962 
5364 4423 3222 4270 1916 3019 2918 4595 4455 
261 4461 5316 23 5450 1602 3992 1252 2258 
5445 4625 404 5631 3157 4140 5861 512 2489 
4844 4242 4543 232 99 2735 3983 2688 1560 
5419 4487 2315 4150 5720 3492 1044 1471 2944 
257 5998 1143 862 2963 1842 3127 533 3813 
4133 5495 875 2165 77 3940 3375 957 2626 
2401 2759 930 6014 1151 1010 2074 2960 3299 
5241 5008 5050 292 5812 2223 3984 4262 19 
2525 5966 5396 3016 5872 1452 353 2041 929 
2305 1737 4536 3061 3205 3366 4301 6033 4727 
5318 4422 4034 42 1623 5488 1924 4031 1803 
3671 4919 3483 3722 2901 26 4315 3145 2052 
647 4344 5033 1660 5709 4780 5220 4495 4196 
5352 5946 3516 3564 3364 3948 5589 5575 1102 
4126 5134 559 2720 3861 2136 2766 4276 5462 
5840 4261 4304 5921 3676 2050 3000 5999 3112 
2291 1363 2317 5212 4696 2702 3534 4149 5885 
2328 3271 5576 2458 4476 5804 706 5506 1049 
4695 4227 1030 5124 1677 992 5838 735 426 
4083 979 1970 3823 91 2891 4453 1941 2293 
5001 855 4599 1155 935 5939 4260 2642 5085 
4092 1301 880 5916 3190 5722 743 1214 1980 
1393 5347 3174 4710 2289 281 3562 171 2671 
4662 1673 1486 5926 1025 3865 318 2492 3349 
3652 1357 1649 2760 2197 1998 5993 2135 3765 
4334 5734 3385 2331 2376 3355 3386 1891 256 
3947 3855 240 611 121 2534 3394 1604 5687 
4384 3270 5065 1057 3683 2363 4853 4073 4340 
2977 5782 2649 4316 5615 5477 2380 5865 1069 
5325 1516 3053 4890 115 5731 5101 1205 1679 
1342 1133 2940 1290 3340 3634 1457 833 2750 
1009 4389 199 573 317 4991 3871 1976 1906 
3409 2174 2872 5977 2761 6038 4648 782 5493 
4321 2647 2340 3118 1815 358 5350 3847 1600 
3147 4442 476 4458 3365 5744 1890 2386 4189 
4070 4689 5852 6004 4933 904 2948 2668 4570 
5833 2442 2272 2060 5183 3440 2532 173 3525 
4818 1218 2103 3831 3856 251 1779 6027 867 
668 3245 780 82 982 3487 1605 1198 3333 
6062 344 648 17 1965 3736 5646 1572 885 
5380 2607 2860 539 5471 3417 5231 3006 264 
4245 1216 1013 46 5577 868 3482 3248 5196 
5413 227 4928 1233 3680 1144 5222 1847 459 
4685 4958 5612 542 2775 2403 564 4566 2866 
36 514 35 6049 4861 2873 4137 2048 5841 
873 4930 5 4116 837 1807 4651 854 4677 
2508 5707 5776 1474 4267 2249 2224 380 3350 
4161 4324 4128 3946 856 2811 3662 5880 112 
5874 5969 4141 94 4077 4477 990 1469 2207 
3509 3167 1374 5588 4944 532 2990 4546 2849 
3775 1066 815 1795 1988 1334 4926 3056 3452 
4632 388 2296 1288 4708 356 2255 2537 1865 
3849 2086 210 5775 5473 2036 3166 4166 2220 
1011 2194 2764 3447 3513 4680 5497 5390 4620 
428 2621 2973 1192 1899 2752 5113 4800 100 
587 5565 5726 1448 3508 5103 5051 4503 2780 
2673 1159 2646 5274 4472 5258 3084 1277 5244 
823 1406 2722 2461 2555 2568 1938 4827 2631 
4554 2483 590 2257 1567 3121 2871 5063 4736 
2934 786 3313 5853 3918 3182 744 4737 3339 
4994 2143 4399 5459 2986 2119 2701 1087 5184 
4136 2988 1966 1441 2008 4027 3419 4332 2600 
2466 298 916 32 309 3996 5903 5480 2079 
3752 1194 95 1523 5233 1336 4858 1287 1003 
2538 1736 5827 4807 3347 4248 1740 4421 3345 
2144 1432 3399 613 1014 3334 87 2273 4416 
2721 4124 2919 633 1072 2367 3979 4938 3737 
5823 3337 2828 995 734 1700 3290 5886 5584 
2150 4761 4298 1332 1693 2771 156 932 5358 
1914 890 2130 3974 5378 1911 389 1027 3774 
3920 4319 2464 2038 1555 4100 5027 5719 3587 
3090 1838 2633 4870 3802 333 5642 2444 2343 
5783 1946 4186 5414 3382 1313 5941 3203 1490 
347 5210 4973 5813 2724 3674 546 5517 3383 
5581 2865 3401 523 3361 934 5665 359 4173 
4223 3772 1887 666 364 3559 5876 4656 1379 
2097 3422 348 865 3705 2004 3324 5086 175 
5402 5382 1753 3797 451 2531 5478 4015 5835 
1061 607 5285 1128 5538 3175 4032 3421 1806 
4762 2278 802 5988 4378 4847 1443 1640 4233 
4112 730 5910 5810 4431 4336 110 5202 5154 
373 4330 5580 4489 2373 4323 888 3494 1431 
3605 5421 130 3413 6022 254 2453 181 698 
4830 2116 3570 614 4946 5198 713 2414 5451 
4937 4395 2206 1060 3078 2088 3643 3895 320 
58 2118 4010 3317 5236 1383 3591 3665 5195 
805 694 1064 5540 3787 1201 1163 4990 2876 
2421 2516 4756 265 4806 5180 38 684 2158 
295 346 2524 1682 5029 1687 3863 4428 5219 
3641 4224 2393 4152 287 3574 6056 520 4642 
6041 2898 4617 3183 5766 2309 3733 4707 217 
5494 5327 4174 3092 1733 3852 2075 3664 2449 
1675 1824 2415 4759 4026 2043 922 872 5729 
3181 2252 1947 5342 3241 4225 5854 205 3323 
4704 3735 2260 1058 3070 4040 3319 1828 4366 
3600 5456 2042 4241 5186 5891 5213 4760 417 
3161 1119 3143 306 3585 625 4722 662 3041 
6012 488 2723 5394 6032 2784 1704 437 492 
4711 4294 391 508 2154 5199 2685 134 536 
2506 1221 653 1074 471 1905 4043 4383 3558 
3889 2674 2450 2938 28 1752 1299 484 1331 
4429 2081 3825 2797 3708 4936 2332 2630 207 
2100 3480 3952 5152 4444 5710 5288 798 5679 
2829 3925 1367 2912 343 395 1845 2545 5532 
2313 246 5166 5664 5181 2742 2446 1353 97 
860 4724 2014 5023 3821 2384 3137 3004 2727 
947 4289 4670 242 3170 632 3770 2653 3159 
3239 3661 5446 4899 941 2677 3547 4465 4001 
898 1085 3518 3556 5826 1077 5727 2792 5892 
3225 117 1337 5629 5985 511 5340 5943 1455 
3502 2837 2212 4974 3232 3792 4386 5307 5047 
4582 5698 5097 1105 4606 497 2714 5774 1619 
47 3138 5655 3533 4805 376 429 4093 4469 
2394 230 3798 5787 6011 478 725 2067 4584 
193 5262 5069 3037 4356 4341 4203 2003 4881 
4854 3929 5081 3893 3515 4906 3611 4255 2884 
3961 4014 1857 45 1668 3407 3192 2796 5138 
790 5373 2625 4703 166 1833 5587 2478 300 
103 622 1310 1751 1863 5172 673 1792 5496 
368 158 817 5254 4243 461 1940 2896 5311 
603 710 3998 2902 3332 4561 2405 1086 3141 
923 164 3481 3987 4686 5635 566 5041 2010 
3086 496 4963 4156 2554 1323 474 2358 3136 
170 2490 49 645 943 3348 1854 3368 5501 
1454 973 501 4885 1280 2539 2521 4886 1274 