# vtk DataFile Version 4.2
Generated by LIGGGHTS
ASCII
DATASET POLYDATA
POINTS 5997 float
-0.00922667 -0.0181448 0.0104798 -0.0109696 -0.0192971 0.0108568 -0.0120445 -0.0176041 0.0113947 
-0.012786 -0.0201526 0.0114347 -0.0160104 -0.0176497 0.0109535 -0.0107199 -0.021399 0.0114968 
-0.00917266 -0.0201112 0.0113921 -0.01424 -0.0170961 0.0126675 -0.0142909 -0.0190951 0.0124114 
-0.00878825 -0.0221522 0.0120087 -0.0074951 -0.0210929 0.0109084 -0.00538156 -0.0209633 0.0111266 
-0.0072744 -0.017666 0.010973 -0.00363298 -0.0218738 0.0116341 -0.00550548 -0.0188507 0.011331 
-0.00363033 -0.0179718 0.0118061 -0.00295963 -0.0236817 0.0110857 -0.00155335 -0.0172527 0.0116021 
-0.00524362 -0.0232916 0.0114904 -0.00106923 -0.0237953 0.0119453 -0.00210162 -0.0192711 0.012165 
-0.0039483 -0.020025 0.0123835 -0.00692712 -0.022594 0.0126105 -0.00727484 -0.0193863 0.0122732 
-0.00166597 -0.021855 0.012133 -0.000289011 -0.0201341 0.0123991 0.000287767 -0.0219503 0.0116776 
0.00451757 -0.0234129 0.0119576 0.00508775 -0.0212803 0.0116406 0.00646992 -0.022961 0.0118899 
0.000831062 -0.0238413 0.011221 0.00810017 -0.0194776 0.0119568 0.00286556 -0.0217582 0.0120973 
0.00253079 -0.023723 0.012298 0.00108304 -0.018684 0.0120587 0.00303891 -0.0182747 0.012144 
0.00503513 -0.0185099 0.0123326 0.00688827 -0.0178317 0.0126594 0.00686345 -0.021011 0.0125367 
0.00029869 -0.0168211 0.0122895 0.0101331 -0.0196282 0.0120346 0.0106527 -0.0173206 0.0115081 
0.00864566 -0.0174058 0.0117738 0.00835492 -0.0223904 0.0123728 0.0101541 -0.0215423 0.0127177 
0.0119313 -0.0206699 0.0123414 0.0138766 -0.0194879 0.0123532 0.011905 -0.0186586 0.0123751 
0.0154515 -0.0182623 0.0120971 0.0135395 -0.0175645 0.0119133 -0.0195021 -0.0103488 0.0106016 
-0.0190099 -0.0144517 0.0118347 -0.018494 -0.0121456 0.0110482 -0.0204072 -0.0122051 0.0119432 
-0.0175722 -0.0101296 0.0112103 -0.0215264 -0.0104587 0.0125928 -0.0202673 -0.00885748 0.0123265 
-0.0165811 -0.0121334 0.0117407 -0.0146723 -0.0114545 0.0115323 -0.00972202 -0.0118076 0.0117959 
-0.00986407 -0.0164737 0.0114999 -0.0115365 -0.0152358 0.0117811 -0.0137298 -0.0132268 0.0113559 
-0.0154123 -0.00966594 0.0120922 -0.0159251 -0.0158981 0.0125281 -0.0112326 -0.0131281 0.011985 
-0.0157201 -0.0137699 0.012687 -0.0140631 -0.0150656 0.0121236 -0.00960471 -0.0142865 0.0124348 
-0.00936316 -0.00927799 0.0124587 -0.00825801 -0.0153192 0.0105851 -0.0061032 -0.0160602 0.010549 
-0.0074071 -0.0130113 0.0107648 -0.00551223 -0.0121896 0.0116981 -0.00421256 -0.0104752 0.011797 
-0.00264516 -0.0116887 0.0114718 -0.00739796 -0.00888314 0.011331 -0.00580924 -0.0142609 0.0113992 
-0.00497033 -0.00860133 0.011484 -0.000126278 -0.0133134 0.0118792 -0.00291554 -0.00838999 0.0115753 
-0.00500414 -0.0165739 0.0122946 -0.00656361 -0.0104946 0.0122451 -0.00226447 -0.0136077 0.0121809 
-0.00174596 -0.00996045 0.012018 -0.0030637 -0.0156282 0.0120725 -0.000743313 -0.0115588 0.0126935 
-0.00103146 -0.0152871 0.0121047 0.00228913 -0.0130632 0.0120115 0.000347557 -0.00959687 0.0117546 
0.00406632 -0.0165653 0.011666 0.00603275 -0.0161359 0.011877 0.00178968 -0.0111168 0.0120938 
0.0033458 -0.0146775 0.0125945 0.00225173 -0.016482 0.0127149 0.00117279 -0.0148616 0.0120567 
0.00661513 -0.0139107 0.0125053 0.00633936 -0.00958679 0.0122678 0.00738261 -0.0112984 0.0123113 
0.00410387 -0.00889409 0.012248 0.00795338 -0.015556 0.012102 0.0132602 -0.0155641 0.0116311 
0.0146741 -0.0139241 0.0118208 0.0162166 -0.0126125 0.0118825 0.00843709 -0.0130703 0.0124819 
0.0116476 -0.0145399 0.0122637 0.0105099 -0.0128402 0.0123727 0.00967235 -0.014648 0.012583 
0.0125063 -0.0127226 0.0123268 0.00938289 -0.0110636 0.0121832 0.0114315 -0.0110329 0.0122587 
0.014345 -0.0118762 0.0120537 0.0150699 -0.0162949 0.0121301 0.00831245 -0.00925075 0.0122769 
0.0103215 -0.00924951 0.0122673 0.0142492 -0.00987996 0.0121431 0.0123178 -0.00922662 0.012012 
0.0164409 -0.0148382 0.0122592 0.0183642 -0.0153237 0.0117525 0.0195643 -0.0137164 0.0116387 
0.0207123 -0.012073 0.0116719 0.0197879 -0.00950793 0.0117928 0.0170099 -0.0167792 0.0120919 
0.0178668 -0.0134798 0.0126797 0.0216272 -0.0103029 0.0119975 0.0176167 -0.0095087 0.0123867 
-0.0193376 -0.00648317 0.0111186 -0.017572 -0.00806043 0.0112532 -0.0233459 -0.00451504 0.0111976 
-0.0172864 -0.00584162 0.0117092 -0.0238549 -0.0025031 0.0111523 -0.0202459 -0.00360708 0.0119785 
-0.0238425 -0.000493847 0.0110953 -0.0225128 -0.00815124 0.0121537 -0.0209186 -0.00554756 0.012192 
-0.0220358 -0.00267169 0.0119745 -0.0173036 -0.00389318 0.0125273 -0.0172197 -0.00193851 0.0120089 
-0.0204094 -0.00148695 0.0125721 -0.0133846 -0.00122608 0.010595 -0.0110374 -0.00282608 0.01104 
-0.0154259 -0.00426798 0.0115755 -0.00986419 -0.00614378 0.0117313 -0.013257 -0.00324923 0.0107829 
-0.0153011 -0.00211404 0.0113025 -0.00876608 -0.00213817 0.0119683 -0.0113777 -0.000866008 0.0113173 
-0.00947224 -0.000264714 0.0117357 -0.013826 -0.00779846 0.0124299 -0.010664 -0.0077594 0.0126762 
-0.0158743 -0.00771588 0.0124661 -0.0134338 -0.00506077 0.012102 -0.01132 -0.0048326 0.0122297 
-0.0126346 -0.00205854 0.0123263 -0.00842379 -0.00743443 0.0124501 -0.00444809 -0.0065434 0.0112898 
-0.00789323 -0.00572865 0.0115214 -0.00639669 -0.00705474 0.0112489 -0.00359919 -0.00477556 0.0118643 
-0.000675064 -0.00707586 0.0116672 -0.00390002 -0.00144892 0.011643 -0.00187531 -0.00139448 0.0115476 
-0.00210392 -0.00337433 0.0118175 -0.00760896 -0.00376597 0.0117788 -0.00728272 -0.000552163 0.0113743 
-8.71333e-05 -0.000460346 0.0113331 -0.00579809 -0.00511819 0.0120888 -0.00484118 -0.00317323 0.0120179 
-0.00253524 -0.00647526 0.0121185 -0.00100324 -0.00511495 0.0119897 -0.00653491 -0.00214073 0.0123327 
0.0011351 -0.00621943 0.0119091 0.00079485 -0.00426789 0.0116199 0.00612494 -0.00575542 0.0117845 
0.000603702 -0.00227135 0.0119317 0.00569373 -0.00771813 0.0119457 0.0076891 -0.00736718 0.0119111 
0.00258644 -0.00199064 0.0121505 0.00419725 -0.00613269 0.0121984 0.00261211 -0.00490727 0.0122851 
0.0026811 -0.00745956 0.0122077 0.00593367 -0.00312109 0.012103 0.00399152 -0.00341613 0.0125492 
0.00746796 -0.00437763 0.0123884 0.0073226 -0.00158336 0.012139 0.00405017 -0.000128699 0.0126265 
0.0087879 -0.00570276 0.0116775 0.0160575 -0.00224774 0.0110646 0.0136909 -0.00184154 0.011843 
0.0117955 -0.00116915 0.0119228 0.0112257 -0.00608002 0.0120753 0.0130491 -0.00687762 0.0123045 
0.00883994 -0.00291811 0.0123326 0.0100876 -0.00449768 0.0126259 0.0157846 -0.00523385 0.0122087 
0.012314 -0.0036585 0.0122611 0.0147139 -0.00354105 0.0122015 0.009792 -0.00116254 0.0121466 
0.0165855 -0.00707402 0.0122055 0.0151641 -0.00043651 0.012067 0.0223437 -0.00845014 0.0117649 
0.023019 -0.00658635 0.0114537 0.0213529 -0.00548994 0.0116489 0.0194698 -0.00426245 0.0114771 
0.0232715 -0.00461414 0.0117476 0.0175624 -0.0034697 0.0116439 0.0215639 -0.0035035 0.0118185 
0.0184147 -0.00166115 0.0112768 0.0204571 -0.00189962 0.0113539 0.0226919 -0.00186175 0.0116546 
0.0177736 -0.00541839 0.012049 0.0184521 -0.00769227 0.0126401 0.0196262 -0.00606394 0.0125045 
0.0206116 -0.00783752 0.0126202 0.01689 -0.00125407 0.0126819 -0.0194539 0.00434843 0.0105756 
-0.0222585 0.000637296 0.0115974 -0.0202511 0.000596051 0.0118936 -0.0200052 0.00250685 0.0112657 
-0.0214774 0.00415783 0.0111013 -0.0234145 0.00386039 0.0115959 -0.0192227 0.00630368 0.0110495 
-0.02312 0.00583448 0.0118921 -0.0213252 0.00622913 0.0110109 -0.0183611 0.00119815 0.011541 
-0.0171371 0.00399164 0.0114854 -0.0167336 2.61137e-05 0.0114063 -0.0226917 0.00772774 0.0113181 
-0.0177605 0.00764038 0.0113508 -0.0238437 0.0019433 0.0120613 -0.0219399 0.00261875 0.0123106 
-0.0203948 0.00506685 0.0125397 -0.0168801 0.00592511 0.0120405 -0.0209569 0.00765882 0.0123956 
-0.0165693 0.00209004 0.011238 -0.0128346 0.000607956 0.0113333 -0.0108172 0.00110927 0.0111447 
-0.0146845 0.00138998 0.0113162 -0.0151229 0.00377565 0.0113783 -0.0106311 0.00574153 0.0113015 
-0.0144864 0.00569566 0.0116304 -0.0125726 0.00631677 0.0114322 -0.00879208 0.00209435 0.0114589 
-0.0131939 0.00265521 0.0117669 -0.012024 0.00439321 0.0118019 -0.00923374 0.00428175 0.0115783 
-0.0156352 0.0073216 0.0112784 -0.0100517 0.00765135 0.0115839 -0.0106564 0.00292819 0.0119878 
-0.0120082 0.00811175 0.0122837 -0.00415197 0.00561972 0.0107405 -0.00618048 0.00184272 0.0113533 
-0.00729445 0.0035353 0.0113902 -0.00522099 6.56654e-05 0.0116184 -0.00303887 0.000364166 0.0116134 
-0.0040401 0.00212651 0.0114222 -0.00312901 0.00390301 0.0115333 -0.00136738 0.00144916 0.0118483 
-0.00143032 0.00509271 0.0116572 -0.00640685 0.00530876 0.0117743 -0.00839072 0.0062153 0.0118201 
-0.00640415 0.00722288 0.0110481 -0.00547983 0.0035955 0.0122463 -0.00278131 0.00805481 0.0122417 
0.00034609 0.00359094 0.0109832 0.00689997 0.00360043 0.0116144 0.000649605 0.00143439 0.0114627 
0.00445784 0.00437833 0.0114852 0.00225867 0.00460354 0.0113288 0.00612839 0.00553882 0.0114801 
0.000472989 0.00629524 0.0111363 0.00287894 0.0068375 0.0113745 0.00204252 -6.08609e-05 0.0119671 
0.00553569 0.00780217 0.0117529 0.00819841 0.00798242 0.0113951 0.00605292 0.000131131 0.0123299 
0.00321904 0.00181204 0.0120075 0.00518287 0.00198905 0.0123638 0.00720761 0.00183809 0.012554 
0.000331618 0.00470003 0.0126479 0.00453572 0.00623546 0.0125303 0.015748 0.00492218 0.0107502 
0.0146625 0.00737879 0.0106041 0.00974389 0.00399544 0.0114738 0.0147314 0.00150567 0.0117913 
0.0108114 0.000713162 0.0116235 0.0141298 0.00347076 0.0117641 0.016292 0.00291214 0.0112595 
0.0134265 0.00537074 0.0112567 0.0130838 0.000365124 0.0118208 0.0124984 0.00231451 0.011993 
0.010685 0.00586138 0.0114715 0.0104311 0.00815952 0.0112862 0.00835667 0.00531134 0.0120907 
0.0092468 0.00198948 0.0120132 0.00830915 0.00015786 0.0124105 0.0120072 0.00429802 0.0123437 
0.0152514 0.00633676 0.0122489 0.00942076 0.00693882 0.0126333 0.0127126 0.00715846 0.0119596 
0.0168588 0.00731017 0.0113678 0.0191626 0.00538027 0.0101665 0.0208115 0.00654973 0.0104019 
[...]
POINT_DATA 5997
FIELD FieldData 7
id 1 5997 int
4067 833 1776 3617 1902 2016 5272 5543 1296 
6027 4482 239 392 147 6010 462 2584 3229 
5428 4918 5854 2028 1951 4456 5834 3576 598 
2677 2660 906 2234 4845 4145 1588 963 4048 
2384 3453 3859 5264 549 4505 4644 3054 1407 
3984 2489 5828 5183 6002 874 5450 4615 5301 
1842 1108 3352 5014 3726 947 186 1737 1223 
3273 5222 1925 5257 5299 2235 4195 4487 2971 
3184 4544 387 6059 1145 797 3499 3205 164 
2571 1688 98 603 3769 3903 4187 2275 5119 
5498 5316 5882 1629 1158 2139 4793 1779 781 
5190 1601 4376 3410 4886 3817 5864 2645 224 
1976 3451 3994 2328 4455 2113 3906 310 4911 
4556 2840 335 2164 4872 1911 5861 5018 6062 
2467 4977 2867 4697 4053 5 5894 3794 1402 
5135 862 2264 4752 299 3492 5959 297 5354 
3813 3824 3749 5710 289 3187 4096 3507 1832 
811 1212 2046 3004 4334 4138 2200 2420 1172 
5419 1098 4371 403 5223 2353 3433 2742 1683 
1228 2565 3676 1551 1885 1332 4837 979 5035 
2762 290 5131 1921 1760 3642 2340 2259 5082 
3723 4813 896 1596 3925 4621 3722 1347 5219 
5029 2215 2161 64 53 3714 4175 3161 699 
8 122 4915 4428 412 1756 3602 1878 4806 
4034 2129 1765 4452 4831 3211 145 4003 5430 
1494 1607 4878 473 2521 1687 4763 3427 2226 
1060 4726 5247 2643 80 1552 1389 1429 769 
3217 5632 2529 3966 5550 5087 3405 4496 4526 
6023 4811 1327 489 2421 2830 1107 972 755 
5466 6037 2827 4208 4078 2451 1767 897 4413 
5650 747 1563 5416 3872 2017 482 2166 4165 
3685 6003 451 590 1321 4387 4346 323 1428 
4005 3055 2322 3878 2104 546 4405 1394 5805 
4269 1211 827 1443 1574 3610 5665 4427 5111 
1369 3753 1412 2280 4105 407 779 2411 3519 
4454 5803 2858 1042 5366 1128 3605 2511 3362 
2724 3674 3938 849 4743 1972 2229 1149 5570 
2125 1748 5189 384 4042 4700 2110 2968 3549 
1370 2452 1159 5249 5517 1898 5971 1 2054 
435 907 934 2973 4176 3389 2004 4692 946 
2704 4569 3313 531 2634 5810 5573 2824 5728 
3811 1769 2431 319 5051 4234 308 1483 4302 
5813 5654 140 1055 3815 3434 4663 4847 1061 
43 5581 2749 1979 2390 1561 4527 2986 4858 
5715 1104 1313 5421 5680 523 1753 633 1072 
1889 890 1503 90 3399 3175 2298 4762 351 
5941 4421 2531 2278 802 254 1543 314 1630 
2812 2849 3383 1089 348 3653 4223 5402 4654 
3324 5017 1887 3772 865 2432 4336 2807 5641 
3382 3043 5146 180 3008 4864 5210 5667 466 
3216 4524 4352 364 2905 5756 3088 6064 1366 
378 1222 5353 4173 1759 5154 332 5794 174 
2721 1806 1570 5988 903 5708 1897 5472 5285 
4607 1504 4860 6022 4885 5056 4422 3808 3548 
292 5068 1240 4365 1482 339 3739 1670 4149 
449 4237 1291 3460 1655 1133 791 5963 1657 
756 143 600 4517 1190 823 1608 165 3268 
5397 2974 1285 3172 5452 3912 982 2869 4550 
3011 134 372 306 2179 4693 6055 1660 4678 
5627 662 2549 3635 3013 3329 4854 2555 3147 
588 2042 3479 3893 5355 3029 5182 422 5755 
5886 109 94 790 2369 2956 5824 5378 6047 
3862 5142 1844 2301 4044 4869 4116 5950 4277 
5357 4672 2123 4495 2095 450 4367 102 4118 
4400 1045 5572 3119 2644 3996 1063 3227 5555 
5887 3281 1196 1518 188 1962 4217 4675 998 
1958 2260 1364 2751 2575 2757 1478 5501 5021 
3237 5659 4056 441 2154 3525 1081 1156 204 
5967 3125 404 2817 3600 1579 2336 2930 3066 
5757 1520 2612 2893 2064 5212 5377 3637 5442 
5484 2918 476 1002 2416 3072 5251 66 2249 
3288 5578 2881 2454 1698 5918 1850 893 3218 
900 2201 5268 2792 2408 5881 3034 5693 533 
3911 2706 2397 1774 2105 643 5318 933 912 
1874 5343 4883 2720 1782 1066 3700 4506 4509 
4924 4320 2607 3291 5530 176 5843 4258 1978 
1019 5254 2834 5329 734 5128 4290 5423 4664 
5991 4899 1424 2884 1908 4679 5015 2437 4157 
238 1790 5763 4475 1177 2376 4825 70 5201 
4740 4701 3721 5439 4 4472 4610 3783 2040 
1711 2206 1511 253 5006 1643 5579 4792 5004 
3243 5821 2078 1331 3458 2317 1525 5902 2901 
3409 504 3842 2535 5159 716 3650 1378 4281 
4658 5048 1743 4510 2608 2020 4251 1558 799 
2613 6046 3464 5953 664 4551 1646 3768 5596 
1053 1397 1165 566 4291 82 5920 3649 4804 
4146 1580 4372 212 2815 57 4687 350 4111 
3640 394 3758 481 1830 2885 1180 5269 1819 
3847 2057 5288 5253 1547 4730 6026 3038 5589 
2383 5904 3290 5817 3102 63 5731 5332 4865 
235 1871 5554 1267 5872 7 4417 84 4518 
3865 1169 1526 255 2512 2666 5514 1486 4523 
30 529 2688 521 3118 3075 3715 3691 4986 
5205 2646 2937 2238 3341 4866 1798 1922 4036 
3045 5568 1912 5624 4723 4578 615 103 3444 
3855 5852 5648 3622 19 3470 2174 655 195 
5420 67 4659 3953 3053 1716 2800 5560 263 
1726 1920 2085 432 2498 3892 3365 3173 696 
2290 2598 5928 1573 3983 4092 2305 2951 5300 
363 3740 4243 2938 5479 65 5637 2850 5392 
692 5325 1905 5098 3950 136 4444 3366 2276 
5191 1292 4754 650 2851 1290 5305 2961 3316 
3222 6030 2955 1434 411 172 2082 247 5807 
2719 5937 672 6054 4992 2130 1896 5739 4236 
35 2352 1493 4887 1534 4789 1100 5483 3465 
3431 1815 401 4087 1200 3349 1811 5695 689 
320 2448 4545 4287 2106 5985 1858 1463 3267 
659 2366 2413 5653 3003 1592 1763 5133 4252 
698 4368 1440 5567 1993 4797 2870 4940 4778 
6004 3050 3432 3860 3495 355 2332 3948 871 
4276 952 358 2539 559 3456 2218 3483 3146 
5720 6020 2507 5016 3812 5220 1117 1924 3083 
5992 443 4920 5787 5901 2932 2398 5905 318 
3888 5884 5101 5327 1488 2693 6 820 5883 
1269 1603 4465 163 3670 2727 3359 1314 3215 
4194 5617 1565 4803 4182 1325 5799 1357 1204 
1233 5163 3254 3671 2818 3667 5660 649 4758 
5349 4884 4791 5032 2694 706 4083 3251 4109 
3081 1102 5218 5116 1392 5284 5197 5747 3129 
5993 1916 3284 1067 3364 3841 1989 5679 475 
1507 1007 5176 2671 6044 5842 2214 1894 5368 
2604 1631 4337 2409 4363 4088 2073 5138 5875 
4597 4850 5320 4315 3104 687 951 5422 4781 
3633 510 3016 1092 3177 5322 1682 5804 3238 
2731 397 3866 3712 5520 1542 1974 5488 5168 
3213 881 2348 5687 3972 589 4094 1931 6063 
5907 2622 4817 187 4445 2759 5055 2403 3919 
2195 1802 1205 5008 883 4396 5491 3412 3012 
399 4029 1942 349 2338 5267 3692 983 54 
4076 753 591 1598 5425 2371 4773 1638 4253 
534 1250 367 2497 4639 2748 5816 5475 2925 
5788 5966 2737 5758 3415 5058 4347 5139 3695 
2381 4625 5546 5344 2705 3371 4513 1691 1246 
4547 1170 316 2153 4305 1471 6025 2072 5100 
931 732 6061 4025 2171 4822 3880 4241 62 
3963 3442 4934 5458 4425 3814 287 2204 3521 
885 1780 5104 1575 5456 1058 1597 5226 3160 
93 391 4642 2351 2256 585 3857 5096 626 
273 2647 4857 3199 5331 2963 4154 1853 1438 
5384 366 3181 4516 2142 4263 864 2120 5187 
4369 767 3092 1749 1244 5273 5688 3051 4759 
4221 2012 3231 5326 3280 4286 4020 1712 1926 
1498 5729 1136 4921 1770 5742 2981 2449 2862 
3319 4683 4722 3536 5814 3869 1497 4264 3489 
6042 395 2394 4211 3226 1384 2115 3901 3764 
5644 168 213 5792 265 4343 5896 5399 2093 
3574 5678 4989 5426 1864 1289 2473 3183 4466 
3848 227 4756 4193 940 784 1460 3059 4962 
1241 4058 76 701 3514 5934 4799 4634 5893 
841 2524 2359 1480 2728 464 1686 705 4406 
3312 4429 693 5323 3425 4579 4113 2189 3357 
1358 3533 258 4054 1054 4987 5132 2059 430 
4284 3397 2044 5712 3461 2178 5089 2477 5153 
3790 4894 1073 1032 456 5677 1532 1841 677 
2527 5540 3641 2966 835 2794 2923 274 5077 
2031 5313 5225 2927 3221 101 4061 2994 3103 
3179 2808 1536 969 4393 1823 5468 2949 5453 
1650 1034 5809 1817 3266 5871 2691 4313 346 
3821 6041 383 5616 2193 4119 813 3325 1293 
1904 5162 1146 2114 5601 3363 2346 2804 4779 
599 4314 5280 5593 1669 1680 4748 3501 3603 
4152 107 3148 40 512 584 39 1008 77 
690 1129 4563 4990 5345 2898 1901 1799 4895 
2572 913 1566 4163 13 2168 2430 5691 1632 
5602 1709 1050 3033 3693 5286 2712 2729 393 
2314 3287 5473 4826 16 225 343 447 5097 
3151 5078 3077 2975 2191 150 5976 1959 490 
3496 1152 3724 5557 1265 2460 4591 1676 3416 
4889 3537 704 3806 3567 4631 5574 5668 3943 
2122 73 5030 1613 4714 5351 4019 6056 1381 
5179 1442 2950 834 5525 3675 3438 5411 1559 
4430 3022 804 4638 3592 752 5983 854 4160 
2425 4065 3120 4970 2764 2600 5177 1805 4771 
3584 4354 2102 4150 3473 4971 2035 3614 2536 
3560 379 3785 11 968 3023 2970 5649 3163 
491 1610 4230 5518 3207 381 4022 5911 5406 
700 2907 4943 5444 4575 3400 5440 4357 2176 
3820 3223 2068 2479 5408 4226 2323 740 3569 
106 5613 2428 4197 1311 1173 3797 3049 5910 
3422 4708 671 3339 2051 2832 995 3361 4519 
2878 359 5314 4080 4416 4411 1140 3132 3392 
2027 5538 4032 4938 5823 1336 757 1658 3771 
4585 266 1209 5584 5385 5007 3713 446 4222 
4534 1028 445 1075 2957 3042 2861 5869 4095 
602 5699 5147 4828 3097 2888 1193 750 635 
1708 629 2609 3625 2573 1788 5986 284 2809 
806 607 386 382 2615 342 2144 3421 5112 
2528 5682 2146 3485 5737 2308 3477 768 4975 
1645 1287 1567 1041 691 2686 4775 3336 420 
3337 4378 766 1449 4391 4059 2435 1238 1489 
5398 190 3126 5982 307 3559 1021 1226 3738 
4942 371 1461 2148 1376 4984 6050 2025 1111 
1132 1161 5607 5606 194 3795 4646 4159 3935 
1379 3040 2667 3607 1843 5726 4636 1866 748 
5386 1791 2395 5489 764 3503 5292 1533 5558 
4993 2029 334 1395 1662 4666 1622 483 5308 
4435 3956 5192 3274 2177 1778 2587 966 1051 
2321 3784 2131 3343 2107 4972 3668 402 4629 
1427 325 3005 2847 3203 2337 2633 2892 4592 
2066 4604 4169 408 1192 1869 4673 4272 3056 
3258 2472 4011 1739 3705 1490 2945 678 5948 
4680 3513 3401 2621 2783 4303 459 3933 4555 
4112 5565 4431 3990 2707 2424 5719 5245 1182 
229 4653 2391 2434 551 3314 5054 41 3326 
4564 2368 4209 5524 2244 3124 1673 2267 688 
3915 4620 2183 2713 1517 4259 208 1014 3305 
5628 5113 2844 5662 1527 6007 3310 6060 1355 
1804 192 2982 5839 3381 616 6006 2611 312 
338 5888 5713 3450 697 4965 3296 5414 455 
347 2730 5750 5063 1768 2150 5459 1548 5427 
4893 2588 4532 2049 1090 1847 2155 5761 1856 
3105 1809 4536 4994 337 3881 1227 3564 465 
2494 2871 2929 2766 1991 1481 623 3262 4458 
4627 4956 3206 3277 4333 5196 2356 2865 2947 
5835 1088 4233 5876 2710 4533 4808 3282 4669 
2273 4148 3788 3699 5013 1581 3550 1700 1135 
2920 4129 1637 4570 1910 3834 3006 2631 5900 
3449 181 5832 3248 5903 4751 1385 4070 1966 
5497 1935 2039 4807 1914 1923 4908 5233 5231 
597 1740 3245 4015 5025 4796 341 17 2828 
1554 4052 888 3752 916 2373 1113 1755 783 
130 3413 2741 2370 1735 1276 3091 1501 3942 
2775 869 2152 2097 2407 3403 1452 1474 4742 
1620 730 640 2083 5931 4338 2510 3589 175 
2517 3742 3707 5612 876 1127 4651 2873 4888 
3035 2936 2438 5240 1006 3112 3509 4161 3891 
3195 5744 2765 1851 3717 1243 5108 4144 4901 
5885 3612 4186 3636 3952 79 2632 1231 2708 
5185 540 3920 5515 1396 3976 1183 5968 3010 
3541 4535 1555 5215 5238 5376 1388 2318 3856 
2628 1273 3979 573 5732 4871 2138 327 2556 
298 4438 837 184 5436 1120 2589 3858 5202 
1087 3654 1435 2433 5717 3082 1719 1665 4017 
5735 4941 4385 1283 3711 2992 492 4047 2845 
5915 1647 5590 557 5105 2224 870 373 5751 
4330 2725 4136 3182 1986 3776 156 1886 15 
2466 1194 2919 1587 1903 1024 4882 2682 1492 
2538 117 795 2874 612 1803 4402 721 1663 
714 3031 5352 844 777 1509 3445 2462 5393 
1101 3079 5047 1277 5566 3688 3677 1710 4220 
4481 5663 3115 4248 564 5102 3646 3374 738 
6067 177 2934 2831 899 1715 2953 1967 1870 
2899 1724 4671 2745 4978 4843 1214 2639 1801 
5974 4270 5773 610 1939 525 4820 3731 526 
625 4158 3257 453 1930 2354 4770 980 1515 
1201 5369 5150 5199 3000 3757 2315 5598 5429 
4373 3651 2223 288 2187 4205 4188 1550 3578 
1546 2077 132 5523 345 3989 4164 2227 5405 
3886 4043 2972 4745 3190 999 2465 2651 216 
4605 2103 2389 1076 4151 5115 759 2508 4311 
5312 3133 170 4192 1751 673 2436 3024 1487 
3595 1312 5657 2656 1792 2047 1217 5564 3044 
3099 5407 4881 3017 3596 3335 5647 3546 2806 
5126 1510 5845 5470 793 1386 3804 2674 4959 
1831 653 2019 3558 2623 3180 4099 2196 205 
1854 3971 3563 3261 536 1408 1793 158 3763 
3826 5551 2405 1572 3873 1750 2299 3661 5600 
3647 421 1714 4981 3278 191 1085 3907 2698 
4329 4640 1015 4097 5340 2566 4448 1917 5924 
1154 2740 5446 3570 419 996 2786 5502 126 
4089 949 3551 4689 3107 405 5391 3078 3411 
4508 3577 2769 3947 2208 1589 138 5033 5921 
4628 5365 141 5321 3877 4196 3632 237 1593 
4916 641 3655 1080 4905 3770 977 1361 89 
2754 2558 3331 2653 4453 429 4301 754 2045 
4332 4876 3174 2857 1877 1074 2802 2586 3292 
2503 719 2053 301 5956 5825 4086 3799 3623 
1675 3899 3851 6029 4345 2032 5085 3951 5762 
3926 878 4383 2735 3244 955 1229 3843 4731 
352 5891 1207 3021 3535 3703 2577 2242 5216 
5800 3701 6038 3741 4424 847 257 2777 1126 
3565 1155 242 3491 285 5342 508 4433 4358 
24 680 268 3036 1934 2279 4212 3176 4681 
5995 249 2021 2605 4630 2803 1316 259 4124 
5175 1857 5849 5069 5957 2882 5811 4490 3164 
5639 1115 2005 4478 1363 4852 3348 4577 1062 
91 71 6048 4401 4902 4853 2380 18 4219 
5092 522 3542 539 2239 2560 1405 2388 5409 
973 2385 3803 2210 5851 4177 4991 5609 6012 
4255 605 3308 4958 4108 4344 5984 3543 2940 
3683 2681 3833 4721 1447 5441 5615 5110 1671 
1987 1797 5853 1628 3418 3417 5686 5121 3384 
770 233 1342 3561 5725 5294 193 774 5036 
2793 5867 5714 390 918 3957 5634 2250 311 
4024 3157 1820 5661 1994 3475 5172 1512 2585 
4014 773 178 498 3510 1965 2574 5364 1274 
5404 4423 1263 4418 5914 1752 720 4928 1891 
1876 1697 3498 3271 4565 921 4178 3138 2522 
2423 4260 1403 173 5730 3518 2014 1937 1418 
3522 86 2954 4283 1425 4557 6016 3057 5643 
3825 5582 1099 2702 5916 3732 2074 4868 5418 
1652 31 1873 2541 1125 418 2109 4967 3969 
218 5020 5709 3 2289 3838 3080 4611 3137 
2347 5563 3816 3618 2997 1618 2339 3652 4388 
4599 21 1884 4179 1941 5302 1334 2711 2880 
1046 281 499 5859 4725 5629 3027 3568 5844 
2203 1754 1845 682 1468 2879 69 5001 3225 
4486 478 829 524 1186 762 185 3879 3796 
4010 413 4945 5943 4558 4326 1523 5248 2303 
5374 1279 733 5165 4386 5060 1036 1473 2576 
1320 3067 4242 1623 4645 5748 2877 4170 1038 
1604 4859 5516 2943 2583 484 169 3264 2933 
5675 5640 5939 5065 5522 4834 6005 4923 1349 
1980 6019 467 3868 5970 3823 5722 497 1720 
788 5476 817 3162 4696 60 685 2342 3672 
4906 2441 1198 1535 4933 2377 2568 2699 2387 
3849 2324 1297 3388 5467 4321 2502 199 370 
4890 3048 2842 5942 4655 855 3354 3394 4662 
5167 5798 4328 919 2758 2245 2709 4497 2003 
5575 2649 1787 4340 1168 1717 3407 226 1531 
2463 5124 32 3579 1599 2386 541 4757 1401 
4917 344 5338 553 735 3863 6015 1234 3369 
4224 5583 611 859 256 2657 1794 5694 2680 
527 4039 3380 5636 5413 3419 2798 4214 2761 
182 5350 4764 3908 1323 5856 3145 5734 3062 
1339 5229 609 1261 1818 1119 3039 3613 3333 
3970 5646 295 576 3457 5621 866 5242 5701 
731 4462 3143 5527 5594 1057 330 4470 5375 
3931 2599 127 1464 4037 2478 1722 892 661 
1808 2270 3019 283 2996 4295 4801 324 6014 
2501 2890 5743 2158 4961 3220 3127 431 1326 
5492 3871 5123 3555 2300 1451 5287 4613 3007 
2917 3832 1644 601 479 3130 2184 3070 4588 
2967 3710 5265 1615 2070 4364 1001 275 4949 
922 3604 920 2258 4698 6011 857 3467 544 
506 3787 5585 5281 439 824 4833 4274 520 
5797 1270 3973 4062 2446 4667 2306 3744 674 
4706 4064 3201 3882 2883 2545 5270 3032 3910 
5705 5898 1110 3627 2689 5088 708 1784 2329 
131 5819 2597 5716 4168 2199 737 3330 1810 
1757 2414 1237 3839 4782 2985 3981 630 2561 
1839 2471 1437 4747 4218 129 3986 4814 5228 
1239 3733 1272 2331 1699 3293 3805 1633 5912 
3922 1929 758 4772 2676 202 1725 2578 246 
4617 3297 3644 2661 2916 2037 3139 5683 3320 
5850 1256 4718 5461 1109 2863 2334 1288 1020 
4293 3052 595 1848 2496 100 5753 5207 5535 
3436 4583 203 2271 4102 5109 675 1114 5778 
2770 3583 1175 5122 1420 2642 1103 142 3202 
1783 1264 5802 5774 4180 1112 5536 5652 809 
620 4637 3991 1118 1996 3932 234 1619 1411 
5796 3109 2458 2345 1827 2296 6034 749 3001 
4390 839 1422 3063 1341 993 1475 5193 891 
4172 1286 4717 137 5940 4266 5994 3747 1216 
851 416 5261 5847 2069 469 3165 423 277 
2703 1338 2752 3601 5862 5337 2787 2253 2836 
1983 2002 2461 2190 3360 3468 5000 2230 3944 
4200 4528 2172 2791 2188 997 3353 1178 761 
5241 442 1528 5837 3209 5534 1611 1282 1485 
5074 3800 1423 2964 810 4392 4399 3552 3429 
4632 4823 3775 1318 807 1667 85 4891 3508 
744 2616 3792 2909 3807 2216 5156 3762 460 
5779 3706 3967 2509 4768 2325 2999 4531 4914 
4939 5042 104 562 3100 1012 2550 3393 2209 
3302 5171 978 1294 1973 4960 4153 5188 5433 
771 1047 2619 3690 279 4051 488 1545 4581 
360 2382 5944 3210 1202 2205 1692 1981 3328 
580 984 4702 198 2505 4492 775 3285 1564 
3168 3142 6032 236 1444 5494 787 2518 944 
889 3307 2137 5186 1375 621 2939 2101 5339 
2700 3658 3735 2055 3702 818 148 1828 4101 
5315 3639 1900 538 776 3154 5846 1319 2075 
48 4691 2690 712 5738 5283 5980 565 2551 
470 2364 5526 4201 2180 3531 3113 1078 666 
5348 4909 5206 4319 161 3575 3587 1812 5086 
5160 2776 646 853 2007 4183 4412 4656 1324 
5625 4018 5626 452 3301 5234 3679 272 3760 
3150 4525 5276 4464 5083 1025 3484 4049 800 
4484 3322 554 4184 356 1948 210 5917 2779 
1595 1094 1011 882 5107 3153 5396 2018 2811 
6033 211 55 4199 572 2127 4907 4685 1875 
4944 3493 6039 3447 4009 4350 5707 2866 1988 
4474 1591 4521 5897 4541 260 5346 1398 5434 
1707 2393 152 4863 3656 5588 2960 4339 2540 
3850 5576 4810 3208 4135 4353 2456 1301 3167 
4955 1813 112 2302 1614 3662 4261 1977 4713 
2392 5134 270 4520 4126 2492 4985 3730 2015 
4181 4100 657 2602 2375 4298 5174 2860 4753 
6051 814 5553 135 4602 5746 2284 2734 33 
1852 1584 1785 87 5367 815 2669 3084 2988 
3539 1982 4812 5899 4397 1513 4323 608 2165 
4549 1436 5336 2722 3269 4225 3414 5363 2459 
2537 1167 5889 2820 4028 4988 2170 2636 1947 
222 4603 2640 5072 552 4935 5696 1218 5282 
231 485 409 4785 5768 1004 3121 1519 4021 
3791 1865 4121 1459 3988 5506 3698 4746 575 
1431 5622 3347 5827 5962 436 4839 5237 4922 
4874 374 945 3719 5580 22 5769 2440 1537 
1184 4115 5999 5250 4542 5676 444 1039 3689 
6040 3835 3494 1882 1257 3978 4103 2159 3367 
3645 1340 5208 4489 278 4736 495 1640 579 
3897 832 1352 932 962 5651 4437 5938 1203 
981 4204 2119 1693 1432 3497 3276 631 1758 
5381 3149 2124 304 4836 5815 2043 1816 4705 
5820 514 2969 1160 4668 4267 3985 2343 2140 
5604 2443 5841 4601 856 2052 5913 2444 2157 
3774 3864 2422 2048 4676 4404 1189 4137 3778 
4927 1946 3975 2233 5969 5951 5106 27 3224 
956 1469 1372 4038 2990 583 2525 5866 4694 
5045 1995 4503 3020 1969 2240 6043 5718 5103 
4973 1208 2175 4077 4110 848 3566 1043 3236 
4280 4271 1713 3101 6009 1188 2785 3597 4951 
1199 5499 5099 2246 4310 3554 4566 1333 5303 
628 1181 4688 6035 3197 6069 3228 887 3630 
5618 5221 92 1549 2063 1936 1741 5670 634 
868 2135 1391 760 1590 331 1467 2453 4827 
4580 4501 986 5125 1919 5010 1439 5293 4023 
1003 5244 200 3781 353 4384 5795 577 2488 
5334 5158 4235 3377 5026 3665 1315 939 3982 
985 2076 4348 5740 3311 4275 2357 4240 5614 
146 4539 5745 336 4930 5793 5786 3840 5909 
5064 5435 2516 3704 547 4351 2944 3904 1872 
4790 3191 3476 251 3977 2091 3512 2111 1899 
1236 3194 1909 4749 1506 3556 5952 2530 1849 
2625 3321 2349 4686 4239 4040 3921 5403 1059 
3615 2455 4449 5266 1224 1137 3914 2427 440 
4341 417 3748 2736 2087 1514 2426 10 1462 
2665 5965 23 4033 1371 5831 2116 3709 4777 
3590 3523 2618 1083 5209 3664 3505 3241 2903 
5865 741 1624 3619 500 4879 1275 261 5932 
4229 4849 943 950 6008 1176 4068 618 5493 
2181 1221 3463 2519 5157 2756 3189 1454 1609 
3395 4446 4285 717 3259 2723 3408 5595 1330 
3734 4931 1465 496 3385 794 3171 2675 4131 
2692 4957 5387 2156 340 5445 34 5706 3260 
3488 5539 3918 1695 1082 3540 2796 3454 51 
4244 321 1890 2835 5412 989 801 4125 3643 
3110 1678 2658 4132 4322 858 5360 624 5005 
1253 5664 3958 2552 2211 4289 1761 2058 4774 
5181 2406 2445 99 4707 5764 1954 47 1065 
2942 2222 3372 4649 4006 2979 2060 3350 4619 
2941 4228 1635 3530 4502 713 723 2011 2319 
6001 1346 472 925 622 1141 4331 1625 898 
5462 4324 2333 2006 4007 4398 2474 5908 5236 
4600 3247 5608 3696 4538 1197 3423 4249 1367 
948 4904 3573 5457 2269 4623 4787 5361 5727 
1734 1278 880 2670 2563 5958 4953 785 3345 
1262 96 3396 5118 4926 2316 3073 120 5003 
994 5295 4844 3909 4567 4855 2896 3874 5655 
5838 3332 5081 166 1187 4760 792 2149 4561 
5935 1836 6058 4703 5130 2603 5091 5262 300 
4134 3270 2274 3028 2056 4185 1164 3585 743 
1421 5380 25 5877 1306 1345 1232 3913 1124 
9 1308 1254 975 206 3611 81 4584 3515 
1821 329 3889 144 2771 2853 2733 2361 1744 
4000 2532 4316 2481 4012 4107 4809 5964 923 
642 926 5117 6057 4848 695 1377 1677 2855 
4072 4075 461 3929 1612 5504 75 2637 154 
2544 1837 1975 406 1953 838 1800 2010 4027 
5829 1044 3845 2 831 501 50 2358 1571 