# vtk DataFile Version 4.2
Generated by LIGGGHTS
ASCII
DATASET POLYDATA
POINTS 5997 float
-0.0166238 -0.0171408 0.00602465 -0.0148596 -0.0187461 0.00599771 -0.0116224 -0.0209422 0.0060162 
-0.0129503 -0.0180585 0.00600834 -0.0109568 -0.0172604 0.00599664 -0.00990048 -0.0199272 0.0060786 
-0.0115398 -0.019148 0.00691295 -0.0146971 -0.0167089 0.00632142 -0.00948854 -0.0218964 0.00599542 
-0.00674145 -0.0229768 0.00600236 -0.00461372 -0.023052 0.00599633 -0.0043415 -0.0194358 0.00600766 
-0.00160971 -0.0222106 0.00599919 -0.0022838 -0.018375 0.00601155 -0.00804982 -0.0191783 0.00599809 
-0.00381998 -0.0171002 0.00600109 -0.0035034 -0.0213899 0.00601001 -0.00560158 -0.0213016 0.00599842 
-0.00698356 -0.0174916 0.00600775 -0.00763183 -0.0211333 0.00600364 -0.0019029 -0.0202851 0.00646302 
-0.000564254 -0.0239082 0.00619831 -0.000423847 -0.0176462 0.00599123 -2.17108e-05 -0.0208493 0.00606657 
0.0035317 -0.023699 0.00599817 0.00732597 -0.0227236 0.00600795 0.00428339 -0.0206202 0.00599841 
0.0062386 -0.0210429 0.00600703 0.00177668 -0.0199606 0.00599963 0.0054755 -0.0190204 0.00599719 
0.00224394 -0.0219043 0.00599565 0.00154059 -0.0237897 0.00599584 0.004052 -0.0176118 0.00599896 
0.00858954 -0.0202324 0.00599234 0.0053658 -0.0229667 0.00628045 0.00729768 -0.0181988 0.00599706 
0.00199253 -0.0180162 0.00641256 0.0131047 -0.0177972 0.006 0.0129708 -0.0201163 0.00612434 
0.0110059 -0.0206602 0.00602143 0.00922473 -0.0221147 0.00599661 0.011427 -0.0167113 0.00600055 
0.0149416 -0.017006 0.00599194 0.0094234 -0.0169909 0.00600248 0.0106267 -0.0186653 0.00605136 
-0.0179899 -0.0149689 0.00599605 -0.0195665 -0.0137517 0.00607685 -0.0181636 -0.0122097 0.00599993 
-0.0205948 -0.0120454 0.00599897 -0.0195903 -0.0103496 0.00628176 -0.0216651 -0.010215 0.00600071 
-0.0224547 -0.008375 0.00600238 -0.0195206 -0.00837842 0.00600248 -0.0176593 -0.00992186 0.00600006 
-0.00926808 -0.0161933 0.00611136 -0.0128017 -0.0160919 0.00638615 -0.016482 -0.0132909 0.00599903 
-0.0160117 -0.0152396 0.00599729 -0.0162197 -0.0113078 0.00599946 -0.0110452 -0.0152227 0.00599874 
-0.0133958 -0.0142253 0.00599634 -0.0111225 -0.0130095 0.00599807 -0.0129027 -0.0121076 0.00599841 
-0.00939359 -0.00978102 0.00602173 -0.0156033 -0.00940647 0.0060002 -0.01384 -0.0103449 0.00606603 
-0.0117799 -0.00941892 0.0060028 -0.0103504 -0.00801828 0.00599994 -0.0135045 -0.00837431 0.00600028 
-0.00883039 -0.0141807 0.00601342 -0.00857848 -0.0118241 0.00599764 -0.00398505 -0.0148643 0.00600137 
-0.000978047 -0.0112218 0.0060088 -0.00555107 -0.0161025 0.00599711 -0.00111594 -0.0157752 0.00600449 
-0.00587181 -0.0141298 0.00599835 -0.00658498 -0.0121824 0.00602235 -0.00209475 -0.0129024 0.00599771 
-0.00437145 -0.0128118 0.00601636 -0.00237089 -0.00979595 0.00599672 -0.00416138 -0.00891618 0.00599165 
-0.00316948 -0.0114327 0.00681661 -0.00731869 -0.0102173 0.00599947 -0.00533451 -0.0105545 0.0060006 
-0.00605866 -0.00829797 0.00600026 0.00660585 -0.0163283 0.00599557 0.00105427 -0.0163073 0.00599312 
-0.000305701 -0.00933894 0.00600474 -0.000101007 -0.0130111 0.00599534 0.00206838 -0.0145817 0.00599715 
0.00112332 -0.0113422 0.0059978 0.00454116 -0.0156766 0.00599739 0.00262149 -0.0126593 0.00600322 
0.00433372 -0.0136887 0.00602411 0.00454176 -0.0114019 0.00599871 0.00606579 -0.0126948 0.00599425 
0.00660694 -0.0108708 0.00659872 0.00219309 -0.00947029 0.00602092 0.00603258 -0.0145575 0.00671263 
0.0049104 -0.00947152 0.00635416 0.00787561 -0.0133098 0.00656205 0.0083272 -0.0153299 0.0062007 
0.00842758 -0.0103051 0.00599749 0.0157854 -0.01519 0.00599992 0.0141264 -0.0134467 0.00599963 
0.0163957 -0.0104047 0.00600218 0.0133539 -0.0155403 0.00616053 0.0126276 -0.0102756 0.00599559 
0.0160869 -0.0130318 0.00600177 0.0106329 -0.0103815 0.00601272 0.011438 -0.014661 0.00599868 
0.0147497 -0.0115414 0.0060037 0.0112996 -0.01265 0.00601388 0.0129736 -0.0120209 0.00689753 
0.00946335 -0.0119578 0.00643201 0.00955854 -0.00881195 0.00668818 0.0115695 -0.00876548 0.0067555 
0.0139206 -0.00867536 0.00599592 0.0158104 -0.0086011 0.0066388 0.0175658 -0.0162218 0.00599821 
0.0197444 -0.00995228 0.00599659 0.0197405 -0.0129821 0.00600268 0.0182987 -0.0143642 0.00599843 
0.0182299 -0.0112582 0.00599945 0.0217038 -0.00934184 0.00605199 0.0210468 -0.0114647 0.00599867 
0.0179683 -0.00940303 0.00672658 0.0195968 -0.00804046 0.00664051 -0.0175737 -0.00792551 0.00599825 
-0.0210255 -0.00714098 0.00666063 -0.0229466 -0.00673071 0.00702889 -0.0234818 -0.00427567 0.00599943 
-0.0189399 -0.00647262 0.00599683 -0.0199566 -0.00476048 0.00600565 -0.0218325 -0.00543812 0.00599738 
-0.0186008 -0.00330055 0.00599919 -0.0211051 -0.00313394 0.00599866 -0.0179942 -0.00140302 0.00599906 
-0.0199531 -0.0010194 0.00603862 -0.0238597 -0.000858261 0.0059989 -0.0219246 -0.00131973 0.00599764 
-0.0238089 -0.00257845 0.00701083 -0.0169685 -0.00602172 0.00600613 -0.0155341 -0.00741059 0.00601399 
-0.0166244 4.51422e-05 0.00599812 -0.0167472 -0.00403823 0.00599932 -0.0150497 -0.0054612 0.00600125 
-0.0113612 -0.00629405 0.0059993 -0.0104906 -0.00449103 0.00599705 -0.0128478 -0.00325901 0.00599793 
-0.00927068 -0.0029076 0.00602501 -0.0140077 -0.00163498 0.0060248 -0.0159953 -0.00185028 0.00603122 
-0.0130625 -0.00524738 0.00599954 -0.00936808 -0.00614882 0.00600967 -0.0148323 -0.00347399 0.00599898 
-0.0101105 -0.000978174 0.00599979 -0.0111485 -0.00251647 0.00674957 -0.0120199 -0.000393108 0.00600834 
-0.00173222 -0.00790703 0.00599616 -0.0078825 -0.00748278 0.00599751 -0.00813437 -0.0012632 0.00599918 
-0.00779485 -0.00488367 0.00600259 -0.00441655 -0.00205925 0.00599839 -0.00197711 -0.00582646 0.00600039 
-0.000290295 -0.00449201 0.00601988 -0.00400289 -0.00516792 0.00599812 -0.00560355 -0.00368878 0.00607304 
-0.00219863 -0.00383963 0.00600787 -0.000527048 -0.00245473 0.00599973 -0.00243095 -0.00185406 0.00599933 
-0.00110632 -0.000349288 0.00599681 -0.00359758 -0.000236803 0.00599637 -0.00350306 -0.00706894 0.00635879 
-0.00627391 -0.00165511 0.00660655 -0.00555085 0.00014971 0.00614727 0.00525697 -0.00753667 0.00599846 
0.00211548 -0.00744339 0.00599393 0.000136461 -0.00721696 0.00600613 0.00761609 -0.00547624 0.00599793 
0.00517544 -0.00242969 0.00599809 0.00141264 -0.00557572 0.0060101 0.00321005 -0.00452353 0.00599832 
0.00317963 -0.00250099 0.00599791 0.00543605 -0.00554733 0.00599688 0.00671033 -0.00370118 0.00611393 
0.00149106 -0.00364692 0.00651932 0.00133117 -0.00172591 0.0060019 0.00292044 -0.000519965 0.00599823 
0.00370634 -0.00637721 0.00655664 0.00776248 -0.00212874 0.00675692 0.00614232 -0.000985842 0.00698349 
0.00480838 0.000125238 0.00599948 0.00844761 -0.00033048 0.00613778 0.0125676 -0.00720968 0.00599791 
0.013251 -0.00325562 0.00600862 0.0160642 -0.00393513 0.00599504 0.0116689 -0.00198354 0.00599737 
0.00877579 -0.00367291 0.00599726 0.0105588 -0.00721467 0.00600127 0.00849299 -0.00727035 0.0059992 
0.0115812 -0.00547337 0.00599889 0.00959849 -0.00547686 0.00623294 0.0139157 -0.000600725 0.00599896 
0.0110485 -0.00371285 0.00677785 0.0150547 -0.00559283 0.00668366 0.00970496 -0.00188269 0.00635823 
0.0152535 -0.002012 0.00664024 0.0158802 -0.000228442 0.00599843 0.0104439 -5.95833e-05 0.00599911 
0.0174505 -0.00747502 0.00681707 0.0213625 -0.00737163 0.00599453 0.023508 -0.00431848 0.00599894 
0.0219373 -0.000368749 0.0059996 0.0169253 -0.00573495 0.00599499 0.0188423 -0.00630654 0.00599663 
0.0180821 -0.00410389 0.00601995 0.017204 -0.00229978 0.00603564 0.0206685 -0.00550034 0.00599584 
0.023104 -0.0062914 0.0060566 0.0200113 -0.00363301 0.0062456 0.0233496 -0.00232337 0.00599953 
0.0215598 -0.00212422 0.00687202 0.0198252 -0.00166375 0.00599721 0.0181826 -0.00059362 0.00637056 
0.0199864 0.00032445 0.00600094 0.0238532 0.000440742 0.00599672 -0.0224937 0.000593649 0.00599786 
-0.0186441 0.000413664 0.0065071 -0.0205296 0.000924961 0.00610526 -0.0176757 0.00207904 0.00599793 
-0.0218378 0.00247496 0.00600813 -0.0198556 0.00296831 0.00600775 -0.0197446 0.00517884 0.00599837 
-0.0238331 0.00260581 0.00604803 -0.0181002 0.00406912 0.00615182 -0.0215985 0.00445312 0.00600059 
-0.023184 0.00565801 0.00599914 -0.020694 0.00693049 0.00599837 -0.0187046 0.00710237 0.00599775 
-0.0225986 0.00756705 0.00600155 -0.0167648 0.0066447 0.00607423 -0.0138684 0.000355543 0.00599656 
-0.00874557 0.000645695 0.00599995 -0.00948888 0.00591543 0.00608845 -0.0121283 0.00192675 0.00599869 
-0.0154036 0.00162113 0.00599855 -0.0140734 0.00370161 0.00599884 -0.0162158 0.00343337 0.00607357 
-0.0124542 0.0048715 0.00599926 -0.0102541 0.00271362 0.00600962 -0.0153619 0.00522711 0.00599789 
-0.0148172 0.00713958 0.00599605 -0.00904253 0.00808453 0.00601606 -0.0106022 0.000851295 0.00671056 
-0.00707791 0.00628915 0.00599742 -0.00789517 0.0044665 0.00599972 -0.00321387 0.00498574 0.0059992 
-0.00122277 0.00481729 0.00599832 -0.00607181 0.00207181 0.00599837 -0.00587808 0.00469397 0.00599792 
-0.00360196 0.00175652 0.00600105 -0.00190617 0.00293913 0.00600671 -0.00496039 0.00648219 0.00604005 
-0.000573369 0.00675461 0.00599946 -0.00357249 0.00827935 0.00599622 -0.00439736 0.00348931 0.00658373 
-0.00801603 0.00248896 0.00627134 -0.00194615 0.00118338 0.00696386 -0.00628301 0.00796892 0.00672096 
-0.00163906 0.00837272 0.00648504 0.0010805 0.000256699 0.0059994 0.00672707 0.00070138 0.00609235 
-7.15104e-05 0.00176879 0.00660982 0.000374361 0.00361736 0.00600598 0.0014689 0.00528435 0.00599822 
0.0018418 0.00226434 0.00599807 0.00503673 0.0043158 0.00606505 0.00776641 0.00240322 0.00599576 
0.00381734 0.00189241 0.00600091 0.00703076 0.00425431 0.00602905 0.00310741 0.00381034 0.00599749 
0.0033662 0.00591335 0.00599967 0.00809988 0.00593726 0.00600887 0.00575728 0.00245069 0.00600035 
0.0060953 0.00601591 0.00599828 0.00135426 0.00727345 0.00599701 0.00468518 0.00742782 0.00599849 
0.00299497 0.0078303 0.00697927 0.0163725 0.00170601 0.0059969 0.013554 0.00376936 0.00599873 
0.0101062 0.00558625 0.00599883 0.00976959 0.00184656 0.0059983 0.0142575 0.00147728 0.00600984 
[...]
POINT_DATA 5997
FIELD FieldData 7
id 1 5997 int
4789 1885 5108 5224 2074 5902 4088 233 5866 
3256 1482 3529 183 4447 2383 2932 963 3060 
3751 1953 2337 449 1969 830 5343 5633 455 
473 2687 4127 1131 253 1175 3264 3381 2970 
1868 1779 3075 3781 685 4057 1075 3386 1538 
5785 163 3010 5704 2960 2233 3464 6039 4618 
4440 3341 3671 5066 2223 5099 953 5241 2128 
5050 2294 3760 2186 5488 5279 1644 4951 5878 
3327 956 3469 2213 3263 1813 339 1433 1461 
1188 1316 250 3564 147 987 3544 537 4999 
2496 2266 4119 1786 3685 2485 2216 3033 1632 
1507 5699 4250 2376 1193 634 370 1756 2602 
3426 691 4217 1919 5064 4691 143 3658 2020 
952 2453 3410 780 463 3006 3782 1196 2009 
4856 1579 3475 2275 5894 1045 5403 719 6009 
507 200 4816 1230 292 3746 800 5879 2590 
989 1400 4706 4299 3299 2552 452 509 301 
1917 4780 1505 2327 168 4262 2026 2841 1746 
1388 3948 1660 5453 1924 2848 4074 1823 5245 
4078 6023 1711 3981 970 1983 3943 2533 5315 
3519 5030 4025 4914 4153 1238 562 5742 2928 
5070 3968 5817 5111 4443 5646 4098 2662 3666 
4828 5938 3625 2174 1083 5004 2272 906 4843 
5185 4523 5744 4439 3417 670 4452 82 3563 
5928 5380 5158 5231 1203 3898 5434 3612 5827 
2987 3649 3018 1592 4158 3738 4815 3887 5088 
4749 5008 2746 4520 3954 5696 1371 4034 5702 
4495 4574 4661 5872 5352 4942 5323 5589 4624 
1328 1396 2941 5695 3684 3806 4413 5949 5461 
4964 3496 1533 4591 2168 3879 5614 704 2392 
5362 316 3390 3785 2322 3713 5082 787 621 
1545 2503 1878 4373 5320 1369 2640 1882 3477 
4821 2056 1481 3245 1747 5339 4671 1944 4559 
5849 486 1664 1375 6008 5884 1144 1264 712 
1716 108 570 741 46 1571 4954 2595 818 
1755 799 1013 5421 3680 2705 5523 4766 4467 
1139 4517 4616 2484 4288 3747 5396 3858 5134 
4488 2430 853 2525 5468 3769 874 2246 27 
5217 3405 5602 809 5381 2888 1966 968 5557 
897 4485 3820 1959 4165 2536 5272 3847 3753 
4775 1024 3619 5144 6068 2607 954 4245 4560 
2614 3377 2210 5139 2860 5387 5471 1431 5222 
3924 1515 4371 3248 4669 231 3334 5056 5580 
6035 5856 3837 3748 4532 5828 5204 5413 5667 
571 1860 1216 2284 5873 2177 2199 2511 4126 
5723 3366 4479 2286 1258 2479 190 2375 1696 
768 3826 2939 3042 4265 4105 4102 5791 1883 
5196 3482 3290 2725 868 1587 2816 1700 415 
4451 1335 3974 5221 3654 5584 5577 1877 4415 
4436 1352 5332 3543 5886 5472 1503 4231 3945 
197 1243 795 3297 401 2588 2436 3007 4935 
1358 2188 5447 4709 2652 3565 5277 5321 2423 
5799 5019 2230 5525 1276 5603 4724 5211 1300 
3539 4740 2212 644 2271 3759 1591 4266 433 
5933 4995 5292 2424 3378 4080 3 4738 4307 
4187 815 4313 6065 5540 4959 1440 5491 2366 
5582 226 330 541 699 643 5960 599 290 
5022 3391 5908 5914 3526 1714 5163 3790 1324 
715 3423 1394 3063 3081 372 3262 5156 2157 
3336 4320 1920 1320 2147 2248 241 2541 4291 
863 3131 2529 5498 1183 5068 781 3919 3827 
3552 2678 5260 4920 2762 6066 5700 1993 4160 
434 5047 5739 3146 3420 1019 3640 1033 1843 
3279 4359 5424 4908 214 4862 4842 3631 2915 
4529 3411 4468 1142 3055 1539 539 2434 1147 
4 1130 1801 4781 1939 692 750 885 3928 
470 2324 1373 629 3831 1992 3414 1650 5183 
446 2502 982 3104 5284 1584 1231 1577 1638 
4615 2153 2787 1580 4784 4745 5712 2788 5234 
5641 2190 3756 3437 3453 5361 2023 2421 1307 
5768 5552 3298 2018 5122 5926 4711 4526 4522 
4733 3783 5157 5781 5376 2406 3915 2560 1215 
3100 1782 5755 5927 1518 302 3412 2569 5857 
1136 3234 1501 5235 5694 2417 2387 520 5600 
3259 3108 1250 4378 569 5084 5135 4218 5372 
2876 3942 1207 148 797 2961 2707 3939 2520 
3200 244 5333 5219 5627 5105 462 2778 2183 
4602 2966 2598 1532 4509 2655 2011 1773 182 
5824 2043 5435 4486 3202 2744 3556 5818 1199 
3328 669 4769 2835 1032 659 909 1010 118 
219 672 1718 4274 260 2454 1954 3364 1575 
4779 2067 1101 3973 5792 4241 2463 1120 1343 
591 5708 3071 2982 3733 5057 4524 1346 2371 
3032 2320 3537 3644 5911 422 211 3787 2309 
2906 4974 4190 5774 1525 289 4660 2252 3085 
805 4001 2718 5195 2837 2727 4388 3225 456 
1378 4965 2650 1201 2446 1326 4292 1542 3062 
1657 2916 3768 1511 2903 516 4081 2471 5005 
30 2491 4146 1049 5890 2341 355 921 3078 
3228 2448 4194 3014 1702 4723 3635 1351 2647 
1453 5868 5289 716 529 4512 4438 3871 3358 
3471 1117 735 1907 2191 4379 4344 544 1329 
1884 2409 1925 2596 2808 3148 3099 513 131 
3402 224 494 1895 2032 1830 2292 1572 3440 
3135 2668 2028 2814 1790 1435 4845 2622 1209 
3976 2761 3853 2895 1218 3178 549 111 2262 
2682 557 4820 3842 2418 2953 1235 2432 5102 
826 3870 5681 3369 2111 2651 2825 1280 821 
3272 1093 3657 3497 1071 3008 1137 1905 2844 
437 5354 867 5214 1615 998 1466 4240 866 
1874 5504 851 1354 4586 3736 296 1598 508 
3558 1315 3808 3578 2506 3862 6045 93 1725 
235 881 1752 964 2661 1578 11 5281 5732 
4626 5297 1808 3593 689 824 353 1829 2244 
5481 1263 756 2836 812 568 86 882 1410 
4855 4657 3476 3668 2824 2090 4530 3524 31 
180 481 534 4912 2854 34 1968 1129 65 
397 2868 1197 285 1124 1856 2451 295 784 
4433 844 4883 4107 2578 5913 1105 1284 4475 
1649 610 3124 727 3758 1595 4806 5263 72 
684 4916 223 3313 2852 1026 5836 4831 3761 
4419 4650 3926 4402 5329 184 1227 1912 5013 
3882 1989 6061 4791 5089 2016 1007 994 37 
5558 4748 336 4962 2635 5038 3465 3151 403 
326 3195 2359 1245 4865 4983 288 3792 3115 
5467 5981 5621 4040 3017 1060 1670 6054 1119 
2127 2037 1419 5564 5909 3709 4786 4729 2039 
4579 3495 2800 1576 2134 3618 1840 709 4272 
5956 4582 2714 1908 5705 2991 3848 2576 4139 
5360 16 2720 5838 2347 4982 899 2507 1941 
3138 1411 424 959 1596 3700 3698 595 5683 
3530 5336 4463 2478 3678 3816 5587 1681 576 
2734 527 4504 5639 4797 4665 955 2285 3424 
3067 3029 1164 4177 725 1455 645 5727 85 
3064 2699 656 4462 639 4428 4812 1154 5593 
5270 6052 4197 4389 5092 2279 3393 6005 5653 
4826 2331 2859 2362 2361 4570 3430 5598 216 
3242 177 2929 4837 2586 3493 1679 337 4751 
5493 3045 2333 4606 2804 2751 2013 297 300 
3634 1310 3893 3949 3091 1566 5100 240 1844 
2085 5169 1962 5172 2641 5496 4409 5145 3283 
5842 1309 1876 350 1990 5942 2755 2625 2360 
2156 4648 5670 5793 1519 2575 5802 374 3409 
1691 431 4064 2905 4721 1550 4941 1344 3859 
3892 4975 3189 3881 3182 5519 3305 831 4790 
2146 461 3031 5635 2674 2426 4282 1169 4913 
5240 895 1850 3141 1940 5394 3535 1828 5936 
1726 4151 1356 1661 3971 4308 1994 5253 4550 
1896 1806 1387 3904 2273 1563 5188 5980 5830 
4047 130 1863 1710 2288 1447 314 2820 3345 
4056 1861 2530 1688 3222 3669 4408 165 1612 
5534 3740 5721 2512 2618 679 3720 2164 1684 
2315 5021 2149 70 765 894 2270 5578 1560 
3880 5923 5175 3921 4346 3692 5724 3220 1056 
2046 5771 1594 198 2145 1285 440 893 5229 
1408 806 5425 1471 5283 4381 3153 3711 4731 
4850 2540 4508 4919 3984 4525 4727 3613 4390 
3197 3861 5669 5692 3722 4268 19 5871 5917 
485 3101 521 5660 3559 4141 5566 2015 3181 
4590 487 3218 4281 5515 54 4518 1160 1296 
5666 1867 5747 3876 5460 120 5813 5636 3824 
4544 4736 2094 524 5275 4713 1831 5078 4376 
3473 3016 2004 4067 5408 3020 2610 4620 2152 
2969 4989 5722 3742 2263 5200 4162 4264 4315 
811 5575 2694 84 2172 4668 3433 5662 5678 
2642 3278 2295 5686 2274 4386 3741 3363 5875 
4469 4633 589 4605 5055 4985 3407 1634 1668 
4420 4206 4505 3474 3301 4979 5452 2810 4028 
1085 1531 1685 1727 5296 4538 4535 5673 3686 
1826 803 4123 927 1929 2851 3789 6044 3517 
2231 2236 1398 1077 5042 1677 4327 4484 1050 
5987 4922 5709 5825 280 5406 2907 5765 5760 
834 5369 5748 4839 234 1425 5399 5062 4442 
2872 4227 69 3588 2003 5955 1819 3292 1855 
5672 4695 4679 4594 5085 2613 2756 992 3444 
3823 1134 1255 4334 913 6011 6058 3109 5967 
1437 1341 1133 2357 1611 376 3850 4453 1948 
5899 5170 4834 4902 2887 1833 158 1473 892 
3213 1656 3300 5895 2591 3562 3581 2850 4681 
4943 3307 1039 1062 3648 5977 4357 1141 1906 
5937 1600 264 2069 5975 2442 1890 4732 3994 
5790 5590 2791 4004 4960 4446 5095 6038 4880 
5350 5265 1108 6021 2732 4212 2352 3039 5131 
3540 2723 833 5254 2834 2796 2498 3235 2616 
4852 3021 3365 306 5734 4335 4362 164 5601 
1975 2589 1909 3359 4947 6055 3626 1517 2940 
3260 2675 3689 3408 2181 4099 3987 1514 3687 
4542 3237 4321 1738 2103 342 2440 5353 5357 
3963 3800 5255 87 1991 648 275 933 5115 
283 4888 3875 3171 5341 3754 2831 4988 409 
2741 1624 2528 3494 2780 4148 5555 472 4519 
2823 3854 102 1527 2878 5995 4350 5953 5932 
624 103 1772 817 722 458 2585 6051 1417 
4049 2845 3596 5531 5521 4285 536 1229 5659 
3241 4295 2645 4229 1368 4208 1879 5309 5634 
1862 4934 1921 1875 5487 1934 6022 4521 5832 
2298 3201 640 2765 578 820 702 5176 3066 
773 76 4249 1444 4372 1570 4873 5509 4783 
5759 2518 5274 533 580 4259 1239 2713 920 
1282 113 471 4932 3009 2354 661 5950 5476 
1274 213 5618 5392 2735 5155 728 286 961 
105 4643 4795 465 5359 5410 144 1981 3953 
2036 5586 5743 1430 2401 832 3434 109 1562 
3306 1530 5812 6033 5971 3303 2443 5570 3439 
3144 421 1018 5554 3288 1362 2867 3027 1620 
929 3550 5757 5061 4434 3126 2214 3403 5966 
5414 4803 5783 5499 42 1741 3145 4601 5880 
3373 2445 2706 3205 4301 5159 4271 1102 559 
1552 4196 2691 5466 979 3676 406 5053 2170 
561 2365 4483 5298 3975 1452 2606 4863 3703 
2024 1409 1743 1414 1568 3707 3935 1403 1737 
4149 2901 3446 2305 3483 3173 3933 5535 5227 
3030 5852 2060 4095 2619 4135 3956 4933 2919 
4189 1442 525 2314 1516 3727 2428 498 1439 
3982 3355 2155 4697 2988 4458 5754 400 5845 
325 3706 3675 3592 5368 5610 2948 923 2733 
358 1547 2061 2930 3419 1441 436 5000 3165 
3005 1122 4070 3392 2348 3560 4741 5076 135 
1750 2141 1832 5367 5433 319 2404 4363 3223 
4230 3068 3528 3147 1467 2563 4918 2639 1847 
4421 2584 5904 3429 1181 658 2204 4761 2373 
1918 872 1712 3347 822 2936 5624 4323 620 
5271 4171 2623 1674 1852 1849 1946 5386 2934 
4399 4556 3123 3457 937 2092 744 6047 362 
5522 3342 1923 2909 4658 5945 2097 1740 5119 
3216 5876 5400 5862 6007 204 2391 1311 5355 
3616 3705 5745 1014 2441 3209 3318 4489 5854 
3605 2779 1822 1279 4773 3116 3070 5994 3600 
1809 2119 451 2481 2302 767 3799 466 75 
4993 1277 2405 1864 2685 5342 2636 1405 523 
4251 1588 1180 5703 2370 2989 2257 5267 1780 
405 786 2237 3251 3249 1601 551 4341 919 
6 3576 2777 5711 1040 2881 1485 1125 869 
1374 5508 888 311 1392 3054 2955 3425 5416 
3102 1312 3845 3797 1764 4555 24 2611 5794 
1522 4347 217 2487 1273 1407 2120 1357 814 
538 4311 1608 1034 2827 4871 2900 1569 2587 
5934 5869 5944 2913 2435 1298 807 1366 4031 
3040 1623 382 4117 3966 5649 3745 5809 542 
3962 2886 1748 1541 5901 1582 1132 2998 969 
2396 2475 3514 2686 4122 1964 2012 3276 2615 
4222 2721 4730 1701 3599 1029 1626 986 635 
3897 4787 608 631 3979 2771 5266 1140 2437 
4753 2488 840 2858 1537 5769 4068 495 1321 
2908 1028 3878 3337 3252 2269 1459 2277 5480 
1332 2280 3478 575 2600 4191 1042 3977 723 
4537 2117 1428 4689 123 4387 3097 633 4021 
2466 2367 2494 928 616 3731 5378 4938 1513 
5358 4808 2828 5919 1911 999 1027 1061 4807 
3399 5717 3413 2235 5728 3421 4882 597 4858 
2150 890 1336 4955 152 254 4352 4768 2278 
2130 1640 5482 4762 4124 95 1222 2068 5063 
5233 2538 4664 2698 1445 3767 3035 3737 5823 
3316 5988 1870 886 389 1914 2356 1185 4336 
4827 3121 159 3448 4737 4866 5594 827 73 
4494 5346 1266 2267 4841 1246 5120 2933 4621 
3712 884 5877 450 5507 1449 3630 5444 5770 
5365 13 3566 50 1096 3885 4235 4237 4905 
5258 5316 5206 5420 5789 4348 1478 4053 2846 
4493 6056 769 2264 1064 2242 447 4224 3057 
1687 3080 5268 3608 464 1686 4193 5216 1022 
3268 1706 2898 6025 5127 265 1723 1655 2081 
4763 320 1005 698 4017 614 4473 900 3632 
5029 1015 3660 5611 3905 2206 2330 3360 3170 
5541 3570 4115 4946 4345 1760 1699 3574 2098 
252 3571 2663 3449 3443 1815 2419 1429 4275 
3294 3527 1698 3538 828 2499 3219 518 1742 
5630 352 1653 2468 5520 195 5870 1090 3645 
3397 2885 3152 1945 687 1270 3661 3965 4774 
5855 2863 4547 1046 443 3134 3557 6057 931 
1162 5220 4967 1017 174 5532 2570 2169 4792 
1043 5990 926 3656 317 1113 3333 1922 794 
3846 2532 668 5168 2767 2789 1127 399 5370 
2256 1237 4578 3309 344 4822 122 846 4796 
1002 2522 1998 1504 62 247 5383 2044 3353 
1631 1361 279 2109 758 5132 3702 1379 4610 
883 1753 4631 4829 5262 3664 1114 6053 3852 
3221 4087 3455 3780 3772 5680 4765 4907 2455 
4175 2795 2303 2438 3001 802 1557 1240 3615 
2416 2790 1797 5113 3422 2374 4699 3240 860 
2543 4956 5893 6036 1150 917 1536 5133 4457 
4112 1787 1534 2794 4375 4799 1404 4103 2708 
3502 1261 5182 5619 1253 1766 2893 938 5327 
4278 5592 5015 4944 3886 4540 3168 4481 2833 
5023 2203 4824 4238 2975 4286 686 3937 936 
5340 5072 2666 2299 3643 2208 2014 3002 3317 
801 4600 2658 694 2677 5749 3533 3694 5051 
2514 2476 4777 4289 4252 5486 5778 4717 3073 
5474 2287 1960 2954 1278 4418 4719 3077 5605 
242 117 4963 2742 947 2087 3351 3047 5596 
3958 941 3232 3284 2792 1717 782 5512 4584 
429 4045 1259 4623 3466 3947 169 5477 38 
2251 4082 4889 1174 5958 2470 1146 478 4179 
3547 365 3136 4911 2394 3961 604 5033 178 
1488 2624 3672 230 5859 5052 753 3164 5652 
4180 879 1633 4370 185 2064 3158 3348 5516 
4305 503 3489 3329 4006 2938 393 2559 3013 
5436 501 976 2300 4063 528 8 647 2995 
2389 5173 2521 1219 3275 413 2817 2617 1225 
1581 2670 2138 2958 2620 2381 1497 1675 17 
2465 368 3997 4205 3118 2254 1548 4886 3828 
623 3432 710 2318 4872 273 1386 1792 2197 
3330 3724 2657 4101 2580 2855 4043 1720 3149 
663 1347 957 3460 545 693 594 2890 2001 
2457 1325 313 845 257 2129 2748 310 2351 
526 1070 2738 2021 859 4459 2637 4367 3217 
3166 626 1314 651 5750 3236 5334 5427 4306 
1265 4557 5546 1606 5422 145 3384 1565 5983 
162 3445 3667 5910 5371 5485 4460 4214 3211 
4990 4673 4496 1901 1372 1810 259 4683 1475 
1106 467 318 5103 3208 5642 607 3849 3906 
3931 2680 4182 4642 4225 1067 3349 5822 554 
2564 706 3864 210 1490 5810 1104 4835 4864 
5058 2464 369 3812 4431 5130 1899 3721 3814 
3169 186 4406 5239 3766 2605 3883 4283 5242 
5347 560 4760 3869 5954 1469 1950 1412 4037 
5518 4382 5395 2819 6024 5484 5530 2049 3269 
2519 4008 4164 5689 1269 3572 5536 841 3681 
3508 3447 5625 2648 5952 3361 4708 5150 5411 
333 4096 2731 5060 4441 2643 1054 3096 1421 
5073 3911 1476 2583 5881 3041 3046 5796 4092 
3622 5218 3462 3427 3052 4414 5097 2261 1873 
5548 1937 2599 2477 3079 2329 4770 1619 4587 
3843 4640 3798 3716 3697 4061 2113 5835 5533 
3431 1671 3888 3382 5733 3368 5384 4152 4752 
2633 5011 3319 5993 3130 4075 4895 1871 5010 
3199 375 2768 3857 2358 3523 819 2894 1510 
2959 4046 2493 3595 2500 1846 4156 255 4356 
3763 5492 2696 864 1854 790 81 2882 2304 
4772 3726 5714 4910 5081 3128 6015 5984 6000 
3833 4138 5513 4097 3744 1454 664 5404 4857 
5698 5199 5543 3481 3967 5501 2449 5766 5539 
2963 5167 2083 3545 3059 3072 3398 5049 2080 
2902 1340 1244 2971 2815 4374 170 3451 4630 
1665 2480 1535 930 1086 1323 5191 4417 3286 
2759 603 3395 4130 3597 3332 5129 4702 5377 
5865 3375 2227 3501 2489 3890 5104 1418 5269 
1044 774 5529 1821 324 3036 5110 650 1000 
5897 4854 141 3998 1955 4921 5682 1915 5256 
5462 2161 1916 4358 5415 412 2165 3315 5208 
757 5251 3450 4511 4492 1256 4720 5720 5668 
232 2490 2308 5527 3127 2942 248 99 740 
3051 574 843 5851 5638 1506 4270 3338 4331 
5226 1202 2910 2078 4242 1715 567 3179 5345 
5502 1178 793 945 208 2944 4757 2621 5867 
4178 3204 1156 4627 2862 1038 5581 3805 5588 
990 5992 857 6018 4800 2105 5018 5775 2486 
3177 53 3499 1647 652 2715 5209 4354 4497 
3778 2229 2985 5230 79 5920 3174 2921 4567 
2683 6063 5560 438 5083 1774 5286 1689 3253 
3321 2312 5494 4048 2217 3534 2321 3461 5970 
6037 2510 4576 3456 4276 2679 5338 5313 3796 
3594 5306 2784 1145 4338 2415 1802 187 282 
5804 1894 4131 1206 2317 4476 4060 1970 5787 
5165 5430 5001 2456 2702 5154 2328 5576 5210 
3627 3190 3167 3296 175 1363 71 1212 850 
151 4472 3322 411 5003 759 2864 4891 5071 
1952 4277 948 4622 5124 4154 1271 5303 4304 
1456 3435 2425 4435 2335 2071 4360 1423 426 
641 5457 5259 4844 4776 697 4810 171 5402 
4339 3809 3125 3506 4703 5620 6031 5373 673 
1546 3818 2979 4157 5735 3929 2010 4243 5290 
3917 4014 5048 1793 4366 4877 5031 4893 3026 
476 2951 3162 2644 1529 1683 2896 4072 4715 
2123 2758 5311 4445 4065 4881 4058 638 3092 
391 4016 1997 696 2420 2380 2185 2534 2345 
4091 3394 4396 2079 3561 4977 3441 2806 5128 
1881 5162 1251 4931 4325 972 5041 3044 2260 
363 2072 1730 1692 2143 4612 4516 5246 5882 
1330 5174 3193 4337 5905 335 5114 4541 504 
3673 675 23 5726 4470 5731 5317 555 4407 
739 654 5786 5440 2924 1973 5674 445 2760 
107 5974 124 4811 3757 2265 4027 5690 349 
5615 880 1616 479 2431 3215 3243 5225 517 
4012 2568 3988 3406 146 1645 585 222 5650 
3542 3498 5591 4767 3655 3647 743 1121 3585 
5177 4554 2609 100 1958 2030 1069 1500 550 
3479 1053 3832 5450 5889 2737 1095 2573 746 
2996 3642 160 4084 1041 4383 5565 4170 6013 
2703 2243 2412 1528 1776 4847 408 988 974 
3989 68 1182 4478 2757 1081 5782 2556 996 
2956 379 364 5941 1690 2673 5788 354 690 
4487 64 565 2173 4294 4392 2689 2646 4077 
3098 3458 1436 26 5693 4629 6042 3061 5549 
1967 5713 4038 2041 3801 60 4296 5318 4609 
5257 2517 5118 4927 2992 5016 5612 4887 676 
4343 2052 2310 2232 5363 5840 2766 4009 5718 
5999 3516 813 5921 3106 4548 5207 384 3112 
2291 423 5946 4147 2029 5046 1487 5550 4261 
4677 2334 3951 1389 22 2136 5146 5351 3404 
1807 5489 1544 558 3775 4355 3095 2422 2949 
966 4161 5278 1360 2402 4531 3484 3271 414 
510 2407 4685 2504 3575 4066 4501 55 334 
3541 5820 4255 904 2839 5545 1030 4234 239 
1294 2840 4332 1457 877 2999 115 531 5837 
6034 268 96 4817 3855 3908 121 755 193 
15 1068 238 1848 946 1709 4411 1891 303 
2382 2135 5736 5137 3815 3438 4405 1057 1097 
4041 2192 810 3932 3326 4583 2782 2608 2950 
5503 848 3896 4129 4644 2460 1283 3335 3196 
4203 2238 2649 272 1800 5537 2752 1063 448 
3590 256 4949 4052 3119 5160 4125 2202 3192 
829 2555 4032 2812 4437 4029 2736 3270 1553 
3776 298 3771 1342 1076 3470 5896 5250 1719 
4739 1228 6040 3784 3918 916 5903 5121 4051 
2386 1432 3175 4632 2241 1099 2730 5816 535 
1841 3840 5464 5853 5803 66 4734 5098 4957 
78 266 5441 1345 2809 1610 3639 2984 1420 
2537 1422 1011 2709 2492 407 1012 3154 2977 
4209 2546 4269 3765 5077 1001 5665 4340 590 
2574 1558 1348 1523 3791 2656 2363 3024 1306 
41 1988 3868 502 1961 2042 4771 477 1448 
1971 4528 5096 4020 2189 1625 5819 5337 3688 
236 1949 2883 4676 915 3653 4592 5538 5978 
3701 1886 1211 245 4901 4613 2704 5456 1759 
4546 4603 3186 1355 2692 4707 4890 3730 194 
1798 1135 4651 6050 5243 3087 5040 4694 4536 
2219 2215 4562 2776 1851 1242 4104 3113 1226 
5839 1268 1803 4878 1872 140 2957 2773 5948 
284 460 4534 4449 995 4005 5007 4226 1825 
150 5900 2065 156 5291 1293 3244 2245 435 
1554 4011 1642 4204 2968 3934 3567 1426 660 
4023 3089 3210 2180 371 3023 747 1248 1889 
2452 849 2101 4904 5282 4159 783 2148 307 
5398 1149 5335 2131 2104 766 1662 4552 203 
161 3261 2739 5606 3549 4042 2051 3463 613 
5202 5622 1938 1932 125 89 1443 3752 4298 
4330 1734 1736 1406 1287 796 4416 119 4248 
361 1910 980 4653 1693 1072 734 2701 373 
3719 932 309 1785 1935 3996 2008 3610 5599 
4450 128 2983 3788 110 92 905 1167 1051 
6069 962 4427 4663 5737 304 3938 2947 2390 
3907 4785 978 1789 552 491 1590 4972 2781 
5763 1561 4608 139 331 1035 1349 4454 4978 
5039 3129 2497 6003 360 2144 1003 903 4564 
4300 1963 5285 771 1313 3866 4746 1495 4565 
772 1184 1574 3485 760 1128 3863 3362 577 
4551 3980 2110 4216 5628 4429 4675 3591 5428 
1628 3708 5106 2716 2717 5632 4424 5848 3825 
677 5965 5179 5198 1745 5116 1383 4558 5701 
2311 4598 2978 2524 2116 5968 4830 713 1512 
4984 5930 5148 922 4010 5009 4593 5228 5843 
5181 3512 4649 2993 4802 2058 1682 5860 2447 
1172 1353 5629 3531 269 4054 321 4572 1651 
1234 3159 4211 5758 4617 5043 2594 3941 1249 
2783 3901 3194 2118 5663 5559 852 2053 5014 
3110 630 3554 4247 2803 3822 5451 392 88 
3346 2695 396 453 262 4819 2693 1390 4652 
189 4198 4868 3291 4726 2088 997 2218 4328 
2234 2151 4448 2627 5730 4755 5773 5074 5136 
5349 1267 3352 1646 4089 3995 2875 5644 4172 
1153 153 1302 2290 2838 4897 1936 127 4397 
3325 154 981 1465 56 3521 5006 975 3811 
2200 627 251 2283 1424 2095 3691 3065 2535 
752 973 3710 496 5976 622 5526 4641 1232 
4351 1777 4991 3082 1728 1177 1599 3510 5314 
4393 4793 2414 2459 5419 1609 3725 3383 3191 
2124 5190 5497 2458 5238 4059 4019 4838 5232 
4128 2070 5 4071 3053 5017 2066 5101 3401 