# vtk DataFile Version 4.2
Generated by LIGGGHTS
ASCII
DATASET POLYDATA
POINTS 3 float
-0.0223643 0.00529154 0.0307576 -0.0231761 0.000331228 0.0241368 0.00140556 0.0187015 0.0487443 

VERTICES 3 6
1 0 
1 1 
1 2 

POINT_DATA 3
FIELD FieldData 7
id 1 3 int
4217 4280 5653 
type 1 3 int
1 1 1 
i 3 3 int
0 0 0 0 0 0 0 0 0 

v 3 3 double
-1.7846243353e-13 2.6349323043e-12 0.58317480832 2.1100344592e-12 -2.1679261465e-13 -1.5709593884 -1.0936730202 -0.31924830424 0.66007733133 

f 3 3 double
7.0983219302e-12 1.1254996934e-11 -0.00082184063976 2.1287860363e-11 -9.0949470177e-13 -0.00082184062511 0 0 -0.00082184063818 

radius 1 3 double
0.002 0.002 0.002 
omega 3 3 double
2.0942481508e-12 7.2389042834e-12 -8317.9354763 1.8247504881e-12 2.379455963e-12 113.84590446 0.44186017877 -0.1403153256 1.2265980825e-07 

