# vtk DataFile Version 4.2
Generated by LIGGGHTS
ASCII
DATASET POLYDATA
POINTS 5997 float
-0.0179266 -0.0157492 0.00600343 -0.0124269 -0.0199177 0.00600001 -0.0119159 -0.0175048 0.00601699 
-0.0164866 -0.0172802 0.00600732 -0.0144882 -0.0189549 0.00601147 -0.0137389 -0.0164657 0.00600334 
-0.0108403 -0.0189678 0.00704372 -0.0106484 -0.0213334 0.00635886 -0.00932063 -0.01818 0.00601287 
-0.00861506 -0.0201315 0.00600739 -0.00715765 -0.0185566 0.00627044 -0.0041701 -0.0168027 0.00600664 
-0.00456235 -0.0231102 0.00605972 -0.0019082 -0.0237148 0.00602589 -0.00128668 -0.0217549 0.00601507 
-0.00383226 -0.0194172 0.00601507 -0.00522663 -0.0211907 0.00604548 -0.00625787 -0.016717 0.00608766 
-0.000104527 -0.020113 0.00602041 -0.00667478 -0.0226323 0.00599878 -0.00098807 -0.017294 0.00600036 
-0.00267273 -0.0179834 0.00683971 -0.00323234 -0.0214599 0.00653526 -0.00872682 -0.0221318 0.0062898 
-0.0069832 -0.0209253 0.00707686 0.00363732 -0.0220068 0.00602055 0.00325845 -0.0200184 0.00600291 
0.00171466 -0.0213004 0.00601684 0.00687559 -0.0208873 0.00600146 0.00490824 -0.0169024 0.00600737 
0.00778322 -0.0225677 0.00661488 0.000221915 -0.0234316 0.00600152 0.00244428 -0.0237135 0.00606119 
0.0052114 -0.0189461 0.00599921 0.00106023 -0.0163998 0.00600425 0.00849905 -0.0180483 0.00601127 
0.00504169 -0.0208052 0.00680294 0.00349464 -0.0181539 0.00670047 0.00569225 -0.0229398 0.00603598 
0.00711648 -0.0191545 0.00696993 0.00684187 -0.0170198 0.0065668 0.0088077 -0.02004 0.0060092 
0.00962728 -0.0218899 0.0060016 0.0124533 -0.0203947 0.00599606 0.0141659 -0.0193286 0.00601145 
0.0143049 -0.017232 0.006002 0.0104495 -0.0185079 0.0060069 0.0123141 -0.0174366 0.00603325 
0.0164368 -0.0170506 0.00608134 0.0106245 -0.0203525 0.00681288 -0.0197507 -0.0133222 0.00604294 
-0.019612 -0.0113088 0.00600224 -0.0220686 -0.00905295 0.00600142 -0.0200224 -0.00934223 0.00600433 
-0.0196732 -0.00736756 0.0060027 -0.0213774 -0.0107387 0.00685397 -0.0176107 -0.00853102 0.00621519 
-0.0228067 -0.0073577 0.0067702 -0.017766 -0.013758 0.00601854 -0.0172831 -0.0106256 0.00599696 
-0.011735 -0.0154206 0.0059995 -0.0156239 -0.0152121 0.00619285 -0.00973074 -0.0154087 0.00629976 
-0.0112066 -0.00992802 0.00599387 -0.0140669 -0.00924494 0.0059968 -0.0157905 -0.0130601 0.00602613 
-0.0150136 -0.0110592 0.00600901 -0.0124157 -0.0125648 0.00601691 -0.0158867 -0.00944254 0.00679727 
-0.0107808 -0.0136968 0.00635643 -0.0130968 -0.0108282 0.00673267 -0.0136628 -0.0141327 0.00600756 
-0.0105064 -0.0117207 0.00651826 -0.00875299 -0.0108788 0.00603664 -0.0103479 -0.00847762 0.00705878 
-0.0117412 -0.00749063 0.00600137 -0.00783806 -0.014837 0.0059996 -0.00865643 -0.00862944 0.00599925 
-0.00239286 -0.0158352 0.00601396 -0.00444509 -0.0104514 0.00601452 -0.000513755 -0.00967943 0.00599352 
-0.00385623 -0.0144371 0.00603869 -0.00213869 -0.00847728 0.00601364 -0.00583601 -0.0147266 0.00600245 
-0.00385341 -0.0124219 0.006091 -0.00223316 -0.0107516 0.0060032 -0.00665165 -0.0104815 0.00602224 
-0.00662399 -0.00847785 0.00601716 -0.00633922 -0.0127049 0.00599592 -0.00205454 -0.0134809 0.00603453 
-0.00425442 -0.00826932 0.00601459 -0.000324234 -0.0149434 0.00607153 0.00298516 -0.0161956 0.00650515 
0.00436007 -0.0147431 0.00602202 0.00176626 -0.0123803 0.00601113 0.00599231 -0.0109825 0.0060008 
0.00354754 -0.0112188 0.00600362 0.0021489 -0.0144272 0.00600128 0.00786942 -0.0102983 0.00600554 
0.00639438 -0.0149858 0.00601364 0.000884747 -0.00801742 0.00601437 0.00638265 -0.00866959 0.00600857 
0.0054957 -0.0129313 0.00605913 0.00755659 -0.0122734 0.00603482 0.00137509 -0.0103428 0.00617118 
0.00348923 -0.0131015 0.00676995 0.00274961 -0.00889102 0.00599999 0.00460901 -0.00955266 0.00632278 
0.0143083 -0.0116497 0.00599707 0.0152579 -0.0134992 0.00601479 0.0155215 -0.0100587 0.00600023 
0.0133725 -0.0145591 0.00600773 0.0121881 -0.0118489 0.00602567 0.0162548 -0.011832 0.00655992 
0.0151411 -0.0154538 0.00640968 0.012509 -0.00828475 0.0060002 0.00967921 -0.0112888 0.00605776 
0.0112585 -0.0100476 0.00600219 0.0131901 -0.0101048 0.00658531 0.0135018 -0.0129905 0.00724782 
0.0146862 -0.00823991 0.00599832 0.0176283 -0.013191 0.00600025 0.0179868 -0.0157797 0.0060032 
0.0192539 -0.00948529 0.00600692 0.0211376 -0.00882402 0.00599969 0.0195821 -0.0136135 0.00600002 
0.0188433 -0.0115907 0.00602073 0.0207055 -0.0108583 0.00599716 0.0177469 -0.00817359 0.00600435 
0.0196409 -0.00750198 0.00605832 0.0174522 -0.0101968 0.00649735 -0.0213101 -0.00622015 0.00599919 
-0.0215433 -0.000372722 0.00604127 -0.0175742 -0.00652967 0.00599988 -0.0174006 -0.00452477 0.00601005 
-0.0194794 -0.00537773 0.0060081 -0.0199304 -0.00343017 0.00599929 -0.0183602 -0.00170466 0.00599727 
-0.0195521 -0.000110162 0.00599931 -0.0220629 -0.00392754 0.00599618 -0.0232029 -0.00556332 0.00599625 
-0.0182236 -0.00320052 0.00730202 -0.0238564 -0.00249674 0.00599854 -0.0220787 -0.00211883 0.00682088 
-0.020065 -0.00175954 0.00708749 -0.0236357 -0.000354471 0.00609394 -0.0223996 0.00100719 0.00720351 
-0.0137945 -0.00708899 0.0060091 -0.0157717 -0.00744418 0.00617166 -0.0166267 -0.000721956 0.00599892 
-0.00849786 -0.0016784 0.00599906 -0.0105371 -6.00649e-05 0.00599705 -0.0165502 -0.00271403 0.00634013 
-0.0147064 -0.00341755 0.00600617 -0.0116036 -0.00172597 0.00627193 -0.0141637 -0.00149258 0.00599567 
-0.0126782 -6.66861e-05 0.00599714 -0.00857768 0.000418497 0.00601199 -0.00973093 -0.00690417 0.00599841 
-0.0135934 -0.00508213 0.00599761 -0.012184 -0.00362042 0.00600162 -0.0116116 -0.0055177 0.00627201 
-0.0100281 -0.00294763 0.00619814 -0.00969333 -0.00490904 0.00605813 -0.0155802 -0.00543997 0.00600154 
-0.0143985 0.000235651 0.00696446 -0.000788212 -0.00713978 0.0066906 -0.00153251 -0.00541311 0.00599848 
-0.00285538 -0.0038753 0.00599932 -0.00490654 -0.00268516 0.00599954 -0.00308392 -0.00186779 0.00599749 
-0.00676885 -0.000512654 0.00599821 -0.00814286 -0.00365606 0.00600015 -0.00772999 -0.00681619 0.00600516 
-0.00320033 -0.00651645 0.00600293 -0.00559084 -0.00676227 0.00600476 -0.00670393 -0.00509622 0.00606964 
-0.00450553 -0.00500417 0.00599858 -0.00560399 -0.00400077 0.00733111 -0.00675896 -0.00238585 0.0066888 
-0.00457033 -0.00100388 0.00702526 -0.00271276 -0.000126338 0.00690363 0.00441551 -0.00749909 0.0059991 
0.00823303 -0.00259679 0.00600049 0.00283662 -0.000151912 0.00599859 0.00610212 0.000294217 0.00599837 
0.00717893 -0.00481981 0.00600234 0.00373546 -0.00285004 0.00599888 0.00628468 -0.00215453 0.0060022 
0.00461718 -0.0010561 0.00600252 0.00618537 -0.00655436 0.00605008 0.000750083 -0.00592069 0.00599862 
0.00252935 -0.00682837 0.00600039 0.00352576 -0.00484052 0.00600096 0.00535226 -0.00402018 0.00613732 
0.00913022 -0.00438066 0.00599744 0.0102277 -0.00270875 0.00602915 0.013201 -0.00453935 0.00612801 
0.0164202 -0.00639801 0.00600083 0.0122407 -0.00628995 0.0059966 0.0122237 -0.00279829 0.00600065 
0.0151979 -0.00453954 0.00601203 0.0142704 -0.00274807 0.00599811 0.00923779 -0.000806977 0.00600043 
0.0151244 -0.000939433 0.00599878 0.0112764 -0.00100795 0.00599986 0.0164289 0.000575154 0.00599785 
0.0135992 0.000759291 0.00600795 0.0142393 -0.00629284 0.00606835 0.0111346 -0.00451549 0.00605029 
0.0163304 -0.0028923 0.00599964 0.0132025 -0.0011328 0.00651958 0.0227475 -0.00724855 0.00606984 
0.0170742 -0.00460743 0.00671413 0.0183739 -0.00595483 0.00600464 0.0233675 -0.00497956 0.00600492 
0.0223024 -0.00271779 0.0059995 0.0238537 -0.00146013 0.00600644 0.0210957 -0.00611895 0.00599901 
0.0198221 -0.00457953 0.00600017 0.0183299 -0.00293934 0.00599861 0.0203056 -0.00264195 0.00599923 
0.0173708 -0.00118585 0.00600529 0.0221227 -0.000458536 0.00599853 0.0238536 0.000539561 0.00599901 
0.0216451 -0.00439956 0.00685507 0.0193371 -0.000869317 0.00617585 0.0206012 0.00053327 0.00683168 
-0.0238549 0.0016481 0.00599806 -0.0179091 0.00102394 0.00599999 -0.0207771 0.00145954 0.00599334 
-0.0222336 0.00281573 0.00601401 -0.0234661 0.00437838 0.00599753 -0.0182902 0.00439935 0.00599674 
-0.0230314 0.0063249 0.00601603 -0.0206525 0.00719626 0.00599767 -0.0191456 0.00259796 0.00601045 
-0.0203059 0.00423711 0.00600007 -0.0188628 0.00631176 0.00600126 -0.0169225 0.00679443 0.00601291 
-0.0182393 0.00805766 0.00683393 -0.022475 0.00823951 0.00599602 -0.0169599 0.00288479 0.00600504 
-0.0219114 0.00446539 0.00724152 -0.0159151 0.00113905 0.00601772 -0.0148133 0.00603062 0.00600393 
-0.0104599 0.00749483 0.00599765 -0.0107212 0.00192497 0.00599828 -0.0144726 0.00406954 0.00599604 
-0.0124401 0.0029379 0.00599758 -0.00891811 0.0044165 0.00600497 -0.0125755 0.00505385 0.00599894 
-0.00878574 0.00240962 0.0060033 -0.014223 0.00213005 0.00636773 -0.0163592 0.00480367 0.00626803 
-0.0106094 0.00550594 0.00599789 -0.0112713 0.00404165 0.00717406 -0.0131042 0.0070516 0.00599958 
-0.0153009 0.00796623 0.00599921 -0.00882745 0.00833596 0.00677695 -0.00886246 0.0063703 0.00643057 
-0.00110863 0.00065083 0.00599919 -0.00503569 0.000649455 0.00599853 -0.00511171 0.00323276 0.00600344 
-0.00511699 0.00560897 0.00599974 -0.00290756 0.00173589 0.00600379 -0.0071164 0.00550221 0.00599829 
-0.00296204 0.00693251 0.00599831 -0.00509998 0.00760926 0.00600722 -0.000779073 0.00281088 0.00599925 
-0.000688431 0.00485825 0.00600304 -0.00688484 0.00148511 0.00600949 -0.00323264 0.00391279 0.00599898 
-0.00709641 0.00347331 0.00599716 -0.00145303 0.00825622 0.00599856 -0.00244299 0.00536376 0.00711993 
0.00805297 0.00084192 0.00599856 0.00111248 0.00085747 0.00599913 -0.000105719 0.00677918 0.00600187 
0.00797553 0.00287042 0.00602163 0.00668468 0.00471321 0.00600086 0.00131556 0.00360255 0.00599909 
0.00479922 0.00404806 0.00599958 0.00601845 0.00246358 0.00600082 0.00271905 0.00211079 0.005999 
0.00729876 0.00680157 0.00599668 0.00167393 0.00587724 0.00599689 0.00341897 0.00708948 0.00599781 
0.00581107 0.00813308 0.00599879 0.00158205 0.00787263 0.00599993 0.00533866 0.0061902 0.0059999 
0.00297001 0.00451095 0.00665649 0.00447172 0.0013165 0.00653797 0.0114954 0.00097961 0.00599757 
[...]
POINT_DATA 5997
FIELD FieldData 7
id 1 5997 int
76 2883 3787 2414 5898 4831 1289 544 5426 
5644 3574 5710 5135 5190 3177 4779 5430 346 
4817 2521 3012 599 290 395 3901 2748 2371 
5583 3319 2153 2963 1682 310 4683 883 3199 
3602 3925 5018 4613 4801 920 273 1712 2300 
2351 4712 2996 1644 4857 4634 2597 145 4046 
2090 4932 784 1522 1757 684 1687 3226 3869 
6041 4806 265 5792 2359 2329 168 2189 2524 
3641 5677 5225 1060 1904 1054 4526 2966 6037 
1358 769 5540 5327 5132 3461 5089 1841 5247 
5712 5976 1596 4773 2338 1347 5219 6025 5029 
4428 2804 3723 1246 4154 1563 4547 1265 2072 
5456 4516 1828 1001 4642 431 53 4934 866 
1451 2158 4020 1597 366 5729 5226 3007 64 
5287 3285 3092 4588 48 3531 1241 4756 3032 
2115 4113 940 1384 4058 4909 1810 2364 5685 
884 5716 5781 3183 520 1494 4987 258 2805 
3790 3221 80 430 2059 3533 1480 2477 3644 
2178 2561 213 4393 5286 40 2421 972 4496 
5087 1532 3217 4748 2643 3357 1669 3501 2044 
584 690 4305 11 5691 3642 1394 6056 349 
1676 182 4208 2830 2451 3880 4241 3970 3130 
3161 1058 5187 4949 3555 4346 4369 3814 1926 
864 3142 1170 4295 1498 922 3070 3714 4759 
767 4175 699 5384 2917 3051 4702 2120 5326 
4722 2142 1244 464 701 4763 1686 2728 4799 
1376 2226 4579 4003 5323 1461 5526 1021 3211 
5206 3427 5871 2587 5632 473 3103 1429 5468 
4284 4168 705 1389 3397 3405 5971 2177 2949 
1680 4314 6023 1632 3693 1552 5602 5466 2434 
1709 5280 5245 2529 4569 1050 5444 5650 2827 
381 1559 3685 482 2017 1107 3785 897 3496 
4165 531 5557 3806 5574 1853 4025 4387 316 
5788 4286 5688 732 2322 5082 3055 3713 2215 
1878 3753 5406 1438 5147 3519 5699 2259 8 
4263 3231 3280 4915 122 446 4828 602 1075 
2012 1369 2411 629 4942 4247 5570 6050 2511 
4878 1360 3113 3126 3738 3966 5809 307 3514 
4700 1161 4159 435 2029 1149 2148 1293 2025 
5934 5607 384 1866 5489 161 3938 1748 5550 
2110 3956 334 5308 755 3389 2452 229 2054 
4666 4169 3203 1972 4042 5054 5249 1959 4405 
2704 688 4692 3022 1767 4564 4847 2166 1152 
6003 3567 319 1769 140 2066 747 4222 1428 
4663 2390 4534 2858 2051 2865 2536 3878 1574 
1412 90 445 5007 779 4005 4105 1028 635 
2809 5869 3097 407 2280 4427 2939 806 1226 
371 849 4972 1 194 2107 3795 908 3362 
483 764 907 3549 4011 4654 3274 4176 2007 
5189 2472 2633 3653 1370 5517 1159 2812 3401 
1887 2807 5573 3382 4527 4673 4653 1898 1182 
2431 308 934 1759 2004 1088 4430 5680 5813 
5285 5654 1104 4860 3872 351 1897 359 2545 
5170 2473 4429 2394 5270 4211 5544 2826 3627 
3312 3425 1784 1271 4062 2151 5808 4641 2217 
2167 5571 3973 3910 1556 5541 5304 1479 927 
3201 3744 131 709 4064 5481 5819 3917 2912 
4833 5678 5905 1032 1172 2264 3492 5163 4726 
227 1931 1765 3489 1864 1497 3059 4962 3467 
77 3764 3821 5419 952 1842 1007 4054 3749 
3839 1165 5585 4697 1100 862 2093 4315 403 
318 3104 3848 4371 1402 3238 1440 186 3888 
2471 5720 6 2031 857 4034 824 1073 2731 
6042 4811 4781 299 1551 3712 136 5131 2497 
626 1780 2340 4036 4221 3160 1691 692 2353 
363 2647 412 585 167 93 892 324 1598 
5425 432 5096 2737 6062 3019 2705 1953 6002 
2164 2489 4039 896 1921 3371 2270 2925 1233 
931 1920 5594 4214 1756 5508 5104 2256 5331 
5123 5492 1575 2501 5743 283 2258 3127 2457 
232 4961 5645 3481 1602 3086 368 661 3220 
2358 501 1940 3141 241 1130 1252 910 1571 
1410 3941 4359 937 2799 1880 4912 2570 189 
5333 4936 2088 3728 2378 3194 5372 4937 5038 
6066 78 4649 58 5663 4409 245 207 2841 
1699 4452 3882 313 2655 1272 2676 1888 4466 
506 1206 4706 2672 4274 2000 5022 4784 3708 
1879 4652 2081 582 751 1723 3398 2661 5692 
822 3116 3526 798 448 2022 4665 2788 4929 
1945 2581 5166 2895 4995 3902 825 5148 1859 
2906 5542 1309 3673 3759 489 456 2985 107 
1327 4313 677 512 274 5313 4563 5145 5267 
4782 1894 4218 1839 3363 1631 2067 1799 3436 
246 2527 5162 1566 630 5077 758 5078 2927 
1968 1437 913 478 4747 976 4088 518 1129 
4772 5802 69 6070 5039 2642 1578 715 447 
788 3151 413 2202 230 3052 527 4621 6061 
3412 3722 4822 1802 5100 3710 3692 1760 490 
2195 2680 3724 5816 4037 2890 4364 895 3120 
3039 753 3579 983 4150 1471 3871 5058 3955 
5646 2478 4396 2842 4890 1531 3424 3613 5475 
3562 1717 875 5945 111 2463 4504 5350 1349 
1553 3407 4347 5798 2787 3315 3162 5564 2320 
3604 6014 4704 775 1326 2967 565 275 1585 
1009 4873 3832 4419 3992 3306 1163 5777 2924 
957 5469 2251 4441 3854 5631 2442 2567 1174 
5597 645 1195 427 2750 1144 2864 3766 3916 
4835 5309 5759 1516 5741 2341 3440 2197 4408 
2887 4156 819 3437 5494 4698 5265 5529 2591 
1615 5214 4643 578 5383 2825 4969 5401 879 
3025 3718 5681 4573 3504 474 594 3136 1656 
2675 2247 3520 2468 3234 4786 5855 1764 808 
4851 4193 5930 2562 3720 961 2846 2978 4395 
3895 2876 4709 2116 3346 425 1064 5246 669 
5149 739 151 5019 3455 1303 614 713 5521 
2569 2914 5482 2092 1138 3773 2112 105 5451 
2557 2006 3582 5157 1470 3709 5395 1022 3046 
5072 1840 3511 2743 1110 5766 2344 4765 5067 
2114 2543 5341 5630 5923 2285 3754 4426 1826 
5180 1052 4106 5306 477 3214 4050 805 4795 
3608 129 5912 988 938 652 4030 4167 5073 
2297 3108 38 5044 2417 4650 37 746 6031 
4493 5271 4660 5447 2212 5857 2480 5009 1651 
5689 3232 2099 5593 2923 3297 4990 3139 4163 
4152 2346 4061 2794 5153 1901 1146 5601 725 
5652 2578 1255 5784 5345 3202 2810 1783 3603 
2037 13 1114 1817 5536 2898 2374 1536 2975 
383 5228 3986 3148 5097 3805 2836 3298 5683 
2253 3077 1118 2770 3293 469 1256 4814 282 
3733 5774 6019 3927 2345 5970 891 5143 5317 
5850 675 4945 2959 3283 604 467 1239 1619 
4906 4079 1732 4889 3521 416 3537 5701 73 
2035 1119 5518 700 5138 4013 1401 1317 1787 
5911 4407 576 541 5261 2909 5621 3792 1318 
3614 1282 3360 2703 5338 1234 1284 3369 2617 
3863 2415 3353 5178 535 2188 4071 1824 1684 
4224 3572 139 3939 3169 4674 1419 1668 5620 
2493 159 6028 287 3143 4470 1722 2075 3536 
148 2171 1981 1692 5458 707 3367 683 113 
2599 2159 3457 295 4115 3219 3846 2683 5703 
4462 279 2252 5738 1861 3702 5242 3931 1918 
3624 2133 3964 5595 3323 1771 3100 5591 4891 
1257 5464 5011 3155 1609 14 1500 488 1729 
5863 2579 1862 1176 4776 1247 3930 5980 601 
1749 3181 479 1444 984 2184 198 1136 4391 
2609 4921 244 5548 663 2641 2664 4836 6032 
5059 3154 4362 5186 236 5400 2718 5213 3168 
3937 1319 3328 2449 944 538 617 2635 1070 
5697 5330 3735 5155 872 1949 3235 902 2043 
2124 1530 4026 116 1950 4896 1071 5259 726 
1733 2784 4174 625 1462 1849 3021 306 1312 
5140 1546 2689 5292 1307 708 4201 4984 5893 
693 5348 2601 4846 1237 1653 637 5356 1433 
1210 4254 5836 4515 843 4348 6017 985 4480 
2243 4231 5605 220 5164 1984 2652 816 56 
1731 2627 155 1322 1775 1091 863 507 3263 
5789 2795 1150 4232 1654 4114 1706 377 3960 
3065 3060 5990 6009 250 1766 1213 5120 4143 
1123 4351 3844 3750 2980 4002 1382 5569 4491 
1179 4903 3630 4716 835 841 5088 1843 4718 
853 5616 1020 1109 5075 970 969 1078 4102 
5948 1533 3327 5535 1586 5778 2145 2495 2659 
4684 4529 357 3420 5929 593 149 1359 3544 
911 3131 1142 2248 4964 2496 3014 4484 1582 
4483 4661 3553 2843 639 4142 1781 3356 5633 
4349 4512 537 1538 118 2026 1696 2350 2476 
3980 262 2286 201 61 5507 5252 5002 4379 
5217 548 660 2266 1835 1298 4894 101 2691 
1650 1823 2634 3179 2572 2994 5453 1778 3325 
39 3990 402 2321 1008 4895 2230 1996 325 
3381 3287 2193 4119 2808 1034 3326 142 2729 
4293 834 1805 752 3320 813 3063 3922 5461 
1288 516 2863 3933 2314 1848 2334 4303 1112 
1827 4180 5987 2533 4925 2191 809 4583 4479 
1786 2141 1175 1348 423 3932 1422 2916 5193 
3991 4571 1411 4172 4594 595 2061 3114 5389 
2236 5179 2323 16 704 4714 4591 2168 2430 
4631 4160 1381 5668 3207 4078 4234 3416 3943 
2425 757 3506 1613 4917 4970 740 4826 3033 
5030 5337 2069 3967 4757 1178 5847 2102 3165 
2122 4019 2950 1442 4197 3807 3468 2002 1983 
4139 234 5000 5177 2027 3592 2767 4411 761 
2822 277 993 6034 807 3762 2764 2485 1611 
4771 4575 5273 4357 5649 5440 1708 3400 5742 
2970 3625 968 4095 3560 4226 2907 1449 1238 
3477 2509 5961 106 1703 2325 5513 2216 3706 
5613 3820 3569 4492 5156 3132 4943 4581 4914 
731 4153 1658 3307 2428 3392 3223 2435 5398 
1788 127 3944 1973 5779 1564 2176 5527 562 
5237 1545 3393 4839 5381 2550 4023 4939 5944 
3690 3302 5042 3968 5375 4794 104 1294 5433 
5431 5256 6052 4960 2908 4922 2209 1023 574 
3289 787 2981 1489 580 5111 1193 1041 691 
2573 1770 2861 750 2308 2205 2137 1202 2518 
1772 4783 1971 4059 4101 4130 4063 5334 621 
5315 2619 2551 5846 5651 2690 1758 981 1915 
3658 889 2505 5938 1375 3336 776 2700 1203 
5339 3645 5283 3149 1340 5511 4691 1777 5815 
4560 470 712 2640 1816 4705 5925 3666 2009 
5676 1577 4098 2372 4767 543 4559 4436 5204 
2928 4084 2198 4256 2162 3373 452 2663 3144 
2746 74 1132 1825 2590 5866 3529 4816 3018 
953 1139 1541 4104 5040 1362 2219 1371 5704 
1426 3094 5702 293 4609 1189 2484 4815 3294 
4618 3439 1400 606 2998 2856 971 1230 3636 
1642 2246 3935 5806 3663 3575 5606 2199 5982 
3040 1268 2395 3607 966 646 2776 2773 1157 
3684 4271 5448 1281 4117 3962 3093 3106 4410 
1365 4018 4562 2038 2900 1812 1791 3606 4499 
1037 203 2402 3089 267 1872 3896 2904 29 
4280 4257 1549 5027 1746 1208 848 1496 5278 
1409 4309 4546 2240 5718 2207 3452 4069 583 
2221 333 1995 1893 3446 4676 540 5880 2892 
4464 2968 1051 946 2847 3784 1662 2131 3343 
5626 4592 3679 55 4604 1395 5053 5207 3266 
5736 3513 3056 3344 3258 1988 1427 4412 1011 
4112 3583 5733 1025 210 3322 5753 558 5796 
3406 4824 2220 100 2492 4907 5122 5390 5897 
1970 2296 1393 1948 2267 5917 356 1475 2036 
620 4800 1875 4049 4927 2783 800 4230 4209 
4413 1622 1979 2368 150 379 5063 3815 4022 
41 3771 804 3675 3438 1338 5565 4680 546 
5113 491 2068 1140 5351 3434 225 5051 1768 
1173 5473 3049 5109 5910 5662 4708 4620 1561 
5416 5234 4065 4994 3361 2588 4632 2244 2844 
5408 1673 211 2183 5107 551 4519 5276 6007 
3422 4768 4638 3313 2878 2957 2104 3042 2460 
323 5805 1211 4269 1889 2947 5385 284 1128 
1061 1321 460 341 386 3023 4531 5986 3745 
3719 2382 1610 827 607 2479 5171 962 1900 
2999 3163 783 3210 4121 3610 590 1645 4746 
978 563 3339 671 1184 3988 4378 4736 3797 
3791 3347 1640 4489 5478 2101 196 3897 1932 
4450 4775 818 1042 2888 768 5737 579 382 
2615 2686 3485 1352 631 4204 1537 3599 123 
420 278 190 2055 3639 3276 4122 772 766 
1789 304 5580 5510 1963 5250 1903 4882 5125 
5791 2781 3377 1701 5221 4580 1957 748 328 
2180 3490 4646 2897 4403 4319 1469 5443 5973 
3087 5996 3587 3156 4788 711 3620 5752 1838 
5922 2464 3090 5775 5673 1795 3802 4077 1946 
4038 587 6043 5642 5382 5783 3778 1185 2486 
124 4656 4183 1490 4435 2125 4743 2724 5017 
2849 348 3091 5386 3674 5726 1111 4184 4590 
4141 4973 3559 5086 3819 5192 1379 1192 3198 
666 4870 3705 3005 2337 2621 3668 5402 3447 
4555 4733 4993 5558 3150 2229 1276 3324 3484 
2370 1595 2945 3760 1739 5210 364 347 1483 
4233 3473 1313 5581 5835 2973 5810 1055 5750 
3383 4742 5497 4223 523 43 5459 5988 4173 
865 180 2152 5538 408 2986 3043 4259 5715 
1869 2298 3772 2438 2127 4431 2097 5421 2278 
2531 1914 5366 5154 5941 1806 1753 5803 451 
5665 4454 903 1567 342 5876 832 802 1443 
3605 597 254 4762 2832 3175 5112 5682 3421 
2144 4015 1923 2119 4437 1287 3399 4032 130 
2146 2528 4796 888 5233 1693 2868 4406 674 
909 1453 803 410 5978 4670 2401 2147 991 
4667 3 86 5137 1721 2295 1666 2100 3789 
4216 718 737 3376 3448 5797 1125 1956 5437 
2446 1592 987 3170 4862 3134 5705 3330 1270 
1607 2129 5884 2467 5488 2565 1205 524 4138 
4887 2693 3824 5354 3254 3284 2604 4989 3671 
3981 5959 5368 2073 5176 5937 4343 1463 820 
358 3004 1186 3813 2046 4837 475 2870 4116 
3670 4264 443 5787 1212 659 2539 5035 5281 
534 1250 4886 1339 5914 2798 4376 5316 2851 
1638 3983 367 2498 4644 2937 2761 3695 3333 
4997 3316 885 1274 1464 4793 5119 4928 3510 
591 2938 4425 4076 4027 964 3222 5868 4845 
1145 611 2645 224 4513 2622 1332 391 1679 
1876 1891 2554 5829 1636 3736 2772 5364 2911 
2070 545 1705 722 4423 5319 4442 5079 1295 
1263 845 317 2559 1350 3987 3342 1048 3998 
4285 1521 838 4744 2196 831 2962 23 710 
1356 2695 5531 3704 632 1710 5666 1456 2058 
4125 5664 638 88 2658 1635 1383 4045 321 
4830 5412 2976 2206 2558 3591 4289 694 3239 
5611 3643 97 1346 3993 3247 1245 1689 1822 
1634 4060 886 252 4132 286 2991 3538 326 
2033 354 4093 5297 3300 4469 4342 1367 4606 
369 4739 5289 4335 365 1727 4910 4370 2089 
4055 5084 1928 5312 1337 3402 31 2778 850 
4657 3568 3317 2263 3474 4279 202 6044 2879 
2671 487 682 3756 2080 4498 5512 762 2387 
5476 3002 439 5060 1725 1264 3652 3765 3517 
935 782 1027 3386 4662 2954 5379 1929 1420 
1604 2386 2218 3204 5522 5491 3601 3908 1818 
4576 2204 2360 226 5495 1998 5587 2034 3725 
6015 3048 4834 1261 3178 2470 609 5782 330 
4123 1997 3588 4648 5065 3047 2952 2670 4420 
1121 5463 1057 3974 2948 4207 1168 1171 919 
4622 2400 2363 5445 52 2534 4363 5229 5539 
4933 3128 3836 3687 115 271 3158 1833 3096 
3885 5656 144 4595 3256 943 158 261 4461 
1330 2500 3189 613 4229 5115 3385 3523 2181 
1454 3999 4686 3580 34 3395 950 673 1751 
3505 4963 5311 5493 1906 3659 658 2656 5041 
6036 2490 505 3546 5586 1387 5501 1000 1514 
2896 3940 4282 49 1217 2389 503 5895 3348 
3286 4844 3044 2156 5995 2586 1792 3595 1465 
2047 1063 3180 3596 5627 2995 1386 3578 4377 
291 2030 3259 3391 2618 1016 1201 1372 5552 
4553 1015 3665 3078 1085 5238 2419 3570 2311 
5340 5236 4001 5619 2412 915 2821 6024 2118 
2717 4946 5786 2173 3770 4876 3651 4968 2319 
2653 996 1576 3661 2833 5321 3780 1026 3647 
458 5393 4587 894 1240 3200 1154 686 3110 
376 5989 4738 2516 5532 4707 3586 3279 3159 
5927 1065 5826 419 4016 4802 941 5235 667 
1455 2393 1509 5608 3686 4612 1730 5047 3697 
5263 1260 1077 5023 2045 4899 3502 4008 1476 
955 5211 4645 5566 5909 898 1960 5943 288 
789 1279 4859 3721 829 3240 4447 185 5307 
2261 4805 1648 4617 749 3109 4983 497 5296 
4582 424 3727 5936 2760 1641 1143 847 3225 
3809 2979 3823 4974 1472 2309 1278 3798 2515 
5749 5516 1633 1702 3628 4710 3530 1694 4841 
2714 4273 3064 4414 2293 5765 2231 5698 4007 
2491 3462 1508 1343 3678 2933 5290 5655 2790 
3615 4082 1473 4998 305 3318 3621 429 5859 
1368 47 3396 4695 4655 2576 2837 4033 4497 
375 3037 3071 5091 517 5981 2487 3818 2891 
3351 4190 5262 166 500 5891 300 5373 560 
3041 4356 5935 2755 4584 3638 1857 2592 5003 
1164 3192 3611 18 5537 1191 5638 3635 25 
5130 2380 3164 2697 948 2758 2877 1105 1421 
2882 3594 1846 4982 2003 1215 792 5964 3354 
5877 2287 3779 4853 4926 4134 5865 3242 605 
5958 223 4760 2349 1661 45 618 3099 4432 
2548 3335 5069 1854 1821 1681 5175 3729 5647 
4091 5169 2042 6012 3961 5725 2972 2149 5090 
1430 4715 216 9 2620 3585 1628 3701 662 
4703 4446 2823 3893 1511 4490 2625 4308 2623 
4219 600 3577 530 5824 3270 3368 5555 1224 
5021 1675 4205 170 3013 1930 3119 4255 1831 
3125 249 1909 6047 759 3133 3115 3600 3241 
1364 1844 2465 4605 2260 1197 4151 165 3949 
417 4366 1221 134 1405 4225 588 2354 6021 
5342 4820 3408 2506 28 3852 471 5854 4249 
217 5239 2399 5724 5106 4090 5045 5559 1678 
2355 1404 5604 4215 1043 2513 2744 2566 3894 
4017 3255 791 1969 3887 2519 2745 3660 3265 
2542 3370 5772 3677 5215 5500 956 4292 2157 
917 509 1249 2379 3191 4404 2899 3185 3566 
455 5216 2439 3571 5740 5136 742 3554 2327 
5046 5248 1667 3423 5423 3539 4616 4892 1131 
1188 2126 4468 3545 4900 2365 4624 1398 3030 
3111 4398 1569 4339 3372 5818 191 1672 1302 
959 2499 4999 2629 4074 4086 132 1659 4502 
2650 2848 4317 5878 5770 3879 5780 2903 745 
2050 2098 2462 3228 899 5462 1917 3827 171 
4162 3166 4196 815 647 5094 5556 2606 5760 
1568 636 5890 4623 4200 5940 5374 735 4135 
3829 1952 4798 2255 5227 5457 5347 3174 2624 
5674 5825 3799 2684 388 1334 4355 2965 1450 
5952 12 1207 1865 5939 3188 4304 1899 5670 
2333 153 3253 3951 930 2673 2160 4424 3321 
4296 380 664 4244 5514 4979 2605 1803 4568 
1153 4717 179 1286 1413 3716 2483 5336 592 
1814 2185 2335 5291 4041 2752 2194 243 5954 
6058 3851 3995 3842 4823 5658 1306 3598 2678 
5031 5258 2062 3246 2782 2636 1448 5274 2086 
1030 10 2958 785 743 1649 2756 3444 3581 
1486 4110 561 1345 5043 4246 1558 4220 3140 
4935 939 555 4081 1097 680 1232 3430 3648 
5503 5672 3441 1084 5010 4614 374 4681 436 
1248 1458 2644 1187 1743 5837 4361 4693 5505 
4494 177 322 3524 1936 3443 3698 5062 5092 
3292 4849 4898 4250 877 1039 5900 3024 5767 
965 5070 1855 2806 3084 268 5610 2192 480 
4678 3688 4880 1076 1277 1079 3244 5102 5244 
1406 4875 4188 1819 4248 2722 1115 4737 5480 
5184 4311 3486 1147 586 4278 2225 2789 108 
5405 434 550 741 2651 3669 4164 3664 3435 
1704 778 6029 1005 5979 2894 1594 162 1834 
3786 4331 1220 1399 3309 4843 2747 1416 1539 
4904 2063 1029 3472 4057 4947 2757 1275 2956 
1524 1056 1882 2032 5151 5071 1439 5915 575 
68 2768 1417 1251 5295 1506 1229 4953 2682 
3777 4511 3781 821 231 4237 3390 1467 945 
2774 1939 5367 905 1183 4951 5785 3010 3197 
2284 1436 4549 2443 6018 5951 1328 3751 4299 
2422 5700 3858 3746 5515 5795 3428 3541 619 
5841 221 3920 3954 3303 3491 1305 4100 887 
2076 763 4871 836 2396 5972 5969 5949 4766 
4694 4552 990 2504 2935 5103 4147 112 4996 
1977 2715 4206 5913 4350 3945 3224 4434 3946 
5719 493 3850 2232 1851 856 5414 3101 3122 
5754 4166 3730 4503 2990 1745 2921 3662 3616 
2024 4520 5134 6049 5434 2444 4266 6033 1685 
4863 5874 197 4548 873 6039 2136 331 1674 
1301 2753 1374 2780 4729 3001 2015 2458 4268 
702 272 137 2271 2734 5396 152 5026 4171 
878 2537 3761 1986 1094 3429 4626 4009 532 
5460 3656 5801 5707 5576 4439 3095 343 1639 
4181 3167 4685 5346 4810 5926 2540 3277 1562 
5588 2510 4144 3590 3747 1341 3112 3208 851 
839 4521 5534 5230 2960 260 5275 3915 5545 
3508 85 2713 5525 4965 697 4637 60 393 
1528 3493 5761 2356 1591 5411 3314 5524 1311 
4533 826 3355 2712 119 2461 5862 4354 2600 
1014 4399 5994 1227 87 997 2190 890 3282 
5919 633 4460 3875 1637 3881 1481 3209 4669 
4238 3450 1804 4458 442 2648 4893 360 4323 
4528 2459 1012 4734 1432 1047 4051 3334 744 
181 4330 4585 1209 2984 1194 5622 5947 4808 
3121 222 6040 3186 771 4785 1485 4971 5769 
1336 1431 4148 4416 1755 5832 5314 810 4129 
1938 5025 1584 4827 1856 3182 2440 3853 5744 
1581 2871 1700 4080 2919 870 4052 2538 1664 
2056 2373 577 495 4537 760 1385 3834 2816 
1024 1235 4954 4191 1492 628 156 1860 1886 
2488 2277 3478 2983 1003 22 5690 5849 502 
1590 2466 3248 552 5827 361 1985 298 1736 
92 4202 3985 1713 4338 4944 4601 428 3301 
3774 2048 2343 3020 837 876 5108 4186 1555 
1829 1388 4137 2052 5625 2667 2969 2779 3153 
1324 5160 3942 5820 4525 554 4636 3503 678 
2517 5885 3707 3864 514 175 4668 3275 3403 
5083 1089 882 2407 1517 2873 2707 2775 4474 
2140 3742 3589 4272 4888 2018 1006 2811 1160 
4541 5721 459 730 3124 4267 1501 2424 3017 
2765 5429 1735 1487 4535 3748 5376 1445 3088 
4651 3195 1474 174 378 4629 1543 6022 314 
4336 1548 2273 1090 4421 2824 5728 4352 4199 
4864 1222 2936 4938 5231 2741 2905 1809 3811 
995 1570 2730 466 5983 5628 2494 3008 3584 
5641 3105 2049 5427 854 3216 3035 4532 5240 
6060 5667 5472 5353 2391 5931 2432 2083 5708 
3808 5756 1355 46 640 869 5751 4302 4858 
5436 465 616 5118 3237 1199 4607 648 4807 
5188 3494 3497 3413 4908 5823 4975 5202 3245 
932 1072 5590 2725 2828 1910 916 1504 1740 
1630 3752 17 3337 4070 1503 1935 110 2453 
4047 860 2306 729 2829 4565 3480 1259 3522 
3767 3212 2307 4611 5563 3905 4598 5324 936 
218 1162 5012 4967 4647 5232 698 1466 3825 
457 1858 2289 1652 1415 4976 3359 2330 1907 
6011 5653 5814 2366 4260 3838 3432 5399 3003 
5896 5894 4615 2413 4992 1204 1460 1403 2541 
1200 811 4258 5101 3495 4752 397 6004 4334 
1763 1098 3267 1884 5679 2423 2235 1885 3145 
859 3062 3667 5861 696 3009 4872 589 3633 
3184 1925 1808 3859 881 2200 906 5546 5404 
3919 5966 3453 411 3857 2918 2276 370 774 
5856 4764 2384 4659 2420 4639 3906 5807 2574 
923 1965 3963 2862 4505 781 2381 1323 2961 
553 2719 2161 1911 462 2139 5479 67 406 
2657 2441 62 1044 3366 1987 2989 50 3340 
2436 5305 3609 2241 1752 1512 5879 2010 1728 
3026 4043 2227 5860 1927 133 5129 3469 4325 
4374 498 178 4931 4300 5191 3680 5771 4072 
650 2902 5198 5446 1353 4198 5195 5960 5600 
900 1314 1773 4868 643 4329 2014 5582 3873 
3911 3080 3518 2406 1714 5843 3548 1378 4252 
5015 5181 3565 3358 114 5152 3743 3816 2997 
1625 5892 2552 4540 3732 3471 6016 2211 1616 
499 4179 4463 3547 3958 5844 2727 5709 511 