# vtk DataFile Version 4.2
Generated by LIGGGHTS
ASCII
DATASET POLYDATA
POINTS 5997 float
-0.0166213 -0.016982 0.00599989 -0.0134753 -0.0196857 0.0059988 -0.01148 -0.0210354 0.00599923 
-0.00983545 -0.0181516 0.0059955 -0.0152086 -0.0185094 0.00601013 -0.00834252 -0.0202665 0.00601274 
-0.0103322 -0.0197778 0.00704159 -0.0134573 -0.0176477 0.00653702 -0.0117629 -0.0186629 0.00610103 
-0.00953274 -0.0217673 0.00661986 -0.00281949 -0.0185177 0.00599909 -0.00776317 -0.0225866 0.00599568 
-0.00130351 -0.0239584 0.00599685 -0.00722961 -0.0185811 0.0059989 -0.00643817 -0.0212571 0.00667177 
-0.00583395 -0.0231355 0.00607981 -0.00521048 -0.0198362 0.00599581 -0.00368036 -0.0233655 0.00599678 
-0.00432916 -0.0215496 0.00652752 -0.00229117 -0.0216143 0.00600077 -0.00403514 -0.0169043 0.00601832 
-0.000580677 -0.020131 0.00602604 0.000684229 -0.0238533 0.00613401 -0.000730489 -0.0181228 0.00601835 
-0.00613352 -0.0169105 0.00599531 -0.00806758 -0.0166474 0.00651703 0.000569801 -0.0218637 0.00599564 
0.00267113 -0.0237055 0.00600281 0.00405443 -0.0197238 0.0059957 0.00495555 -0.0179084 0.00602249 
0.00262998 -0.0178431 0.0059981 0.00716821 -0.0168673 0.00599746 0.00317741 -0.0217717 0.0059993 
0.00514752 -0.021426 0.00602533 0.00463622 -0.0234699 0.00628178 0.00654166 -0.0229409 0.00600063 
0.00740312 -0.0198949 0.00599602 0.00677711 -0.0213598 0.00720011 0.00657297 -0.0184389 0.00707603 
0.00846561 -0.0224036 0.00601103 0.00875835 -0.0207906 0.00715281 0.00860162 -0.0183209 0.00633409 
0.00106952 -0.016587 0.00599967 0.0102711 -0.0215515 0.00600153 0.014287 -0.0192424 0.00600051 
0.0103606 -0.0196601 0.00665089 0.0121074 -0.0205809 0.00599813 0.0123937 -0.0186027 0.0059986 
0.0105355 -0.0177759 0.00600288 0.0158828 -0.0179349 0.00621658 0.0140136 -0.0172627 0.00600785 
0.0121575 -0.0166711 0.00644904 0.0172576 -0.0165004 0.00599847 -0.0212953 -0.0108308 0.00603111 
-0.0176178 -0.0133068 0.00602698 -0.0196991 -0.0135233 0.00608158 -0.0180932 -0.0155792 0.00600951 
-0.0192798 -0.0115327 0.0060064 -0.0199737 -0.00953735 0.00688578 -0.0221719 -0.00902311 0.00600902 
-0.0185147 -0.00795819 0.00600056 -0.0205185 -0.00783228 0.00599897 -0.0144693 -0.0157964 0.00601658 
-0.0103062 -0.013422 0.00600621 -0.0135429 -0.0135364 0.00600061 -0.00941934 -0.0116227 0.00600058 
-0.0155446 -0.013354 0.00600197 -0.0119272 -0.0164705 0.00599915 -0.0133838 -0.0113931 0.00601097 
-0.0113307 -0.0110369 0.00599729 -0.0099544 -0.0161552 0.00601766 -0.0118872 -0.0144921 0.00659363 
-0.008574 -0.0147033 0.00612292 -0.0103187 -0.00933624 0.00624915 -0.0162485 -0.0151206 0.00663204 
-0.0134394 -0.00900993 0.00600327 -0.00841821 -0.00993299 0.00639003 -0.00783705 -0.0128501 0.00600623 
-0.000930407 -0.0158457 0.00599859 -0.00448462 -0.0149414 0.00599852 -0.00252054 -0.0114702 0.00625086 
-0.00521051 -0.0126648 0.00614428 -0.00685182 -0.0111109 0.00599694 -0.00263097 -0.0150575 0.00673942 
-0.00642698 -0.014278 0.00599702 -0.00328551 -0.0133021 0.00600015 -0.00126666 -0.0137991 0.00600021 
-0.00483175 -0.0106284 0.00609127 -0.000463185 -0.0119713 0.00599825 -0.0031172 -0.0095756 0.00601172 
-0.00665473 -0.00907041 0.00601684 -0.00476452 -0.00842284 0.00600292 0.000561788 -0.0145519 0.0062928 
0.00440343 -0.0139826 0.00599668 0.00253249 -0.0146809 0.00599868 0.00303796 -0.0125233 0.00600063 
0.00561853 -0.0159066 0.00681536 0.00353828 -0.0105884 0.00599946 0.00555146 -0.0104682 0.00599967 
0.00692884 -0.0143518 0.00601412 0.00382494 -0.0162417 0.00600089 0.00121083 -0.0127293 0.00678148 
0.00573418 -0.0124698 0.00620893 0.00155023 -0.010878 0.00600396 0.00737278 -0.00964123 0.00599761 
0.00199119 -0.00883754 0.00603013 0.00813298 -0.0116011 0.00600679 0.00398608 -0.00864161 0.00599721 
0.00597226 -0.00821267 0.00599868 0.00910433 -0.0163805 0.0060885 0.0107796 -0.015299 0.00599444 
0.0106524 -0.0132994 0.00599902 0.0134518 -0.0151829 0.00599856 0.0140791 -0.0128219 0.00599431 
0.0122559 -0.011822 0.00599925 0.00931192 -0.00915527 0.00600062 0.0153577 -0.015786 0.00599739 
0.0161871 -0.00957926 0.00599752 0.00898233 -0.0143552 0.00631445 0.0124534 -0.0136452 0.00679341 
0.0147226 -0.010936 0.00599985 0.00992565 -0.0117331 0.00701441 0.0109517 -0.0103062 0.00600185 
0.0129429 -0.0100515 0.00662282 0.0159634 -0.0134685 0.00600338 0.012269 -0.00828015 0.00599762 
0.0143355 -0.00875029 0.00599675 0.0168839 -0.0114869 0.00600272 0.0167647 -0.0149176 0.00711526 
0.0179408 -0.0132082 0.00599837 0.0191088 -0.0115926 0.00600242 0.0181677 -0.00983367 0.00599705 
0.0205301 -0.0100196 0.00600226 0.0185986 -0.0150589 0.00634364 0.0197793 -0.0134329 0.00677662 
0.0208839 -0.0117697 0.00689998 0.0221949 -0.00891736 0.00599912 0.0194712 -0.0083257 0.00599933 
0.0175116 -0.00791622 0.00600135 -0.020041 -0.00560081 0.00599812 -0.0180612 -0.0053497 0.0059983 
-0.0218766 -0.00305745 0.00600472 -0.0230428 -0.00627354 0.00600152 -0.0217652 -0.00491793 0.00673698 
-0.0172424 -0.0035302 0.0059989 -0.0193567 -0.00371266 0.00601076 -0.0234924 -0.00423741 0.00599934 
-0.0199992 -0.00206974 0.00696057 -0.0238538 -0.00227203 0.00600088 -0.0182662 -0.00181649 0.00599957 
-0.0214579 -0.00110073 0.00599852 -0.0238543 -0.000274565 0.00600063 -0.0196099 -0.000335895 0.00600009 
-0.017628 7.49215e-05 0.00599733 -0.0168607 -0.0068846 0.00642639 -0.0149925 -0.00744735 0.00599895 
-0.0104648 -0.00736087 0.00599794 -0.0116672 -0.00573585 0.00600121 -0.012059 -0.00376601 0.00600635 
-0.0130827 -0.00707211 0.00644524 -0.0137621 -0.00524351 0.00599876 -0.0100553 -0.00455706 0.00599916 
-0.0159603 -0.00506084 0.0060064 -0.0089758 -0.00621295 0.00667301 -0.00961998 -0.00260844 0.006002 
-0.015282 -0.0031415 0.00600799 -0.0115554 -0.00183115 0.00605418 -0.0134364 -0.00241204 0.00654949 
-0.00883061 -0.000774634 0.00599724 -0.0163062 -0.0014233 0.00599772 -0.0144204 -0.000757674 0.00600113 
-0.0126031 -0.000169106 0.0065923 -0.0106722 -9.19979e-07 0.00599946 -0.00839975 -0.00394365 0.00693261 
-0.00833273 -0.00797818 0.0059965 -0.00462962 -0.00642846 0.00599958 -0.005906 -0.00340581 0.00600302 
-0.00297062 -0.00757 0.00623349 -0.00653977 -0.0070746 0.00599794 -0.00692207 -0.00511831 0.00618312 
-0.00394055 -0.00378034 0.00599914 -0.00296958 -0.00544745 0.00652559 -0.00127613 -0.00453058 0.00599699 
-0.00762129 -0.00236566 0.00599667 -0.00463831 -0.00206596 0.00679804 -0.00279966 -0.00213897 0.00599997 
-0.00685203 -0.000526478 0.00599825 -0.000795166 -0.00220322 0.00601969 -0.00487932 -0.000244906 0.00600092 
-0.00125162 -0.00654527 0.00601353 -0.00184398 -0.000384468 0.00599936 0.00789169 -0.00773183 0.00628352 
0.00397388 -0.00533925 0.00599799 0.00261144 -0.00387759 0.00599598 0.00470886 -0.00347545 0.00599918 
0.00133589 -0.00197318 0.00599549 0.00333187 -0.00201774 0.00599692 0.000723394 -0.00727257 0.00599303 
0.00156739 -0.00552004 0.00641484 0.00285395 -0.00699343 0.00599945 0.00581874 -0.00621957 0.00599927 
0.00059225 -0.00382648 0.00600507 0.00641727 -0.00438363 0.00650681 0.00701708 -0.00254752 0.00600141 
0.00777808 -0.00575649 0.00599982 0.00541722 -0.00129756 0.00609317 0.000150852 -0.000367189 0.0060002 
0.00458502 -0.00719178 0.0072318 0.00213662 -0.000142602 0.00600826 0.00759669 -0.000638306 0.0059965 
0.00409802 0.000231745 0.0059988 0.00840288 -0.00390171 0.00648917 0.0117905 -0.0060343 0.0059997 
0.0104318 -0.00749951 0.00599738 0.0100619 -0.0049164 0.00599865 0.0136785 -0.00686667 0.00599919 
0.0134281 -0.00488866 0.00599729 0.0130729 -0.00292763 0.00599894 0.0162991 -0.00205395 0.00599632 
0.0144018 -0.00144038 0.00599917 0.0115679 -0.0016175 0.00599834 0.0156354 -0.00724055 0.00615811 
0.0149337 -0.00358205 0.00632703 0.0150464 -0.00545371 0.00701643 0.0117416 -0.00420616 0.00681679 
0.00978194 -0.00251371 0.00600072 0.0157598 0.00010839 0.00600101 0.00958455 -0.000439161 0.00601447 
0.0211121 -0.00734441 0.00657593 0.0168664 -0.00396763 0.00599911 0.0171494 -0.00594676 0.00599927 
0.0232856 -0.00542763 0.00599821 0.0188073 -0.00443263 0.00599992 0.0205975 -0.00354981 0.00599745 
0.0236807 -0.0034716 0.00599837 0.0221084 -0.00224474 0.00599845 0.0200384 -0.00163601 0.00599713 
0.0193526 -0.00634278 0.00616847 0.0212505 -0.00543704 0.00600297 0.0229173 -0.00688487 0.007309 
0.0182428 -0.00250397 0.00599803 0.023856 -0.00176211 0.00701378 0.0177411 -0.000502354 0.00600886 
0.0215112 -0.000443998 0.00662058 0.0238542 -4.52923e-05 0.00599714 0.0196525 0.000319399 0.00599878 
-0.0221278 0.00276914 0.0059986 -0.021732 0.00481354 0.0059981 -0.0203152 0.00149731 0.00637246 
-0.0221534 0.000772509 0.0060483 -0.0238469 0.00182776 0.00641157 -0.0184815 0.00348053 0.00599786 
-0.0172927 0.00196842 0.0065336 -0.0203737 0.00347814 0.00663477 -0.0235247 0.00409746 0.00651834 
-0.0176686 0.00518489 0.00664862 -0.0195592 0.00518857 0.00599929 -0.0209245 0.00650228 0.00670172 
-0.0189342 0.00702716 0.00646933 -0.0169997 0.00694738 0.00599648 -0.0228667 0.00657378 0.00600882 
-0.0203944 0.0083013 0.00599752 -0.0157798 0.000609569 0.00655442 -0.0164794 0.00371227 0.00599948 
-0.0133808 0.00631643 0.00599986 -0.0140087 0.00136323 0.00599944 -0.0107223 0.00371337 0.00599973 
-0.0119868 0.00163919 0.00600525 -0.0151928 0.00268738 0.00713587 -0.0100254 0.00186408 0.00631907 
-0.0127345 0.00393578 0.00600076 -0.0155916 0.00548813 0.00620601 -0.00955136 0.00533708 0.00603581 
-0.0115387 0.00554432 0.00601155 -0.0150592 0.00740139 0.00599834 -0.00967556 0.0074235 0.00599717 
-0.0116 0.00758481 0.00650444 -0.00853645 0.00323115 0.0059971 -0.0133444 0.00841496 0.00599721 
-0.00378432 0.00291045 0.00599822 -0.00610814 0.00133499 0.0060022 -0.00758513 0.00498906 0.00599898 
-0.00594594 0.00613227 0.00599805 -0.00194452 0.0065044 0.00600129 -0.00771221 0.00706154 0.00599778 
-5.18141e-05 0.00319427 0.00599737 -0.00226275 0.00448273 0.00603326 -0.00816872 0.00112535 0.00600109 
-0.00186497 0.00235794 0.00599869 -0.00497546 0.00444871 0.00644261 -0.00330359 0.000974506 0.0059981 
-0.00653861 0.00328695 0.005999 -0.00394499 0.0063732 0.00600047 -0.00555624 0.00809076 0.00599819 
[...]
POINT_DATA 5997
FIELD FieldData 7
id 1 5997 int
4293 700 93 863 3091 4269 4242 1711 4262 
2698 351 2177 4605 3210 2427 963 2639 779 
2932 3013 1119 2164 2479 2711 1200 5759 5928 
367 3880 4587 38 2154 5772 2893 5773 699 
1403 2007 5021 3713 420 1853 2171 5828 5588 
3408 2103 4521 759 4981 5170 5392 2492 2210 
3264 1746 3049 4363 1966 4111 1871 4508 5570 
4886 1603 952 2863 2381 4796 5335 864 3461 
754 977 2468 202 5712 5476 2276 2497 3132 
5326 1883 3118 2956 1799 1756 2658 5511 1615 
2415 3911 3545 2231 6040 3032 335 2550 4516 
2631 2615 3984 5440 1471 1881 4722 457 545 
3279 3410 281 3047 6025 2336 2142 5637 2189 
3666 4702 4201 673 5661 3415 5737 3758 6053 
4869 2123 4407 5404 1708 3832 3260 1920 4578 
115 2098 3646 3969 4720 5442 3075 1864 4637 
3558 5576 3522 3328 4329 4455 4757 5041 3349 
913 803 2449 1720 142 2783 318 1901 850 
5408 5053 5705 1696 188 4545 2560 1015 2314 
692 263 3732 4222 2955 3426 419 279 3621 
5995 1250 715 5788 5609 2719 5701 3544 2655 
2197 2318 5535 3445 4024 5449 5202 4438 1839 
3763 100 3563 2782 797 5889 4835 2128 1313 
1518 2429 3123 3490 2488 992 4409 714 1298 
1767 298 702 4546 4941 3912 5708 1986 2200 
231 4292 2435 823 5723 546 2831 920 3817 
123 5681 2141 5755 4559 3194 2365 3720 124 
6049 4202 2136 659 1838 1392 5071 1351 2325 
5187 2355 2890 1797 2770 2579 3918 2307 4252 
877 2249 4634 5724 753 1699 3502 195 5765 
4680 1433 4589 5997 2126 1688 3184 3342 4208 
2063 506 3886 3858 836 4688 4055 1283 2627 
1061 1172 403 1137 965 884 1784 1833 4047 
5122 5239 601 3424 808 1605 241 4996 151 
3728 1449 3871 5500 4583 5954 2461 5867 1258 
5770 1324 5855 872 270 619 927 932 2741 
766 2791 1672 1451 2700 4295 5059 5492 2377 
832 1865 2031 961 5766 3745 495 5474 1209 
1319 3690 3697 3750 1133 1333 2138 5566 3249 
1389 2983 3406 2547 721 1737 3774 2437 1561 
612 3389 789 2906 5951 4470 5930 5247 5507 
5673 3616 6037 5255 2544 1410 425 1755 3392 
2167 4064 843 3276 4934 61 4241 3715 1745 
5124 1824 4877 1479 1136 907 2945 1039 1537 
4184 5774 2193 5631 5487 5494 529 2080 5096 
3326 5211 1413 3234 4378 4045 5079 818 3154 
787 5256 5389 1257 148 5613 1170 3599 3497 
5741 4101 4117 5164 1822 3536 4683 4633 4471 
1032 5815 3737 2590 4142 984 3792 1252 3710 
5110 4491 3752 5017 5344 5931 5475 1567 3116 
3738 3267 1130 5903 3791 2283 981 5530 2153 
5383 2125 2644 2253 672 5108 5400 1248 1444 
2370 661 4905 2483 4604 3152 328 3439 3991 
3581 1269 429 5545 3648 5998 2776 3608 2858 
2049 286 3309 317 215 1079 5054 4791 3414 
1758 4423 4428 2264 4022 5603 2284 5728 807 
446 1729 5569 3584 2636 3625 2359 2021 5942 
1450 5840 1173 4307 343 2484 4872 1753 1276 
4466 240 2341 3999 223 1506 4696 1700 1918 
2761 5498 4922 5966 1724 277 620 1543 5528 
4175 1967 5092 2416 3943 5977 1963 1917 2156 
2970 1394 1512 1979 1844 4611 995 2806 4915 
2934 4227 23 2190 1072 2600 2637 1682 1404 
790 3238 1846 5425 3332 3341 65 1629 626 
5851 7 5375 3243 701 5429 950 5668 4263 
57 5056 2288 5845 2854 589 1000 4770 1059 
4164 500 2185 1515 758 1128 1861 951 1588 
2413 5361 1931 1221 1275 4229 3176 1197 53 
3689 5458 5572 999 5407 2963 5975 4418 615 
781 3458 802 5456 5935 3237 3634 5212 3252 
3862 2586 2612 4744 1830 1637 1081 2598 4400 
3842 4188 1053 1802 2665 5348 1445 855 549 
2035 2120 1245 910 3072 5858 1843 1272 4906 
734 4266 1271 2911 5089 12 581 1791 5542 
3006 5635 3358 898 969 2666 3179 1882 5563 
2215 4640 366 1290 5602 2234 5396 5033 2298 
1989 3693 5853 1632 2583 3812 4132 2183 885 
4074 2760 1028 518 295 2237 353 2002 3678 
2707 2112 636 3155 1082 858 1076 3870 2397 
3956 1894 1405 3221 4160 2555 2219 2043 382 
1011 5796 735 2834 1148 1383 4584 3930 1740 
3312 1889 1726 5109 1722 5128 2536 1924 4563 
321 3483 3834 5398 4801 1645 4548 5538 815 
5385 5196 5439 3698 4874 1184 126 5351 5325 
3271 4135 1343 4386 2881 5008 3359 2919 2908 
5244 3451 5565 3859 3823 2168 1884 2732 1104 
5346 4187 16 3712 2066 3860 559 980 4556 
4754 720 1063 3262 6026 5744 3633 424 2218 
3163 1897 4665 2405 5213 3922 5463 4945 788 
862 316 4879 4708 5496 3277 3067 2344 4853 
19 4253 256 5314 1546 5714 4497 1630 3683 
4454 2493 1714 4818 4518 3202 1255 1866 5932 
3700 2737 814 1890 2767 3098 2014 3375 381 
2073 3469 416 1523 3970 2020 4146 5577 618 
172 2012 867 4659 3145 4445 3339 4717 830 
4848 1062 5929 5126 2998 1156 324 1850 3740 
4286 742 5864 1292 4277 3153 2528 5205 2664 
4367 2800 2746 1146 5317 1575 5610 340 541 
1779 394 655 3957 5742 4174 4572 4984 5861 
3926 3109 3932 4857 5401 3307 4933 1817 2957 
2227 3099 1057 3036 2540 4442 5298 1302 3079 
5501 2351 1073 3913 3467 2369 4511 5555 1486 
1246 3051 4217 5225 3113 4596 2013 2989 4348 
591 235 4113 5989 3734 4247 51 1190 5403 
5926 5023 147 1612 5410 3241 5527 5585 4440 
1322 3987 519 3837 613 102 513 4102 4914 
629 5399 1427 3568 4313 1958 3245 5970 1834 
5709 3365 5722 2564 3407 169 4304 487 2109 
2481 5101 1992 5018 2676 801 4226 312 2883 
2040 3368 2393 418 5616 586 1438 3218 1604 
908 3331 5552 3659 6065 230 3085 3436 5236 
2720 1954 127 224 2458 3477 3165 1863 2948 
660 3282 1554 380 3143 602 1423 2222 4381 
4576 2507 3073 611 4383 1939 3494 964 523 
5593 3998 1036 3266 3444 694 1361 4989 5349 
3493 3129 959 628 1697 4243 3247 4125 5688 
749 4264 4472 4679 1110 3965 3498 391 5898 
6070 1811 679 2715 1487 5338 756 198 3744 
3601 4089 645 4462 1750 1038 4703 4075 3261 
2997 1914 2022 9 3618 78 682 3514 1874 
1820 1715 2292 1557 4531 5288 2522 2872 5323 
4300 676 1288 1226 3092 1473 81 356 5606 
4396 4949 5002 5286 3643 1634 5434 3442 1378 
1193 4772 793 3062 4092 2809 3052 2814 4154 
108 152 5134 5078 5060 2626 1577 5234 1563 
2085 2837 4783 2567 1551 4893 3865 747 4480 
5909 2609 1265 3691 4499 1067 3673 4402 4961 
2172 1891 164 4856 3675 482 3499 4183 4552 
2150 2277 4296 5374 4429 5362 4557 1510 4947 
5419 1371 4695 3147 5158 1315 2009 5420 5275 
4194 2974 4968 579 3045 3356 2929 503 1354 
4629 1124 4351 765 2646 4155 3478 1984 5836 
1437 2742 4182 777 733 3189 1101 1228 253 
4415 3786 5783 4732 3781 6068 3819 1766 3960 
4512 971 5533 5373 6010 4777 2017 3856 3708 
4100 3986 3628 453 24 2252 1516 2016 2565 
4544 2749 3487 4819 4206 528 2533 5944 4347 
4059 5554 5520 146 3855 6012 731 1350 4041 
387 82 3620 4405 4792 4837 3657 3496 2015 
637 3299 3471 3141 3769 4701 1764 3335 5885 
5579 1463 4539 43 1330 3963 2326 4999 4880 
2503 786 5690 5625 1836 26 426 3903 2001 
4678 2630 844 2762 911 1538 1458 1677 4482 
5278 6027 3198 4485 1439 4456 4927 4553 4606 
3096 458 1068 5102 2028 3093 4693 633 6031 
5277 926 3941 1770 5397 4346 1596 155 590 
5795 3055 5923 2037 1626 5333 3106 2614 6045 
1964 2457 889 125 1377 3321 3782 5781 873 
3178 3777 6013 2313 2505 978 31 1312 4747 
4575 4039 5549 2519 4087 2967 3419 217 4090 
3183 5526 4967 3484 3569 1783 5981 921 2114 
2446 1815 354 822 4846 5702 2088 895 4388 
5992 4463 5445 3825 1648 5412 42 2727 2930 
2121 265 4081 4303 4909 2900 1139 5328 2003 
709 3682 544 5582 110 4723 4212 1425 997 
1493 3027 3622 2787 5985 5678 1441 4451 4543 
6016 1772 1608 140 3433 3468 3868 3370 974 
2542 1447 2733 5482 1606 4592 1122 2091 4899 
4238 497 773 6019 3263 3764 452 1904 5615 
2428 119 1220 3582 5393 4220 5650 1690 1793 
894 3517 5611 727 2090 1616 5254 2396 1013 
2076 4642 2939 2262 1876 2491 3191 5883 3360 
2451 5857 131 2606 3060 4067 5161 1653 4310 
4526 4494 5597 5654 1453 1365 686 2420 5319 
5006 327 5048 3228 3434 4377 5063 4715 2248 
4728 4488 5471 3881 4391 3828 92 4782 5733 
1936 465 1909 1097 593 5027 925 502 5750 
1741 2986 1854 1962 4952 1647 4528 4487 4032 
2304 5761 1329 897 3090 887 816 2910 5371 
3289 3058 3667 2931 868 2339 6057 3630 1256 
496 4225 1771 1237 3431 1498 3977 5226 532 
5334 5651 4267 2075 4358 4901 4704 1391 399 
1160 2779 264 3447 1113 5816 1915 4595 771 
1274 5105 5568 4829 2616 3351 4936 4601 2546 
2070 2459 3887 4350 2650 2464 2873 2419 3095 
182 3927 1540 1023 4705 3950 5933 1744 1769 
5019 5658 3580 4115 4389 5984 2486 710 1249 
2794 5200 4483 869 1198 137 5282 4746 707 
1311 5100 631 5645 2101 1600 5584 3702 1997 
401 595 3430 3529 3775 866 1297 962 4076 
1973 740 3199 1293 2191 1050 2895 329 919 
1037 5022 1047 1385 1459 4585 244 3508 4784 
522 3379 2808 5676 2995 5337 3572 4167 4891 
4148 3485 4753 2822 5330 431 780 924 3800 
3721 4169 2478 5306 1339 4410 5938 2216 5339 
2072 1348 4130 4533 2151 4691 3097 1238 330 
4382 3347 5451 3149 2878 427 5139 957 3168 
1927 1202 5186 1545 116 1528 2574 2663 4836 
5477 4958 796 1415 4106 4256 4917 2108 1163 
315 4342 2518 4436 4147 5548 5949 2580 2209 
1703 1301 5980 4084 1382 2026 1310 2944 180 
3512 1494 5382 56 4149 2935 336 1948 1077 
2476 1106 3898 1150 2845 5260 477 3082 3216 
4840 5042 1291 1872 2408 1541 3554 4790 5685 
5604 4861 4240 333 4647 3934 2500 730 3217 
2874 3811 433 4258 728 4309 2135 1429 332 
4395 5040 5144 1640 3798 322 5249 1731 2721 
6023 2866 4138 2862 2048 4740 1757 3966 3707 
4569 4006 6069 2157 1055 1087 130 4520 4434 
783 5860 668 3107 14 4847 207 5813 3144 
428 4737 2805 3762 3718 5185 2728 4338 2621 
4193 4743 824 5567 2897 2097 5376 4072 4496 
1281 583 2158 4734 1988 5841 4001 1981 2402 
5156 1395 651 1017 3790 4359 5940 2308 2678 
5934 2343 5913 5729 3900 1358 3905 2657 5486 
5034 876 1341 2978 234 3892 2456 2106 1016 
5973 311 5536 2713 260 1970 2212 5948 990 
1536 4013 5884 1436 5713 2391 2213 931 1375 
4965 4514 4653 3647 3050 3305 1832 154 28 
1235 2441 4785 5591 161 888 4465 4564 3222 
1491 5271 3489 3455 3954 5483 5315 4492 5945 
1564 5779 2559 4887 798 1900 3465 2352 3397 
3749 5000 2982 5790 4161 5250 4320 3120 4939 
4841 5758 1650 3735 4289 441 5968 4763 3933 
5852 677 2923 213 548 2054 2781 4021 2836 
509 1570 4287 4005 4098 3272 3687 443 2373 
5292 3994 5031 4955 4489 891 2690 671 775 
3916 2961 2119 2661 33 3142 4265 4375 5248 
3186 732 2502 3717 5769 5230 614 2495 1530 
4416 2515 3014 5010 3181 274 1706 841 6066 
4321 3 3908 2309 3776 625 1816 1635 1942 
2743 1651 5263 4279 1857 4364 5791 1099 562 
4573 4493 1467 411 5669 3897 835 4588 1111 
648 3937 4065 5074 3917 712 1855 2382 4232 
1326 2816 4325 2272 1144 5767 1029 4613 584 
5490 2840 4579 5972 3760 3401 5871 2765 3797 
4800 5077 708 5461 483 4673 5571 3624 5148 
3391 3373 1867 2922 5820 1100 4593 4432 1490 
2082 4319 273 1858 4742 4972 3211 1662 966 
5540 5982 1639 2936 1480 1006 2704 4910 1396 
678 1735 319 4011 190 3343 900 937 2775 
5971 2147 4992 460 2407 4991 2055 4093 5600 
2347 5189 3303 3795 2892 1739 1060 4752 3324 
6054 4651 2839 5240 795 3088 4670 3982 1372 
3274 3653 1019 5460 2699 5667 2452 1239 837 
4352 3372 2810 4831 2243 4797 1120 289 3559 
4541 5051 1051 280 3166 1761 5590 5372 3513 
5503 145 5517 5641 3411 3600 2052 2130 6014 
933 2905 2087 5763 156 2702 1591 512 2203 
3661 5238 314 4619 3948 2990 2552 5350 5524 
3043 2975 6020 2263 930 4711 5015 3976 5655 
1215 2620 486 1240 3404 4439 5297 2628 6058 
5687 1355 6022 404 4121 1280 4066 364 538 
1018 644 3935 3813 4844 4942 4461 2686 4675 
4908 2261 3418 2538 1896 2434 1497 1935 1887 
5258 2610 20 4697 2199 3057 4189 1985 5291 
1618 3997 4091 1911 2925 4807 2725 5237 2769 
4994 278 2206 2723 4755 469 916 1004 3240 
3034 47 5414 455 5914 3919 4574 2652 5452 
4706 2089 2342 5629 3909 5965 4529 2042 1025 
5614 4218 2299 83 968 3958 5153 3111 400 
2996 1953 2984 819 2611 2705 5711 2161 1747 
641 685 2071 3664 1041 4768 4476 3799 5283 
936 2366 943 892 996 1088 1788 2027 3084 
2113 635 1165 5832 288 2205 3316 5441 3640 
2718 1201 2056 1671 4246 2504 2798 4534 5827 
4911 2875 1002 757 3853 4109 1135 1267 5854 
1299 4477 84 2940 1363 2828 261 4048 67 
794 1514 4645 5518 2651 2869 1048 4686 4852 
5639 5964 859 3207 1559 3429 3021 5962 5405 
2068 5199 440 744 1526 3595 3395 1609 5525 
4681 5150 71 2279 1316 2187 2508 2455 5523 
4903 2371 1224 1174 4621 4495 3229 1232 3024 
3596 4845 2242 510 5262 1823 3944 5098 1478 
3619 4233 4043 5564 1624 3042 2903 363 5369 
4449 3127 5168 2832 5190 2745 2981 4376 3731 
1058 305 1710 3684 5443 3840 6011 5304 1191 
4896 684 5088 2134 1721 2471 5391 3425 2868 
2367 4224 3665 2525 923 5586 2406 218 3128 
4725 3009 4719 5595 2327 4368 5005 4195 1026 
1075 97 2442 4560 1829 1636 953 359 3251 
2942 5363 139 4324 445 141 4335 2569 4519 
1066 2024 2539 4007 3083 4097 2506 4010 5963 
1689 5152 1625 95 3273 4250 2766 3768 2208 
4764 1707 6004 4291 1196 2876 138 3765 5233 
1325 582 3670 1162 3901 1154 3402 5532 3114 
2194 1842 1014 2214 4412 2050 1550 5493 4530 
4314 6061 617 1074 3895 3921 3450 3603 5284 
2400 1065 5803 5808 5287 5462 3374 360 4600 
2669 2916 772 5936 4751 306 5720 1379 3649 
1205 852 5939 39 3453 1457 3953 2736 5421 
3215 4411 6030 4540 5318 4977 4362 5061 1126 
5121 5386 3378 533 2440 4333 3353 4773 2322 
3449 3016 4390 5251 1718 5907 1502 3208 243 
5366 4214 4236 5012 3552 1282 2729 1821 4859 
1905 4249 4571 5652 2607 3972 2613 1983 5384 
4425 249 255 3951 705 1336 5849 800 4626 
5112 2302 2256 3851 5798 4759 5085 5598 4200 
1623 2204 5891 1947 3820 5957 4687 5265 22 
5920 1397 6047 597 2757 902 4305 4192 3931 
4197 1476 54 4062 5231 1693 266 687 743 
542 2425 4417 432 1808 2680 1691 5241 3583 
3012 4551 3306 4150 3400 1658 3830 5273 5872 
5879 3381 3470 610 63 4406 4888 2501 2324 
481 1442 3639 1207 2710 5253 5342 94 3304 
3119 1692 3996 2095 3180 1158 521 5757 3475 
845 2311 2532 3133 5887 3985 3576 638 3173 
476 498 66 5413 1994 4040 768 4980 4822 
1912 2677 5904 5115 5868 2520 2853 2886 1801 
5657 2885 4027 1582 2041 653 1219 2462 5784 
1517 3773 2144 5003 3829 2573 5437 5730 2965 
847 1723 2553 1027 2811 3915 1416 5324 3947 
3756 1071 4203 1812 5581 3108 4366 3515 2926 
5559 478 4769 3283 3672 3844 3973 4957 1522 
3080 5218 467 4317 3924 667 3225 1572 2430 
1827 6001 1906 1468 1734 5327 1807 5155 2064 
237 1673 5671 2033 2217 2201 1390 4974 3239 
2694 1472 4468 463 3422 4610 6056 1368 3169 
6021 2604 5640 649 1520 3770 782 2938 2289 
5489 2398 2558 1840 1262 5580 5135 4244 719 
5818 339 136 5175 3874 1035 3064 2269 2346 
553 569 5457 5829 4515 2758 3059 475 2877 
4731 4170 5065 2494 609 5987 4107 214 2777 
3863 4297 1470 4966 5793 1080 2993 2300 4990 
4070 1153 461 5648 4672 2602 4799 5179 4251 
664 1527 2245 3270 3290 1683 1578 1008 3754 
5918 2290 4372 4453 2648 5310 3861 5209 3081 
2884 1524 4926 5649 3736 2092 882 301 1974 
4086 4889 3623 809 4890 1279 5675 5946 25 
3457 1847 2999 2490 4858 1705 4727 3680 5838 
2228 4178 5039 3294 2964 1349 1835 1961 91 
5184 1643 1421 886 2717 4028 5575 222 4172 
2689 1247 526 4478 2330 4916 4598 716 3473 
4982 2065 5025 490 5621 2287 346 5753 4609 
4809 1263 5562 5165 3692 3086 2418 5119 917 
4204 4073 654 5145 2748 1511 3642 296 3660 
2241 480 1084 4171 1597 2038 2971 70 3464 
1142 3288 3588 1934 3257 3650 6003 5289 5694 
2647 1417 4919 2571 3308 5409 2818 3018 4978 
4397 285 2554 5734 3504 1157 5620 1233 1641 
62 392 580 1266 2605 4344 4567 3416 1001 
505 5927 3409 3949 3177 4374 4257 4682 5594 
2254 5387 5416 3377 5882 1003 236 4422 1500 
5672 4023 6017 111 4268 3071 3893 899 1587 
5706 2196 3423 4078 1492 1886 4969 2819 1960 
293 3275 5038 159 3172 1332 2557 4387 3852 
6059 5219 4793 5835 436 4663 1360 3481 2920 
488 812 4607 4505 114 606 406 2361 3925 
290 2593 4780 1064 4875 4964 3722 3148 829 
935 1633 1143 4883 5912 1695 456 4662 46 
1125 3929 1987 21 2880 5207 2409 1916 5878 
4441 4924 3048 5508 1418 2334 630 3805 4778 
2951 3553 909 3839 6005 5802 4925 86 2362 
2293 2668 5418 1309 4299 5819 1334 3188 2155 
4834 1941 826 1056 2928 2804 2250 68 1980 
1244 5193 4568 960 2353 1432 3380 2578 878 
3077 4814 5607 681 5302 2401 5364 2251 3459 
3821 865 227 276 5560 2386 4486 1732 3293 
2952 5454 1676 76 4235 4177 4824 5895 4833 
1107 4699 2477 3162 3394 128 2317 60 1086 
3706 184 3089 1694 5516 179 3495 1565 1218 
3510 4960 5221 2236 4030 2061 3644 4617 4290 
567 4944 4058 2078 2358 201 1132 5347 2433 
1932 448 4401 2857 2697 4892 3910 3526 5558 
5459 1149 5890 723 1206 2513 1794 121 5394 
4474 200 1644 5817 704 371 2599 3150 4823 
5843 1401 2480 1959 4353 2894 1778 3645 4503 
4034 5941 5453 543 3641 3888 3696 573 1230 
5169 5814 4582 3561 5064 5433 3894 5481 2904 
2759 2635 4274 2771 1581 2551 4805 3268 5448 
4360 5961 3527 3466 1580 4361 6036 3388 2962 
3562 1701 3171 2909 1627 189 383 993 3170 
915 2463 3727 1268 2556 1818 4684 3593 5464 
1485 5467 6015 3540 1531 5013 4736 5004 2198 
1687 4330 5447 5638 1161 3557 2360 650 283 
3579 409 5622 576 2175 3369 5704 624 5321 
2756 4894 1185 1926 1880 5636 2789 683 3302 
5485 4026 4988 3525 5901 5544 3437 3538 4554 
4873 941 2104 3474 341 846 3256 4954 3167 
5847 2320 3030 3248 4140 1611 658 3849 5537 
3635 4443 811 3285 347 1010 2949 4355 1400 
4509 4781 3962 1888 4963 3658 4469 3440 3255 
5700 1095 1448 1464 1789 113 167 3598 4562 
309 1955 2267 5874 5703 5114 3301 1352 4181 
2387 550 485 5777 5149 5188 3802 2562 1203 
5259 5037 4862 3486 4294 5996 1508 5994 434 
5922 5422 1940 1303 2591 515 1659 5224 4750 
4698 5546 5623 2023 4786 5131 3955 1121 722 
1800 5120 1919 2453 896 5776 2529 5203 838 
262 4003 2685 2643 1670 2570 5541 4648 2291 
1270 1619 1775 1730 4756 1568 928 5740 1773 
4017 4288 1189 2921 299 3742 395 4079 2976 
2143 2025 5826 3135 4739 2450 3159 5194 3589 
2927 3574 1713 5749 1216 1535 229 1499 5093 
3134 153 1795 976 3001 435 4692 2830 2973 
3185 4870 1668 5276 4301 2891 3214 5806 5036 
739 1109 396 3945 1977 3679 6033 693 5172 
6052 5305 1393 2855 1949 4049 4775 2917 1241 
5716 3488 3587 5151 2709 1929 1021 5343 2431 
3175 5726 1359 2115 5504 5227 755 2496 2850 
1620 1782 1284 334 4196 5837 5117 5794 3063 
3284 1727 4721 5739 1898 3586 4620 1070 3074 
272 3818 539 3456 1908 501 3548 4259 3314 
5099 4694 5097 4000 3432 4821 2499 1253 4133 
393 5756 4627 5900 1227 2629 300 2992 4157 
2632 2107 531 421 479 4789 4956 3612 5715 
4393 1012 2178 5986 5146 99 5810 2083 144 
4921 3753 1305 2924 5050 2511 2411 1422 3393 
3220 4657 2865 1167 1469 5509 3729 4037 5534 
48 3983 2788 29 2943 4408 879 4644 5406 
2734 5822 5531 3265 6028 4843 1780 3280 4123 
5823 4122 776 5322 1852 2780 1171 2864 2825 
4776 358 4156 903 642 3503 3869 4762 1956 
3235 5171 1754 1195 191 4547 2706 357 565 
3746 149 2969 2744 982 2166 1584 2224 4080 
2899 2738 2162 3452 634 5557 74 3100 3627 
1828 3366 2683 470 1211 2321 5067 4935 370 
5893 2852 3705 362 657 1243 2229 5717 1192 
6042 5107 3604 3575 540 605 5270 1781 3920 
27 211 1033 5341 4046 408 3509 129 4141 
5356 5754 4199 6050 2510 4624 1933 112 3848 
956 4452 5 3891 1273 1614 1398 3656 5719 
1848 2004 3212 5083 4379 2829 3236 4689 414 
4211 1661 5870 4636 3350 5736 2438 3613 4788 
2792 1461 1112 4272 2581 4431 6064 5881 5495 
1384 348 3778 5856 4475 473 4365 4940 5311 
2861 1296 4014 1595 3146 4850 459 17 5340 
1686 2422 2487 1674 2764 4271 3979 5104 313 
5892 5266 1685 1362 1837 537 5217 430 1043 
5693 284 5183 570 3854 3035 5680 1749 3907 
5670 511 5764 1222 3361 2039 2273 3040 691 
1569 3226 2244 2220 1642 1328 861 944 639 
2795 1183 991 6044 5062 5046 472 6018 2137 
45 3338 2585 4373 2624 1489 269 3131 4771 
940 4929 1667 1649 3796 3808 5427 1182 3826 
1085 1194 5264 4803 5666 466 3025 5488 4370 
302 946 5235 410 4860 4685 254 4129 1549 
2086 369 1346 1776 1455 5990 361 1602 2688 
3505 4398 4817 5911 4082 821 2968 143 3890 
5049 2687 2392 2824 640 3873 5026 1902 3201 
2844 3291 5529 5312 187 5785 3804 1751 3747 
3652 5679 748 2116 219 3651 417 5875 3676 
3578 2535 4467 2181 4345 5865 3463 3038 5812 
2179 3748 3989 585 2566 575 186 5578 1300 
527 5768 6008 5279 3315 1849 594 2388 2111 
1287 1408 242 5470 1098 3156 5069 3460 3126 
3695 1344 695 1364 2512 3701 379 1968 3069 
1386 717 3833 1638 1870 5862 4986 3019 4826 
1176 4270 799 18 3281 4975 350 3757 534 
2389 5502 4577 216 4827 4328 1169 4015 171 
5052 5959 2937 5958 3417 3535 193 4490 4008 
922 3899 3906 4671 6041 3000 2239 2315 588 
1878 2316 5316 2660 2354 2067 134 166 109 
623 1930 3227 4639 1045 178 3546 4095 2374 
5044 1579 5514 4943 680 3843 3847 5359 5556 
2223 4278 3942 2081 729 5242 2079 2516 3322 
4168 817 5601 3138 3759 4623 1141 1996 3827 
4667 3964 5011 4173 4953 1366 4876 5360 3520 
5198 1907 3632 355 271 4322 3663 226 1357 