# vtk DataFile Version 4.2
Generated by LIGGGHTS
ASCII
DATASET POLYDATA
POINTS 105 float
-0.00752952 -0.0336201 0.00776627 -0.00342198 -0.0330997 0.0110356 0.000397926 -0.0302344 0.00641622 
-0.0182909 -0.0225173 0.00775333 -0.0143648 -0.0219989 0.00665388 -0.0144746 -0.0234527 0.0139008 
-0.0066855 -0.0293167 0.0126013 -0.00809818 -0.0251533 0.0112281 -0.00406625 -0.0257517 0.00750166 
0.00447109 -0.0245102 0.00733567 0.0100306 -0.0238379 0.00667946 0.0183728 -0.0286562 0.00675857 
0.0125194 -0.0253257 0.010327 0.0209911 -0.0225398 0.00594135 -0.0297123 -0.0144803 0.00879511 
-0.0243613 -0.0147925 0.0120712 -0.0263698 -0.0127036 0.00665467 -0.0216935 -0.0117493 0.00811634 
-0.0151361 -0.0155914 0.00729088 -0.0114205 -0.0181926 0.0106609 -0.0136995 -0.0143837 0.0110246 
-0.00579457 -0.0113751 0.0118266 -0.000100831 -0.0169213 0.00676793 0.00616479 -0.011877 0.00756576 
0.0157483 -0.0180268 0.00601647 0.0263212 -0.0154302 0.00805143 0.0222558 -0.0105514 0.00864444 
-0.0320142 -0.00673746 0.00699158 -0.0296874 -0.000250646 0.00690976 -0.0111979 -0.00979369 0.00662958 
-0.0164645 -0.00102476 0.00651059 -0.0149042 -0.0067289 0.00820091 -0.0112722 -0.000540643 0.00823034 
-0.0108815 -0.00689865 0.0110675 -0.0170684 -0.000837989 0.0141245 -0.00351799 -0.00394096 0.00752495 
0.000458291 -0.00284043 0.00636558 0.0183905 -0.00915064 0.00828153 0.0105412 -0.00462278 0.0104461 
0.018761 -0.00428112 0.00633421 0.0254422 -0.00334839 0.00628709 0.0282627 -0.0101678 0.00858896 
0.0313881 -0.00726149 0.00742025 0.0343035 -0.00127235 0.0108318 -0.0335593 0.00361027 0.0133375 
-0.0220113 0.000603334 0.0106585 -0.0239727 0.00495505 0.00682368 -0.020599 0.00637311 0.0106578 
-0.0212506 0.00921496 0.00607125 -0.0145474 0.00161672 0.0095119 -0.0169292 0.00723101 0.00673572 
-0.013357 0.00781562 0.0115049 -0.00734198 0.00194666 0.0122097 -0.00824244 0.00842202 0.014002 
-0.00284831 0.00775538 0.00866899 0.0141336 0.000576693 0.011798 0.0111998 0.00759765 0.011416 
0.0107855 0.00339628 0.00790028 0.0191692 0.00599022 0.00627925 0.0205366 0.00776085 0.0111866 
0.0233173 0.00791249 0.00729064 0.0281068 0.00135233 0.00727837 0.0277496 0.00796696 0.0105249 
0.0203525 0.00403155 0.0130608 0.0317447 0.00335608 0.00647842 0.0321763 0.00820996 0.00849557 
-0.0256609 0.0146344 0.0096873 -0.0236501 0.0175755 0.00605492 -0.0296453 0.0104443 0.00592753 
-0.0209691 0.0156558 0.0139762 -0.010732 0.0191704 0.0063455 -0.00546485 0.0105815 0.00755314 
-0.00200112 0.0104229 0.0123144 -0.00109496 0.0169483 0.00596081 -0.00597906 0.0195981 0.00713356 
0.00575589 0.0177997 0.0105937 0.0168849 0.0135469 0.00620836 0.019144 0.018113 0.00955897 
0.0239445 0.0188661 0.00612584 0.0301681 0.01623 0.00596236 -0.0247588 0.0214074 0.00856435 
-0.0178501 0.0231588 0.00956868 -0.0181278 0.0265528 0.00626922 -0.0133094 0.0225561 0.0121115 
-0.0163491 0.0292639 0.0125198 -0.00258395 0.0250224 0.0117797 -0.00155154 0.027138 0.00780913 
0.00051534 0.0207713 0.00646308 0.00451257 0.0240663 0.00607396 0.00730636 0.0284835 0.00805867 
0.0032741 0.0223404 0.0132885 0.0115306 0.0219559 0.00757965 -0.00878312 0.0317489 0.0125274 
-0.0193948 -0.0270427 0.0215592 -0.00479671 -0.0131913 0.0192509 0.0131424 -0.0156432 0.0154155 
-0.0288863 -0.00579682 0.0167095 0.000122059 -0.00852249 0.0153239 -0.00696623 -0.00756147 0.0168907 
-0.0099511 -0.00464189 0.0177861 -0.0116601 0.00258232 0.0164635 -0.00290652 0.0120468 0.0160049 
-0.00726811 0.0125046 0.0156865 0.0132668 -0.0180243 0.0521636 -0.00366176 0.0214525 0.04985 

VERTICES 105 210
1 0 
1 1 
1 2 
1 3 
1 4 
1 5 
1 6 
1 7 
1 8 
1 9 
1 10 
1 11 
1 12 
1 13 
1 14 
1 15 
1 16 
1 17 
1 18 
1 19 
1 20 
1 21 
1 22 
1 23 
1 24 
1 25 
1 26 
1 27 
1 28 
1 29 
1 30 
1 31 
1 32 
1 33 
1 34 
1 35 
1 36 
1 37 
1 38 
1 39 
1 40 
1 41 
1 42 
1 43 
1 44 
1 45 
1 46 
1 47 
1 48 
1 49 
1 50 
1 51 
1 52 
1 53 
1 54 
1 55 
1 56 
1 57 
1 58 
1 59 
1 60 
1 61 
1 62 
1 63 
1 64 
1 65 
1 66 
1 67 
1 68 
1 69 
1 70 
1 71 
1 72 
1 73 
1 74 
1 75 
1 76 
1 77 
1 78 
1 79 
1 80 
1 81 
1 82 
1 83 
1 84 
1 85 
1 86 
1 87 
1 88 
1 89 
1 90 
1 91 
1 92 
1 93 
1 94 
1 95 
1 96 
1 97 
1 98 
1 99 
1 100 
1 101 
1 102 
1 103 
1 104 

POINT_DATA 105
FIELD FieldData 7
id 1 105 int
5097 5874 5392 5976 5562 4382 5664 5372 4883 
5532 3500 5902 5030 5207 5446 5464 5774 5941 
3308 5396 5568 4701 5209 5555 5375 5072 5180 
5557 5168 5516 5553 3795 5368 5236 4987 5801 
3145 4715 5845 5744 5197 5861 5756 5203 5793 
5862 5550 5870 5840 5428 5311 5586 5945 5635 
5544 4400 5226 5925 5810 5968 5724 5691 5950 
5379 5639 4745 5745 5663 5631 5648 5802 5595 
5708 5811 3657 5280 5347 5892 5628 5966 5085 
5626 5857 5779 4913 5013 5807 5297 5875 5169 
4895 5849 5506 5137 5443 5084 5065 5910 5727 
4947 5342 4936 5787 5973 5949 
type 1 105 int
1 1 1 1 1 1 1 1 1 
1 1 1 1 1 1 1 1 1 
1 1 1 1 1 1 1 1 1 
1 1 1 1 1 1 1 1 1 
1 1 1 1 1 1 1 1 1 
1 1 1 1 1 1 1 1 1 
1 1 1 1 1 1 1 1 1 
1 1 1 1 1 1 1 1 1 
1 1 1 1 1 1 1 1 1 
1 1 1 1 1 1 1 1 1 
1 1 1 1 1 1 1 1 1 
1 1 1 1 1 1 
i 3 105 int
0 0 0 0 0 0 0 0 0 
0 0 0 0 0 0 0 0 0 
0 0 0 0 0 0 0 0 0 
0 0 0 0 0 0 0 0 0 
0 0 0 0 0 0 0 0 0 
0 0 0 0 0 0 0 0 0 
0 0 0 0 0 0 0 0 0 
0 0 0 0 0 0 0 0 0 
0 0 0 0 0 0 0 0 0 
0 0 0 0 0 0 0 0 0 
0 0 0 0 0 0 0 0 0 
0 0 0 0 0 0 0 0 0 
0 0 0 0 0 0 0 0 0 
0 0 0 0 0 0 0 0 0 
0 0 0 0 0 0 0 0 0 
0 0 0 0 0 0 0 0 0 
0 0 0 0 0 0 0 0 0 
0 0 0 0 0 0 0 0 0 
0 0 0 0 0 0 0 0 0 
0 0 0 0 0 0 0 0 0 
0 0 0 0 0 0 0 0 0 
0 0 0 0 0 0 0 0 0 
0 0 0 0 0 0 0 0 0 
0 0 0 0 0 0 0 0 0 
0 0 0 0 0 0 0 0 0 
0 0 0 0 0 0 0 0 0 
0 0 0 0 0 0 0 0 0 
0 0 0 0 0 0 0 0 0 
0 0 0 0 0 0 0 0 0 
0 0 0 0 0 0 0 0 0 
0 0 0 0 0 0 0 0 0 
0 0 0 0 0 0 0 0 0 
0 0 0 0 0 0 0 0 0 
0 0 0 0 0 0 0 0 0 
0 0 0 0 0 0 0 0 0 

v 3 105 double
0.14943179436 -0.13616410395 0.028577661159 0.067324666448 -0.12245308614 0.17445034565 -0.085861976619 0.06231508477 -0.33373394595 
0.14295892579 0.12176315225 -0.010850848116 -0.015332811598 0.050218031412 -0.0074960574268 0.23691555024 0.3628771092 -0.07218478767 
0.48002670041 -0.077777281417 0.53605576482 0.1048545667 -0.20831133447 0.018337232065 -0.041294513465 0.0030759262721 0.048880845624 
0.0029379687439 0.0034617436368 -0.22405250574 0.069515009043 -0.069922408938 -0.075039595952 0.0096291937692 0.087929909269 -0.34618892441 
-0.033150046671 -0.12475184673 -0.1385748311 -0.099188926751 0.10803888439 0.053886507106 -0.061642837318 0.24730973982 -0.083436262697 
-0.072125017743 -0.073270312622 0.21626398843 -0.29475601426 0.018253218602 -0.29842480527 -0.2029150175 0.13445935425 -0.014248788407 
0.1461658055 0.099912447533 -0.078836865711 0.025811008315 0.058692139492 -0.18871439889 -0.23526984119 -0.044796367464 -0.063825148591 
0.068508071606 -0.085604726671 -0.089931752041 -0.15657169681 0.21823968021 0.12615040923 -0.13961313008 0.045103816813 0.17499694144 
-0.17676524969 0.076789760872 -0.19598343717 -0.013250646832 0.03148941473 -0.1106669879 -0.1829593575 -0.15395340172 0.2029812369 
0.26624448058 -0.12813088257 -0.034835057109 0.036148377127 -0.17515663577 -0.20682400668 0.04235077655 0.038012509139 -0.21884845119 
0.14616735403 0.025902715897 -0.095909605428 -0.19130200969 0.074764327549 0.045598439706 0.074492798579 0.037997567459 -0.075145940556 
-0.18511547015 0.035249495754 0.13388710555 0.072725379007 -0.0084017015266 -0.080610021093 0.23639039547 -0.0083219381203 -0.27222340905 
-0.29650769797 -0.1088642121 0.074103702883 0.048108095275 0.11114506021 0.076638934103 -0.09586751473 -0.14743837009 -0.091342910126 
0.098403198145 -0.32456277279 0.015157714774 -0.078031764231 -0.06735380457 0.054276073362 0.027614205235 -0.28379511654 0.13176447939 
0.13192155468 -0.0053930203589 -0.11203695978 -0.087022429054 0.042595650449 -0.11942884201 0.30201628275 -0.11563156854 0.055627223734 
-0.09008396627 0.019453570778 0.10330064785 -0.16057610634 0.073017216484 0.026530527455 0.06849536816 0.27957081835 0.034972554289 
-0.03298164706 0.083516608406 -0.062290137425 -0.065162244112 0.047529867375 -0.14359552123 -0.36118685871 -0.055519063457 0.1848857474 
-0.10964984547 -0.41426190389 -0.8104956682 0.2693677397 -0.07792268489 -0.087233095331 0.10465614835 -0.025512557188 0.050852516818 
-0.012983447815 0.10974938807 -0.024075958053 -0.18557501285 0.16726536098 0.01522511609 0.31465849956 -0.13648644194 -0.1127902285 
-0.21550991936 0.13771433965 0.091662191108 0.048855762229 -0.023625897572 0.033573673443 0.17391845778 0.037725309452 -0.049950238685 
0.073469899929 0.090710370144 0.18923906696 -0.015440368236 0.0087769345909 -0.13550757941 0.070965933806 0.040279643737 -0.070541887291 
0.13060785219 0.047037122382 -0.42607693585 -0.17624586303 0.13599011308 -0.062006530651 -0.22156908212 0.13666578797 0.0066700473077 
-0.22407167979 -0.19030971282 -0.18548570351 0.10381996808 -0.14999978803 0.012717000873 -0.11923979799 -0.10950373349 -0.011755457327 
0.25099912271 -0.14746184886 -0.071773156064 0.049308511544 0.21510314671 -0.0020742848942 -0.085863131944 0.29241268454 -0.15294259466 
-0.074052352189 0.067661456222 -0.084597573141 -0.18908009883 -0.2191902758 -0.15749623289 -0.24095351431 0.13375470049 -0.13036455939 
-0.046877724144 0.14025647942 0.10741303361 0.0765232689 0.16273624354 -0.13278212382 -0.043279800169 0.11225333964 0.16866246269 
-0.2156075957 0.31540379627 -0.090358479311 -0.086718783514 0.043145817038 -0.055533952904 0.037261110153 -0.13999463494 0.19225702424 
-0.014941671746 -0.057896884215 -0.23903890925 0.10037091374 0.3469357205 0.13031138031 0.12944638055 -0.21392762389 0.050017538968 
-0.28111989813 -0.02993346481 0.1197171238 0.021150108525 -0.056431501299 0.2960740519 -0.087193283625 0.071239247822 -0.14191803832 
-0.087168292199 0.27660995806 0.062706173647 0.068103542877 -0.40067309717 0.049062680983 -0.14759633648 -0.11536187418 -0.22988709657 
0.063599677771 0.16239130134 -0.21323426806 0.27303404762 -0.20828767286 -0.076054503557 -0.17984791462 -0.3334514663 0.15202477812 
0.18496785308 -0.023843474012 -0.001070532744 0.05505655908 -0.079695384689 0.079666061866 0.069633751696 0.18330486776 -0.41123012349 
0.22108492339 0.003965833983 -0.2153502187 0.16537896054 0.10873272961 -0.31234693059 0.07038687207 0.042372137263 0.08485864056 
-0.15375207563 0.12661778215 0.10917371241 0.22451118752 -0.056700660764 0.12162743459 0.043217513026 0.18505019683 -0.019263798138 
-0.28731802908 -0.0004414713429 -0.11792674578 0.29171878294 -0.12240720675 -0.017550367406 -0.077355998586 -0.30512357677 0.6602088089 

f 3 105 double
0 0 -0.00082184063818 0 0 -0.00082184063818 0 0 -0.00082184063818 
0 0 -0.00082184063818 0 0 -0.00082184063818 0 0 -0.00082184063818 
0 0 -0.00082184063818 0 0 -0.00082184063818 0 0 -0.00082184063818 
0 0 -0.00082184063818 0 0 -0.00082184063818 0 0 -0.00082184063818 
0 0 -0.00082184063818 0 0 -0.00082184063818 0 0 -0.00082184063818 
0 0 -0.00082184063818 0 0 -0.00082184063818 0 0 -0.00082184063818 
0 0 -0.00082184063818 0 0 -0.00082184063818 0 0 -0.00082184063818 
0 0 -0.00082184063818 0 0 -0.00082184063818 0 0 -0.00082184063818 
0 0 -0.00082184063818 0 0 -0.00082184063818 0 0 -0.00082184063818 
0 0 -0.00082184063818 0 0 -0.00082184063818 0 0 -0.00082184063818 
0 0 -0.00082184063818 0 0 -0.00082184063818 0 0 -0.00082184063818 
0 0 -0.00082184063818 0 0 -0.00082184063818 0 0 -0.00082184063818 
0 0 -0.00082184063818 0 0 -0.00082184063818 0 0 -0.00082184063818 
0 0 -0.00082184063818 0 0 -0.00082184063818 0 0 -0.00082184063818 
0 0 -0.00082184063818 0 0 -0.00082184063818 0 0 -0.00082184063818 
0 0 -0.00082184063818 0 0 -0.00082184063818 0 0 -0.00082184063818 
0 0 -0.00082184063818 0 0 -0.00082184063818 0 0 -0.00082184063818 
0 0 -0.00082184063818 0 0 -0.00082184063818 0 0 -0.00082184063818 
0 0 -0.00082184063818 0 0 -0.00082184063818 0 0 -0.00082184063818 
0 0 -0.00082184063818 0 0 -0.00082184063818 0 0 -0.00082184063818 
0 0 -0.00082184063818 0 0 -0.00082184063818 0 0 -0.00082184063818 
0 0 -0.00082184063818 0 0 -0.00082184063818 0 0 -0.00082184063818 
0 0 -0.00082184063818 0 0 -0.00082184063818 0 0 0.7853874448 
0 0 -0.00082184063818 0 0 -0.00082184063818 0 0 -0.00082184063818 
0 0 -0.00082184063818 0 0 -0.00082184063818 0 0 -0.00082184063818 
0 0 -0.00082184063818 0 0 -0.00082184063818 0 0 -0.00082184063818 
0 0 -0.00082184063818 0 0 -0.00082184063818 0 0 -0.00082184063818 
0 0 -0.00082184063818 0 0 -0.00082184063818 0 0 -0.00082184063818 
0 0 -0.00082184063818 0 0 -0.00082184063818 0 0 -0.00082184063818 
0 0 -0.00082184063818 0 0 -0.00082184063818 0 0 -0.00082184063818 
0 0 -0.00082184063818 0 0 -0.00082184063818 0 0 -0.00082184063818 
0 0 -0.00082184063818 0 0 -0.00082184063818 0 0 -0.00082184063818 
0 0 -0.00082184063818 0 0 -0.00082184063818 0 0 -0.00082184063818 
0 0 -0.00082184063818 0 0 -0.00082184063818 0 0 -0.00082184063818 
0 0 -0.00082184063818 0 0 -0.00082184063818 0 0 -0.00082184063818 

radius 1 105 double
0.002 0.002 0.002 0.002 0.002 0.002 0.002 0.002 0.002 
0.002 0.002 0.002 0.002 0.002 0.002 0.002 0.002 0.002 
0.002 0.002 0.002 0.002 0.002 0.002 0.002 0.002 0.002 
0.002 0.002 0.002 0.002 0.002 0.002 0.002 0.002 0.002 
0.002 0.002 0.002 0.002 0.002 0.002 0.002 0.002 0.002 
0.002 0.002 0.002 0.002 0.002 0.002 0.002 0.002 0.002 
0.002 0.002 0.002 0.002 0.002 0.002 0.002 0.002 0.002 
0.002 0.002 0.002 0.002 0.002 0.002 0.002 0.002 0.002 
0.002 0.002 0.002 0.002 0.002 0.002 0.002 0.002 0.002 
0.002 0.002 0.002 0.002 0.002 0.002 0.002 0.002 0.002 
0.002 0.002 0.002 0.002 0.002 0.002 0.002 0.002 0.002 
0.002 0.002 0.002 0.002 0.002 0.002 
omega 3 105 double
3.7962464512 0.51307302787 29.752013714 -11.088431334 9.0136328859 -52.709380665 -7.9309789994 -16.088616384 26.975332882 
-13.371881569 -12.493797987 72.133777365 -4.4405945995 -6.3224144589 27.619672266 -70.056154907 -93.315727065 -7.0423625152 
-0.36560961239 -0.43596841797 -47.634888871 -0.3413035605 -172.41667062 -61.549031724 -17.890316222 -10.144010902 -78.487513036 
22.380639807 -10.425520326 41.169673573 -0.61960971827 59.241839417 -27.209519054 -3.87370802 -19.652419519 1.9540691171 
0.16051677492 -0.18411032102 -27.367782526 -0.0097678175593 0.012004067085 -0.018267511903 7.6702134996 -4.8296252749 45.423822776 
-12.617039507 -57.028235043 29.017401101 -15.005175356 -25.57328652 5.0315040492 22.334993339 9.4233593314 34.247543856 
8.9140162711 3.6080774182 107.69461142 -7.7479486609 -11.028953212 10.935173057 -65.328824522 -24.562885066 12.224025118 
-106.33051478 12.991068243 38.434108712 -0.61747940718 20.003396626 -26.67854097 -3.8516778617 -2.5792895236 -20.15937779 
-23.918597683 -3.2685158895 60.398653742 -3.9381032054e-08 1.1777062691e-07 5.8091060614 1.8123749834 -1.6135017823 3.699371909 
-20.764216246 -18.282329707 7.3554230096 7.8009201149 -31.479706986 -77.723110731 36.12914597 50.014235994 35.441565548 
2.3207767309 -21.823629987 -8.849093607 50.127075817 33.296492757 37.345170156 6.1791195051 -70.916632856 14.923404147 
-2.4853094835 60.692703975 -24.091454778 0.6728542855 55.131689416 -99.759702271 -15.678950467 2.8173308964 -11.930522311 
-8.3246493909 30.502819928 -64.150257313 0.22165435918 1.4995340545 31.624624244 -54.743603799 -68.528077302 -117.92369155 
-15.047342352 4.0794455782 -28.883561597 24.379139235 11.870715006 -41.127682537 -36.731200485 -29.90264259 81.456520738 
1.1505017479 3.2595535661 24.388646049 -11.732485049 -34.765636355 -23.099552898 75.550044911 -11.010696042 15.194247154 
-63.06057034 -61.840489259 -37.182470467 -19.948298032 -33.890713543 -19.526751259 16.930007537 176.46254396 -26.991922986 
-55.193284602 48.421121854 13.316285072 -0.15551956609 -57.808322575 14.616195384 9.5565794112 -1.4311816609 38.770579161 
-64.78423242 240.10344618 -80.11981879 -28.078628861 -47.184631555 -79.500926568 10.705628572 -10.510347886 11.914775261 
-59.319291248 -17.962650514 -10.086986177 0.021498138797 0.0054707935943 -4.9159498594 41.678488701 -7.9063455025 -56.422172842 
-41.136056532 -8.5080809949 -96.651366678 -20.973548267 21.357890423 22.336240504 5.259846419 35.738073977 -20.123347925 
13.196946402 -8.3733985491 45.623725301 -72.943470108 -72.684926731 35.650073071 -23.383070149 -15.136452487 95.600947489 
25.471064972 171.72039114 55.157442907 2.6870358148 0.35377338229 3.2355205493e-05 0.21739916842 0.032285926287 -0.059843587459 
26.239257075 199.50165492 -40.876725232 84.598285281 9.5544000044 22.474862791 85.746221261 -7.7969372096 92.316748824 
-20.418889136 146.71963929 -61.341087936 47.059760677 -3.250106657 64.949804609 56.576482373 -72.145070617 -36.205095197 
-56.89480191 -64.999710391 -11.559848798 -2.501560353 -8.3223213435 -10.617434512 16.146860576 8.2583560997 -114.37981399 
0.0019013491724 0.0044436076988 -6.1774788036 54.921911915 -54.069619081 -25.495333202 48.88134547 -18.064411238 71.138848572 
-3.3814564652 11.337327298 -51.407124502 -1.7273970101 4.543017178 -27.728766039 96.93779926 10.947032603 22.49112369 
-3.9330685892 -6.6970739219 -1.9631198133 9.2206535406 -8.0569514753 -15.021434432 73.070197724 -46.613410414 -27.615961183 
8.655113142 -4.2840182822 -3.8123333812 -2.49500237 -1.4474406346 37.417458064 12.306413971 37.055266959 -36.03160713 
2.8901082893 4.1805523409 -9.1199447498 0.76132268802 25.226249014 -36.462779781 -1.5240869566 -9.2829688039 31.231033461 
9.646130443 -3.3007991573 34.445850826 -14.799328376 -20.695214575 8.0506352031 8.6350080145 77.187709909 -13.747943987 
114.93545027 -159.06299255 -9.9237945336 22.355834417 -14.502317122 15.688193618 116.88935261 86.644560054 -27.925594588 
-3.2618493933 0.2237069741 0.8335538109 -45.89316599 71.495628924 15.482917518 -6.9902967809 -5.0810555554 87.531570075 
91.18778053 -3.4546533105 51.826964068 25.602978746 1.8395296328 -28.527373125 -44.028705116 -11.711141077 24.34659063 
-60.662234519 -8.6744190272 10.346952565 1.5272177021e-05 1.9070408952e-06 -32.160413517 -0.012610408282 0.36668975427 -0.028207875139 

