# vtk DataFile Version 4.2
Generated by LIGGGHTS
ASCII
DATASET POLYDATA
POINTS 5997 float
-0.0135231 -0.0188736 0.0127008 -0.0116693 -0.0203459 0.0123928 -0.0104646 -0.0179961 0.012383 
-0.00860597 -0.0198355 0.012528 -0.00201434 -0.0233268 0.0123361 -0.00468587 -0.0212878 0.0126302 
-0.00320699 -0.019044 0.0126708 -0.00413224 -0.0233305 0.0127333 0.00217542 -0.0234427 0.0126628 
0.00924779 -0.0220671 0.0128141 -0.0205771 -0.0119791 0.013107 -0.0186946 -0.0105239 0.0129529 
-0.0134684 -0.0157442 0.0128421 -0.00951748 -0.0156781 0.01268 -0.00638182 -0.0146815 0.0126356 
-0.00245631 -0.0115282 0.0129717 -0.00258474 -0.00938927 0.013115 0.00315217 -0.0107926 0.0128495 
-0.0111245 0.0209956 0.0129657 -0.0174613 -0.0161134 0.0155268 -0.0170399 -0.0166325 0.0131373 
-0.0154119 -0.0182507 0.0138079 -0.0125721 -0.0202689 0.0145574 -0.0125097 -0.0174286 0.0139074 
-0.0153654 -0.0161805 0.0141843 -0.0102469 -0.0192091 0.014483 -0.00975469 -0.02143 0.0135602 
-0.0136791 -0.0187084 0.015283 -0.0160188 -0.0176957 0.0157414 -0.0138618 -0.0166787 0.0155881 
-0.0106177 -0.0214252 0.015499 -0.0100927 -0.0170389 0.0145207 -0.0145297 -0.0188459 0.0171435 
-0.0114343 -0.0179772 0.0159235 -0.0167477 -0.0168669 0.0174995 -0.0130207 -0.0173778 0.0173417 
-0.0129292 -0.0200122 0.0168053 -0.00930485 -0.0201366 0.0170597 -0.0108301 -0.0168374 0.0174661 
-0.0154678 -0.0181061 0.0187928 -0.0108455 -0.0189524 0.0178672 -0.0167284 -0.0169951 0.0199945 
-0.0111866 -0.0211917 0.0176065 -0.0134192 -0.0172689 0.0194861 -0.0130437 -0.0192643 0.0187637 
-0.0104444 -0.0176532 0.0194109 -0.0102369 -0.0196406 0.0197806 -0.0148531 -0.0187025 0.0206084 
-0.00987558 -0.0215111 0.0191678 -0.0123634 -0.020418 0.0203889 -0.00883026 -0.017645 0.0165885 
-0.00873205 -0.0220838 0.0207526 -0.00862997 -0.0222039 0.0167932 -0.00612816 -0.0191132 0.0130347 
-0.00362374 -0.0169303 0.0137005 -0.000654962 -0.0216943 0.0131075 -0.0073917 -0.0224862 0.0136198 
-5.45459e-06 -0.0237024 0.0134369 -0.00563424 -0.0164265 0.0139813 -0.00280004 -0.0215898 0.013643 
-0.00848126 -0.0180055 0.0133876 -0.00582613 -0.0209182 0.0142649 -0.00409671 -0.0194406 0.014529 
-0.00510009 -0.0233343 0.0145997 -0.00196928 -0.0237797 0.0147884 -0.00700787 -0.0182101 0.0149986 
-0.00688002 -0.0228602 0.0155169 -0.00274211 -0.0218025 0.0156839 -3.23293e-05 -0.0236992 0.015448 
-0.00806492 -0.0200685 0.014975 -0.00433483 -0.018103 0.0160295 -0.00663293 -0.0210586 0.0166477 
-0.00281779 -0.0174829 0.0177067 -0.00481874 -0.023278 0.0166309 -0.00465408 -0.0212778 0.015937 
-0.00653444 -0.016346 0.016049 -0.00250863 -0.0237231 0.0168773 -0.00331612 -0.0199063 0.0165967 
-0.000845596 -0.0221574 0.0164989 -0.000284636 -0.0238845 0.0174879 -0.00657019 -0.0229419 0.0175618 
-0.000833831 -0.0171594 0.0189351 -0.000748117 -0.0199878 0.0187547 -0.00286734 -0.021708 0.0176773 
-0.00796608 -0.0222635 0.01891 -0.00500257 -0.0216531 0.0179501 -0.000349588 -0.0220624 0.0184848 
-0.00274218 -0.0193706 0.0186024 -0.00385119 -0.023534 0.0184401 -0.00122703 -0.0239365 0.0193627 
-0.00563323 -0.0231714 0.0194363 -0.0024704 -0.0178324 0.0198799 -0.00218749 -0.0211304 0.0195532 
-0.000739221 -0.0192907 0.0207107 -0.00410466 -0.0217534 0.0197808 -0.00310279 -0.0236547 0.0203997 
-0.000434477 -0.0219235 0.0205157 -0.00281305 -0.0196587 0.0207725 0.00291515 -0.0208043 0.0133356 
0.00664389 -0.0228197 0.0136525 0.00400949 -0.019115 0.0139047 0.00527389 -0.0212728 0.0133554 
0.00449145 -0.0234806 0.013375 0.00757987 -0.0203401 0.0131956 0.00854309 -0.0184584 0.0134411 
0.00476534 -0.0172033 0.0135993 0.00622753 -0.0187094 0.0144168 0.00185868 -0.0236838 0.0146449 
0.00672188 -0.0211849 0.0148341 0.00420753 -0.0215085 0.0151039 0.00613481 -0.0167008 0.015111 
0.00540447 -0.0232266 0.0151864 0.00643587 -0.0190777 0.016388 0.00803783 -0.0175054 0.0152782 
0.0085765 -0.0221981 0.0148509 0.00359089 -0.0235591 0.0160012 0.00700866 -0.0227375 0.0163634 
0.00636685 -0.0171874 0.0171866 0.00773009 -0.0206948 0.0165035 0.00559929 -0.0209462 0.0165857 
0.00162356 -0.0237848 0.0168319 0.00159698 -0.0218915 0.0176369 0.00837883 -0.018015 0.0172949 
0.00676281 -0.0225096 0.0183582 0.00684936 -0.0187799 0.018511 0.00434407 -0.0189197 0.0159881 
0.00525446 -0.0232694 0.0171847 0.00358672 -0.0218516 0.0171295 0.00275713 -0.0201294 0.0178607 
0.0049654 -0.0209213 0.0184872 0.00392624 -0.0172063 0.0170514 0.00325521 -0.0236336 0.0180529 
0.00755783 -0.0206763 0.0186591 0.00434164 -0.0189228 0.0182484 0.00503765 -0.0164044 0.0191208 
0.00486803 -0.0233632 0.0193408 0.0062533 -0.0199571 0.0200558 0.00257905 -0.0177198 0.0184675 
0.00323785 -0.0217574 0.0191279 0.00110979 -0.0237944 0.0189319 0.00115236 -0.0207797 0.0192624 
0.00480972 -0.0181918 0.0200949 0.00707355 -0.0174746 0.0202602 0.00510572 -0.0215844 0.0204468 
0.00317113 -0.0195855 0.0199343 0.00673114 -0.0228071 0.020354 0.00294402 -0.0236143 0.0201378 
0.010709 -0.0188229 0.0133641 0.0111619 -0.0210585 0.0131352 0.0112523 -0.016746 0.0136381 
0.0147612 -0.0188768 0.0131985 0.0129382 -0.0180594 0.0134439 0.0145361 -0.0167369 0.0133869 
0.0129568 -0.0200816 0.0132083 0.00892751 -0.0222026 0.0171427 0.00893469 -0.0179793 0.0193278 
0.00876754 -0.0222592 0.0192574 0.00906679 -0.0201185 0.0203202 0.00947345 -0.0203987 0.0141347 
0.0165016 -0.0172426 0.0138408 0.00934361 -0.0194774 0.0161289 0.0101083 -0.0176946 0.0150613 
0.0115434 -0.016321 0.0156911 0.0115697 -0.0198745 0.0149806 0.0151901 -0.018258 0.0150616 
0.0137445 -0.0196445 0.0156124 0.0134379 -0.0171171 0.0151408 0.00925187 -0.0196881 0.0181238 
0.0101278 -0.02132 0.015797 0.0103785 -0.0172212 0.0180182 0.0116376 -0.0182983 0.0162834 
0.0167745 -0.0169829 0.0161963 0.0123299 -0.0203929 0.0168214 0.0135435 -0.0176246 0.0170728 
0.0154942 -0.0182373 0.0171316 0.0107237 -0.0212891 0.0178277 0.0121513 -0.0185056 0.0182097 
0.014013 -0.0194435 0.0177869 0.0122156 -0.0164634 0.0183437 0.0169394 -0.0168408 0.0181878 
0.0150205 -0.0162999 0.017924 0.0138027 -0.0174217 0.0191038 0.0156794 -0.0181161 0.0191749 
0.0107446 -0.0191061 0.0195734 0.0108812 -0.0211095 0.0199535 0.011042 -0.0169955 0.0200138 
0.0125001 -0.0203728 0.0188426 0.0141857 -0.0193121 0.0198101 0.012612 -0.0181648 0.0205554 
0.0127449 -0.0202116 0.0209018 0.014226 -0.0169436 0.0210441 0.0163503 -0.0174516 0.0209978 
-0.0195262 -0.0136962 0.0131399 -0.0215517 -0.0102617 0.0136009 -0.0223458 -0.00841343 0.013878 
-0.0194386 -0.00878858 0.0136749 -0.0171018 -0.00860237 0.0137338 -0.0178815 -0.0148057 0.013684 
-0.0179682 -0.0156354 0.019038 -0.0177676 -0.0127316 0.0139059 -0.0185521 -0.0145149 0.0174312 
-0.019871 -0.0127051 0.0149836 -0.0209161 -0.0087949 0.0152608 -0.0210751 -0.0111407 0.0154673 
-0.0184853 -0.00970672 0.0151838 -0.018357 -0.00765438 0.0152501 -0.018814 -0.0145737 0.0154423 
-0.0226567 -0.00782879 0.016327 -0.0218939 -0.00973976 0.0167261 -0.0192882 -0.00874263 0.016763 
-0.0192522 -0.0113051 0.0163205 -0.0199804 -0.0130377 0.0170557 -0.0209999 -0.0113648 0.0175158 
-0.0207344 -0.00765329 0.0176353 -0.0223065 -0.00869396 0.0183812 -0.0205002 -0.00956372 0.0182406 
-0.0190032 -0.00838792 0.0188765 -0.0205998 -0.00848467 0.0202022 -0.0217572 -0.0100921 0.0197126 
-0.0178136 -0.0101118 0.0170826 -0.0172754 -0.00822831 0.017535 -0.0174539 -0.0130444 0.0165094 
-0.0171268 -0.0111564 0.0155217 -0.017096 -0.00828212 0.0195344 -0.0148532 -0.0143838 0.0134303 
-0.0150839 -0.0122893 0.0137487 -0.0140366 -0.0104213 0.0139335 -0.0151013 -0.00873154 0.013656 
-0.0161296 -0.0104859 0.0137854 -0.0119987 -0.0096209 0.0138053 -0.00999127 -0.00973503 0.0136949 
-0.0156131 -0.015824 0.0188136 -0.0154509 -0.0156551 0.0165787 -0.0153956 -0.0157408 0.020831 
-0.0161613 -0.0144779 0.0150633 -0.0108723 -0.00861553 0.0156034 -0.0128152 -0.00926482 0.0155976 
-0.015045 -0.0105653 0.0160799 -0.015579 -0.0125696 0.015672 -0.0166655 -0.00906282 0.0157597 
-0.0102871 -0.00906669 0.0176217 -0.0143303 -0.00896747 0.0170628 -0.0135131 -0.0154136 0.0186867 
-0.0160075 -0.0139666 0.0177392 -0.0157024 -0.0119225 0.0175623 -0.0123224 -0.00960354 0.0178514 
-0.0140083 -0.0107698 0.017997 -0.0159628 -0.00993707 0.0179806 -0.0154734 -0.00799644 0.0183868 
-0.0138595 -0.0124512 0.0190757 -0.0138744 -0.00904794 0.0190081 -0.011171 -0.0107808 0.0190406 
-0.011273 -0.00886745 0.0196387 -0.00922983 -0.00953765 0.0193312 -0.00864633 -0.0135958 0.0188075 
-0.0147926 -0.0141817 0.0196734 -0.0108157 -0.0128916 0.019722 -0.0129669 -0.00825285 0.0206035 
-0.0144941 -0.0108443 0.0201038 -0.0151371 -0.0090007 0.0205722 -0.0102478 -0.0108167 0.0208217 
-0.0127743 -0.0101727 0.0211324 -0.0100239 -0.00888493 0.0212992 -0.00977319 -0.0152576 0.0190221 
-0.0133064 -0.0156449 0.0207583 -0.0126967 -0.0121574 0.02075 -0.0109052 -0.014646 0.0206783 
-0.00887397 -0.0121008 0.0201372 -0.00883036 -0.0096211 0.0154195 -0.0085427 -0.0111471 0.0140272 
-0.00819292 -0.0132414 0.0136765 -0.00545706 -0.0108338 0.0134654 -0.000857724 -0.0083947 0.0133803 
-0.00029916 -0.0105365 0.013548 -0.0036089 -0.0159742 0.0157249 -0.0027282 -0.0148428 0.0141069 
-0.000412795 -0.0141895 0.0139394 -0.00723834 -0.00946133 0.0140907 -0.00469252 -0.0128018 0.0140014 
-0.00468857 -0.00873635 0.0139576 -0.00835536 -0.0152122 0.0146637 -0.00021382 -0.012031 0.0149412 
-0.0061839 -0.00796201 0.0150742 -0.00353288 -0.0105122 0.0149358 -0.00682373 -0.011727 0.01491 
-0.000486843 -0.00994032 0.015448 -0.00643593 -0.013818 0.0155361 -0.00285804 -0.0124452 0.0147937 
-0.00408036 -0.0139254 0.0157382 -0.00782124 -0.0140234 0.0169953 -0.00427193 -0.00845014 0.0160143 
-0.00593997 -0.00979984 0.0159742 -0.0023167 -0.00913673 0.0160383 -0.00823989 -0.00955963 0.0173825 
-1.50779e-05 -0.00842587 0.0166881 -0.0028864 -0.010919 0.0167893 -0.00158189 -0.0127522 0.0164532 
-0.00492829 -0.0117671 0.0161397 -0.00684246 -0.0114582 0.0169463 -0.00361903 -0.0151814 0.0189424 
-0.00143742 -0.015408 0.020082 -0.00176985 -0.0157037 0.0176758 -0.00527725 -0.0150492 0.0173813 
[...]
POINT_DATA 5997
FIELD FieldData 7
id 1 5997 int
3668 302 5427 5038 5788 5263 5953 5950 4873 
2765 3593 3476 2275 1221 4916 5111 5790 1738 
4590 5654 1631 176 6009 5808 4460 812 4855 
4666 5677 4806 4312 4496 5514 2747 5301 4692 
5777 5281 5013 3254 5403 5908 5935 4426 5297 
3993 5232 5611 5017 4642 5885 5334 5107 23 
2928 3859 4733 4333 5621 4721 3465 4522 4197 
4912 4350 4706 3353 4004 5923 5497 5727 4530 
4570 4657 2325 4791 5743 5742 1934 2987 4748 
5041 5450 5274 5894 6039 5037 3926 6052 1519 
3783 5744 2272 5658 4913 5330 533 3921 4934 
6022 5615 2528 4140 5509 1555 5759 2072 1069 
4939 5392 2609 4346 5476 2250 4137 2518 4094 
5184 1977 1716 2956 3649 1239 2160 134 5932 
3084 6006 3800 5339 4208 5676 4926 5565 4106 
4365 1274 3754 4954 4847 5487 5832 3201 3944 
4220 4132 4747 3371 3779 64 46 5155 179 
1690 4228 3120 4259 1148 5618 388 5423 3293 
5143 570 916 3227 5125 5300 304 4042 5947 
1513 4705 5383 4840 1484 2531 3652 5551 875 
5809 229 5006 918 2283 2008 1464 4305 3811 
2281 416 2772 4200 3621 2824 31 2854 162 
5183 2997 4996 5844 5561 4199 1129 2593 5506 
4596 5986 5697 5609 5969 5841 1586 2529 5630 
4187 5444 4965 5520 5451 4876 5957 6057 2482 
2398 808 729 756 671 1901 4830 5054 4253 
157 2669 2911 4201 5706 4987 3273 4809 5470 
1234 4980 5507 3472 5933 5316 5268 5687 5029 
4763 5201 4864 6066 4923 5331 5770 4558 5112 
5486 4600 5412 5644 5843 5985 5150 4326 1305 
5836 3495 3390 4409 4462 3292 2741 4306 37 
5705 4673 5255 5304 5683 5879 151 4683 6023 
4402 5595 4665 5956 3697 3637 3596 5796 2723 
3017 5212 5089 4078 5145 4786 5373 5955 4410 
4543 5270 5899 3987 4877 2800 4445 5166 5593 
5446 6054 5130 2703 2845 409 1875 1100 580 
342 3498 479 83 2103 2770 2243 2442 3028 
3171 3807 4888 4549 4321 5131 4542 2878 4750 
4514 2684 4387 6055 5806 3794 5915 1879 3275 
3549 3988 6008 4285 2568 4136 2922 4859 6016 
4861 3308 2297 2917 5440 5433 4647 5997 4687 
3992 3606 5675 3267 5674 5998 578 3022 14 
773 640 2595 379 4917 3977 2739 2121 1528 
2673 1571 1729 160 213 1995 1499 2874 2301 
1051 5326 5215 1241 849 1811 3491 230 3402 
493 1399 425 1543 631 2799 2384 1338 1554 
1254 1857 3821 1465 5820 1945 3207 155 2278 
1722 733 625 3012 1639 973 278 122 3699 
4450 628 1754 1046 3723 2817 1504 1070 2637 
2057 48 286 105 68 1599 920 364 962 
61 1302 1013 702 637 550 261 154 215 
443 597 657 856 732 1776 760 1406 731 
854 378 484 432 71 115 59 185 273 
1226 3188 1186 1614 298 633 627 56 11 
77 62 4968 1649 397 1045 1968 2444 65 
210 285 689 1856 86 145 3339 2981 4825 
5211 4995 3217 366 3324 5959 5571 1810 1217 
1972 212 676 332 489 259 1111 1474 3770 
4480 4351 5603 587 2048 4868 4166 2025 3584 
1304 1866 649 614 13 5120 4266 2038 1008 
2877 1449 419 2342 3570 1320 453 2135 447 
5068 2234 4348 4237 2652 518 473 1760 4320 
2727 166 687 764 2836 1284 3758 1670 2558 
626 1400 223 618 983 5310 706 5036 2728 
4475 3166 1840 1016 1067 568 20 3999 369 
243 2226 2388 5178 6027 611 1694 2946 1337 
1913 761 218 546 5799 5789 4905 1353 3400 
718 1021 2242 1096 98 237 1262 2716 770 
5195 1714 3790 3073 226 1019 4161 511 2049 
5629 1372 595 16 1119 316 899 1505 1039 
970 4215 5199 1007 1141 452 158 2552 704 
994 1369 1425 709 5734 5536 2633 85 641 
913 186 69 1473 1906 4283 504 949 363 
2339 759 403 1546 3109 1269 3396 2193 2420 
5181 4211 5086 4075 553 1838 1930 564 1191 
3683 3162 1074 2572 1339 789 1318 1703 1308 
2927 2952 3505 4527 621 1062 107 1664 1772 
472 2091 1747 5490 4184 2017 1730 1692 1921 
1375 2 124 102 624 1757 749 5180 3074 
2545 3513 675 2062 1604 2143 1088 543 648 
103 5065 4129 4466 1176 880 1084 1110 395 
131 1648 1492 2228 3160 3546 1068 4744 2293 
3623 902 3348 1891 380 252 1195 3287 3158 
312 2915 2298 109 743 108 1570 565 1228 
274 3970 1824 1540 2354 661 100 988 1755 
712 87 445 144 408 1073 181 848 2138 
469 390 1733 779 870 1589 1900 1094 138 
1695 480 206 1842 1001 1126 92 711 1 
491 2856 905 2255 695 1042 94 2313 1332 
1630 32 475 1165 1880 1775 3397 1815 3352 
573 228 1426 413 169 393 788 1331 1675 
344 347 1666 1360 1526 1205 63 926 1225 
2958 2133 1041 439 110 156 1002 123 728 
943 1121 1430 818 820 799 690 354 961 
281 132 57 974 766 172 91 754 488 
796 577 359 1222 361 1769 771 619 995 
904 442 890 1248 748 420 751 1432 254 
328 367 371 798 978 73 1020 582 531 
457 238 171 1043 1367 950 38 325 268 
35 391 681 1386 315 1028 249 598 668 
343 662 320 96 72 295 137 882 180 
200 844 1263 1595 1230 1314 1089 503 1163 
1059 433 1343 219 2464 1829 719 1265 610 
784 791 558 246 1402 708 1299 1159 684 
939 467 1106 651 878 1066 581 1389 414 
1190 1058 271 402 601 270 505 836 887 
4062 1390 497 211 1237 392 606 2330 352 
1322 1376 284 1658 1288 1161 21 173 1427 
1848 189 931 2102 1267 2403 2076 1441 494 
450 1025 184 534 2868 1124 1197 2451 1858 
353 481 2070 1172 2408 34 824 301 1808 
507 727 2343 3384 269 769 2372 58 142 
554 2039 318 1493 2187 1026 5 1415 763 
1490 456 2258 464 592 804 1483 2648 1636 
1213 1627 677 1544 29 2005 2513 966 3452 
1168 1103 1765 713 334 1933 1676 2208 944 
1582 3512 3219 991 2762 1077 2016 3151 1398 
2263 1419 168 1746 326 427 2567 530 2823 
234 2069 5042 2037 2720 841 2327 2127 1768 
2592 1668 1227 1108 3444 1104 2756 3572 833 
1899 1529 2274 4090 4519 1576 2907 2498 5254 
3540 1669 5735 2613 3741 4679 3172 4369 2100 
1220 2116 2764 2583 825 3823 2979 4870 5753 
2249 2732 2806 3322 4065 4037 2113 2501 2965 
3629 3004 4273 2440 1481 817 1229 3494 1944 
2084 3569 1881 1624 1610 1545 1279 985 275 
517 972 2503 1527 2474 1152 2912 3193 2171 
2537 2924 3215 2645 1607 2753 351 283 2631 
220 2869 2399 1761 3394 1973 1928 4396 3932 
444 3776 1717 2534 1079 2158 3958 3266 1979 
4817 4263 4785 3239 3672 3367 3311 2880 2051 
1488 5121 2839 3585 2735 2036 1781 128 1678 
2401 1958 1629 2114 2173 2681 2780 4084 1282 
4521 1264 1182 3009 6017 4229 1744 1035 1932 
1559 2198 7 2701 1652 2550 1275 348 3478 
3960 579 4015 3901 3277 4703 1080 1365 1443 
2162 4248 2269 4537 1907 2736 2539 1936 355 
4022 4700 2065 2594 2555 4819 5409 4955 4792 
1562 227 2713 471 1904 741 1523 1132 2692 
1680 76 113 666 3989 2597 832 1098 683 
2883 1072 1603 150 277 1350 734 1200 428 
1167 33 2646 2071 74 399 907 2659 205 
2130 2221 3610 747 2390 2600 382 2280 946 
2169 309 291 1642 161 152 2803 2154 1640 
2838 2950 159 1027 5876 5386 5739 1834 1410 
292 3559 4731 1333 1735 2452 646 813 4557 
800 2244 4433 2564 3906 55 5278 3124 4225 
175 2578 1565 3103 1107 3985 2508 2050 5550 
47 3946 2122 2776 3762 1947 3140 4256 730 
5282 3312 5481 4381 4883 3746 3153 1475 1912 
2422 2319 4202 3711 79 3350 4234 333 989 
4909 4713 4816 4406 5275 1105 1606 5992 857 
4223 4053 2224 2683 3165 3313 4107 5642 3195 
4096 2350 4207 3177 2811 4355 3184 1173 1751 
4860 4490 3583 4835 5566 4572 5140 4354 5623 
4343 5729 2879 3909 5193 5921 3662 5861 3340 
5091 4667 2964 3620 3111 5702 3785 787 4327 
2322 4979 5849 4559 509 1991 5103 2605 4582 
4850 5082 4262 4495 4272 2941 5564 4880 4484 
2943 3433 2229 1296 3245 4964 3496 4162 4382 
5655 3895 5200 5810 5765 5350 4505 5589 3994 
5320 1882 3686 3713 6011 722 4357 4470 4966 
4472 4246 3407 1833 1997 3260 5556 5977 4575 
3967 3447 2951 3235 3757 3844 3648 458 5174 
4632 4478 5115 532 4671 5357 5884 5862 3963 
28 2809 536 4329 2812 146 5659 3990 1330 
3406 5974 3388 3043 5309 2431 2377 903 2945 
4416 5731 3639 5994 2760 605 4341 653 5162 
4295 3470 1385 2265 4269 3863 2757 3306 4795 
4932 3837 5421 5353 5941 4249 2777 4372 5176 
5671 5573 1368 5410 502 3576 477 3795 4646 
3479 1081 4392 5538 3913 4280 5390 236 3907 
4124 1889 3791 5478 5761 4086 2689 3680 2055 
3344 2267 4890 5982 4653 5717 1949 1052 3819 
3695 5919 2235 5291 4021 2462 418 4994 1785 
2538 5718 5233 1287 1495 5359 1444 483 1549 
2705 2849 4971 4551 4565 5711 1812 4858 3069 
4449 6064 3163 5510 5823 4191 2649 3784 1459 
5202 4011 5482 4762 4534 4664 5266 4919 3018 
5422 5750 4567 3865 4158 5917 1592 3984 5813 
2852 4585 54 485 4141 5707 5083 4422 4518 
5872 5913 2540 4815 120 5574 3674 3575 4685 
5920 2486 4749 5460 3236 4605 3253 3301 5949 
4775 5588 5747 4535 4532 4624 5662 4315 3854 
4945 5666 5673 487 3181 1417 1600 1855 1160 
4206 1374 1533 5678 5975 5867 979 4028 4525 
5590 2810 5825 3858 811 5055 2834 5323 4413 
2746 5875 4942 5523 3619 3722 4943 4508 3684 
3738 5352 4517 4933 5692 6051 1645 3066 4591 
4643 4347 3924 4148 5816 4516 1890 3477 4773 
5416 5056 2585 4294 888 3102 465 5803 5634 
2640 24 5508 2260 3653 4340 5342 2639 1878 
1485 2391 1515 5139 1311 311 3248 3875 3116 
5196 4612 1467 5222 5580 6068 2860 1696 5555 
1312 4049 2241 3748 5204 1590 1125 5828 5794 
4383 1355 5667 5413 814 1886 2881 2516 1789 
4771 3425 1144 2955 762 571 3730 1530 1736 
2047 932 3701 1392 4528 1957 5782 1985 125 
5951 4580 5312 2030 4626 5679 3105 3142 4949 
5366 2166 6010 5101 5898 4940 4759 4195 5001 
4087 4953 2393 4403 6060 4236 4634 5032 5179 
3772 4114 5132 3655 5531 5521 5175 5234 3892 
5817 5484 5172 5314 3237 2831 1917 3618 4443 
4128 3882 4139 5726 4098 2796 5329 1060 3898 
3642 5995 4008 4153 4040 4282 4848 5732 4367 
3981 2674 4452 5500 2259 5361 3182 5909 4831 
5177 5026 3530 4869 2326 5591 5197 3650 642 
3735 1138 2045 1708 4487 3964 5147 2412 2056 
3454 1710 5203 858 4170 5645 2099 1438 294 
5448 5153 5280 4628 1593 6049 3856 1859 80 
4284 3953 3370 3651 1981 3434 5962 4260 4233 
5715 5164 1236 5586 958 2194 1818 4663 3011 
2783 5109 5544 3729 680 1257 717 837 293 
129 496 3646 925 1865 1732 4655 1232 975 
1728 1381 1602 1290 545 703 3304 346 930 
5559 454 2108 1987 1395 667 5754 3580 6041 
5157 5321 5133 5628 5365 5592 5262 3240 5019 
5824 5694 5156 5680 5277 5608 5189 5333 6046 
6053 5122 4722 5627 5099 5848 5914 5685 5553 
4602 5094 3630 4401 3285 5887 5391 5892 5474 
6065 4385 4675 4699 5569 5891 4235 3185 5758 
4593 3566 5258 5428 4241 5858 5657 5968 5877 
3877 4290 4802 3991 2218 4649 2993 4688 4000 
4145 4163 5939 4142 4455 5991 5067 4050 4710 
3507 4778 499 5198 3356 1450 4797 3243 5756 
5607 5993 5025 5384 5530 654 5306 4838 1823 
5698 5149 5411 4754 6038 3673 4219 6031 5518 
5822 3588 2323 4227 4752 5010 5324 5218 5881 
5044 4335 5473 3515 4812 5431 4541 4899 5524 
4143 4319 4441 4947 4435 4243 4277 5225 5826 
3969 3044 2973 4853 2003 5733 5689 3357 3978 
4012 4681 6012 6000 5374 5114 1996 5882 4638 
3038 4513 4407 1003 3995 5710 5585 5137 2601 
4384 5797 3122 1171 5883 3743 5780 2276 5542 
5648 1705 2379 5637 4118 3927 1951 5152 4614 
1903 3682 775 4342 3983 4003 5020 6040 5903 
5964 4380 6062 4604 5626 4425 3372 5784 5385 
5996 5299 3659 3774 3460 2456 1291 4563 3862 
5045 2748 1037 3164 4798 2371 1758 2797 6028 
5795 4743 3817 4168 528 1327 338 2118 5379 
2386 3183 3690 3127 1297 1233 3302 1285 1178 
3822 2096 1902 3525 1661 1884 2861 5397 12 
4672 2078 1643 862 1598 1720 4461 10 45 
3246 3272 4 647 783 693 305 224 1699 
720 1552 1193 692 17 602 1048 1346 757 
714 908 232 67 967 208 851 4724 4738 
4717 3632 2296 1150 5960 4621 4506 5540 5370 
644 1064 3381 3032 884 4760 2414 4829 1136 
4286 4935 2520 4907 2740 4112 5146 1501 5224 
917 2424 3544 463 4944 4631 5447 5420 2458 
4610 2409 1114 1404 5015 2074 3274 3225 2453 
3930 2364 5768 1787 2423 6036 4999 5348 4846 
5893 4054 4793 5563 5582 1698 1378 5605 2410 
1655 5989 2264 5206 4598 3002 3019 4956 5505 
3712 5113 5596 5965 2366 50 1300 802 1525 
3937 5100 5116 4799 2331 5749 2708 279 3 
2833 2560 3200 1766 5778 3202 4693 5347 3168 
5074 2203 5182 2134 2416 5382 2846 4976 519 
2629 2040 5002 1651 5860 5643 3914 4698 5701 
3553 3777 3917 5963 3232 2495 2014 4398 2664 
2115 5340 5647 5354 5874 2670 2253 4836 3732 
2058 1633 3189 117 2385 4702 3284 2976 5442 
4111 4076 5261 1401 4952 4772 2617 5023 5475 
2954 2902 4252 3851 1158 4886 4017 2853 5814 
5954 3052 3279 3317 3077 2095 5516 1468 1189 
5248 5454 1942 1893 1783 195 3827 1567 1520 
1792 4456 2222 3229 3603 2892 960 3577 2521 
1453 5539 4258 3501 2925 2527 2129 5117 2369 
4691 4777 650 3398 5377 2660 4500 3828 5512 
4986 790 2191 1315 4150 1090 5751 3720 2815 
2300 4719 3467 3065 3679 1938 3545 3079 1994 
3315 1767 2626 3331 247 1218 2724 1143 18 
1509 251 4885 2657 1723 296 2429 1777 396 
2890 794 1491 340 1047 1295 2457 1347 4969 
2001 636 2499 1294 3749 1742 9 1209 752 
1183 3436 910 111 202 981 265 1146 529 
1535 508 2317 2200 1391 2344 2532 1594 482 
2083 2439 1325 1887 2145 4720 2535 1581 255 
2046 214 586 861 630 1065 437 1584 881 
1506 957 368 1177 541 723 362 383 373 
199 1033 1587 1662 89 235 1071 193 526 
999 540 1223 93 898 539 737 1843 1572 
964 1429 1351 2612 1017 455 112 8 1204 
998 846 1578 1579 276 894 310 935 1550 
816 2288 1015 679 549 30 377 740 593 
976 885 262 1049 866 781 126 4970 1424 
2805 963 1215 2073 1307 2541 2067 1511 2470 
940 2471 643 1249 2320 506 22 2239 140 
2792 971 1421 1885 241 2338 566 1564 2561 
830 15 2842 3565 2212 1010 36 912 2581 
845 672 877 3289 544 623 2463 258 1329 
1283 1379 2240 959 183 1276 1956 3001 1786 
40 424 552 922 4230 3489 2916 2192 2906 
3148 3548 3781 3037 2998 778 823 4617 97 
2337 1207 426 599 1637 3462 1440 2794 4190 
801 2201 3694 1672 2341 656 864 805 4361 
1619 3391 537 860 2804 2112 1032 921 694 
244 2625 699 2711 2658 4307 777 1969 3728 
2650 2287 3078 1145 2687 852 1801 2904 3518 
2053 1807 1646 3014 5005 4540 4411 2795 1187 
2360 3294 3194 478 4108 4597 4900 3624 3238 
3633 3466 1036 3082 4097 2774 3159 4896 3986 
3910 3058 2696 4577 3681 4055 4578 1920 742 
1510 4310 2957 3300 4756 947 4531 1817 2596 
1370 1472 3554 5483 1214 3268 3049 4298 4368 
3724 1476 1876 4553 3497 5491 3734 1130 3118 
2602 3427 3634 2433 3903 3360 2307 4599 2742 
3886 350 3136 2608 2986 299 513 2968 3520 
716 2808 1763 3831 2930 3329 3170 4172 4623 
5868 2830 1990 4583 3086 2179 2967 1006 2254 
3857 2962 4063 4023 3900 3521 2665 2206 3224 
3537 4468 2875 4332 322 4176 2775 2882 1663 
3771 2661 2942 2329 2752 4255 2691 1210 5477 
5236 5746 3055 4820 3840 2153 5661 2332 1451 
5288 2870 4068 313 25 501 2983 3595 4454 
1804 3178 4768 5896 3661 5522 1127 1849 5168 
4734 2733 590 3594 3244 3471 2614 3081 2139 
2019 1336 2781 3586 448 613 2136 4715 3152 
5035 3635 2107 4515 2743 3561 4608 660 1278 
3590 256 4458 1946 1198 1137 745 1272 620 
372 466 1321 3358 969 423 634 2828 5772 
3413 2167 1850 2031 622 239 2738 1435 1153 
1939 4336 810 3527 1820 4451 3068 5098 3374 
4119 1641 4985 3510 4753 3940 4937 3677 6007 
4737 4871 2840 2584 1794 3693 2425 5393 4958 
5014 2821 2059 4024 4581 5847 4533 4370 3346 
3552 5911 1993 4181 4146 3440 3531 4959 2009 
3539 2647 3759 2054 394 2438 1568 2435 2147 
1709 3609 2247 6059 5319 5719 3896 4473 3380 
4030 2630 2929 4589 5207 4009 5922 3483 2316 
4476 5161 4173 5801 4908 4925 5165 5901 2901 
3996 2970 4104 3522 4887 4764 2549 510 1623 
3310 4204 4309 4482 4796 4147 4497 2676 4548 
3190 4552 2624 5700 5243 2884 5840 3962 5000 
2052 4060 2309 2940 5829 2990 5286 2891 3883 
2974 5242 3891 4188 5090 2671 3323 5952 1892 
3363 5317 2802 5929 5060 4704 2086 4334 3167 
3280 2918 4002 3764 3187 4716 4304 3461 1206 
4058 3508 3626 3929 5439 5402 4010 2205 3125 
4404 3198 3568 4395 3088 3551 2035 1616 2380 
1345 272 4032 3739 1931 5690 5293 4373 4070 
4029 4099 2381 4232 4437 3617 3506 4125 1251 
5160 1012 5128 555 4430 4512 4072 2565 5307 
4930 4014 4169 90 5537 3216 500 3696 1704 
2093 2896 4052 3258 5290 948 5356 119 1800 
1869 3026 3354 2977 2551 1656 4171 2092 5400 
4027 1573 3083 3226 1184 1697 4882 4051 5752 
1128 1397 1963 3868 2180 5039 5599 5728 4069 
2068 1342 1076 5063 1377 1313 2144 41 1719 
3123 6047 1759 2097 1553 1740 1011 1099 2704 
2302 2984 2150 1061 106 915 405 2773 1877 
4732 1537 1864 1266 4300 3251 3421 4746 4866 
2110 5930 3355 3441 5346 4352 3980 2909 840 
2437 2373 1349 1712 4033 2725 5763 1498 1961 
2497 3688 2934 3121 1750 1852 1181 4938 4808 
3129 4827 2487 855 4100 2015 5546 5568 3876 
4182 4067 3113 3952 5443 2517 3326 4474 3349 
3428 607 2472 2504 5973 5318 3499 5549 4878 
3849 2314 2548 2061 2396 2690 1774 2634 53 
5399 2616 5461 3879 5088 4264 3405 3887 4821 
5265 1799 3107 5987 2621 2004 3208 1371 5575 
5614 5709 3241 3218 2392 4520 5748 4629 5970 
4362 4661 5159 3101 5696 2897 2168 4852 3627 
1677 4268 4390 3613 2172 5672 5602 5695 5557 
5170 4469 4281 5355 4603 4988 6021 5008 486 
2749 5601 2363 1396 589 1420 2611 933 3070 
5387 3600 5978 1798 1971 3307 1135 280 5545 
5369 4766 834 5819 739 5096 688 386 5464 
5937 4574 1862 1407 4736 4669 3365 4668 897 
451 3175 3186 3705 1988 4494 5325 2042 2123 
4488 1809 538 4676 1749 1734 772 5285 1693 
4707 4005 3866 4121 5665 2220 4978 3485 1547 
1348 4330 2656 4209 194 360 1458 6003 1841 
245 1561 5337 2574 1574 4564 2120 331 1306 
1211 1860 2481 4957 4901 3362 535 4020 217 
4613 5437 5375 5910 3825 5059 5485 5419 4214 
5641 4982 4175 3915 4765 2090 3468 5190 2991 
3191 1470 3211 5691 5785 3715 1524 4865 5488 
5360 5807 5889 5786 4554 4364 5142 4412 3464 
5579 5827 3137 4843 3948 5712 4975 5004 2996 
5864 5093 5185 4915 4941 5371 4962 1238 2714 
5445 5650 2822 3848 5850 2700 2556 5838 6005 
3612 2920 5425 349 4056 5066 4358 4783 4636 
1935 5940 4568 5186 5123 3647 4503 1788 2367 
4244 2638 2142 267 4007 4684 3663 5302 2140 
4477 5906 4972 114 5449 1179 167 612 4155 
233 5578 5805 2195 4297 4144 4936 2573 3658 
3359 615 5740 776 674 2032 6029 2006 673 
435 1782 1091 1115 1715 527 289 1056 2188 
896 691 4424 5781 4745 4526 2109 5632 3756 
4984 4652 5075 4378 5857 5376 2190 5228 4393 
4789 5755 2124 1500 4389 1580 4784 3455 3412 
4875 5722 3725 5235 4328 6070 5459 5238 4429 
5688 3667 4059 4498 4906 3780 4287 6032 4711 
3852 4545 3885 3214 3812 5888 1534 2899 3708 
4770 3401 3221 5043 2515 3843 4457 3486 5927 
1635 2579 4824 5279 3899 5943 5625 4185 5372 
3161 5501 1793 4895 1082 3442 5245 4893 4157 
5863 5287 5918 4967 3810 335 4504 1224 5543 
5031 4046 3046 3382 3050 4152 3869 5009 4134 
6015 4678 4973 4465 5492 5237 5011 3090 5639 
5240 3128 3902 4377 5308 5167 5069 5322 3950 
4997 5617 1984 3860 1814 548 3314 4267 2807 
2355 5205 2667 5890 2225 4073 2022 5252 3212 
2710 4293 1009 3487 1551 1556 4818 3925 1286 
99 1659 1112 923 4539 4725 1805 2413 663 
1605 1489 2745 4174 5811 492 1053 2318 4492 
2077 136 583 104 1095 847 1463 133 1897 
567 1731 1149 1031 130 1771 585 4639 3023 
2980 1344 222 2651 410 609 470 1151 1521 
1319 495 2672 639 2289 1292 404 70 1289 
984 290 782 148 584 2663 1352 1539 576 
446 750 436 201 2682 1244 1563 1169 370 
774 260 2290 2374 2376 1411 3625 4127 2576 
5135 1199 1983 3029 2271 3327 4650 2417 2304 
1482 3945 5818 3789 1502 1711 4025 4446 980 
1261 81 1412 560 1691 2230 2530 797 407 
2351 2450 2345 1538 3033 5907 4431 2655 5223 
5541 5106 3591 3664 4019 4510 4400 1383 1354 
3053 163 5725 3614 5533 4788 5619 1745 2159 
2847 4481 1532 2717 4071 2480 2893 2778 2761 
3564 3376 1301 5714 2569 1681 3059 1326 3067 
3457 2975 3383 2336 1628 4292 4660 5528 4254 
5327 4595 4179 2829 3368 4356 1784 4375 3138 
1748 5079 4238 5774 3750 5057 4414 2832 3571 
4587 4165 5104 3972 3718 3072 5073 6030 2566 
5493 5640 6024 3330 5231 4156 2816 4550 2712 
2782 2375 2734 3716 5594 4250 6048 5401 5613 
5097 3918 5513 4854 4714 4459 4928 2767 3955 
3726 3916 3051 3839 3449 5766 3504 3332 5404 
1309 3143 3141 3763 4151 3270 1418 5479 5597 
3872 3492 3599 5931 5984 3481 1965 3336 4686 
4822 3414 4872 3176 5305 3912 2080 753 1408 
2971 1235 785 3573 2855 4391 2149 2544 4801 
705 5834 2937 1955 498 1978 3786 3853 1078 
2176 4911 1613 1982 4270 2693 1394 1478 2292 
2165 3114 2434 2340 5328 2865 2473 965 4950 
1364 5703 617 5631 2251 1324 865 3889 2349 
430 147 1359 525 178 1256 1131 953 240 
1054 952 440 867 207 1486 95 588 1004 
1667 945 1203 557 900 735 1830 384 101 
1113 1845 755 1724 843 1770 127 2273 287 
685 263 1202 1382 242 744 815 257 608 
1752 604 1273 1310 909 329 357 2348 889 
951 2695 819 1253 879 461 686 2023 1122 
2028 3665 2454 2707 2697 1250 2098 1101 253 
1268 659 669 3119 1753 2378 3556 2183 3341 
3234 2432 2533 928 2007 635 2677 2446 2421 
330 938 1175 516 2763 2213 2400 1566 2903 
118 1952 365 3192 924 2459 2598 375 937 
2299 955 2043 2000 807 936 2155 6 863 
2085 1998 698 2018 1954 174 2785 3071 3007 