# vtk DataFile Version 4.2
Generated by LIGGGHTS
ASCII
DATASET POLYDATA
POINTS 5997 float
-0.0165304 -0.0171524 0.0125296 -0.0114593 -0.0196476 0.0123313 -0.0121099 -0.0176833 0.0126073 
-0.00889126 -0.0203447 0.011893 -0.0150951 -0.0185272 0.0117696 -0.00980047 -0.0185381 0.0119592 
-0.0105537 -0.0214662 0.0119761 -0.0135201 -0.0195002 0.0126981 -0.0142498 -0.0171682 0.0129803 
-0.00845071 -0.0222916 0.0121877 -0.00689619 -0.0210789 0.0118096 -0.00758637 -0.018589 0.012246 
-0.00412722 -0.0234845 0.012342 -0.00562228 -0.0195737 0.0121404 -0.00328024 -0.0205101 0.0123579 
-0.00500463 -0.021534 0.0122848 -0.00575026 -0.0175078 0.0124168 -0.00212498 -0.0176395 0.0123726 
-0.00386396 -0.0185815 0.0126855 -0.00625944 -0.0231227 0.0125188 -0.00186133 -0.0222139 0.0120209 
-0.00131197 -0.0201589 0.0122494 -0.000486018 -0.0237974 0.0123854 -0.000421692 -0.0185107 0.0129666 
0.00043983 -0.0209246 0.0128472 0.00160902 -0.0237339 0.0126001 0.00320914 -0.0198635 0.012406 
0.00418974 -0.0216838 0.0129151 0.0052915 -0.0196427 0.0129993 0.002368 -0.0174134 0.0129048 
0.00556654 -0.0232007 0.0129883 0.00598439 -0.0213262 0.01205 0.0043207 -0.0178477 0.0129879 
0.00721235 -0.0197641 0.0123268 0.00705436 -0.0178417 0.0129414 0.00743912 -0.0226805 0.0123598 
0.00930106 -0.0219028 0.0123259 0.0111165 -0.0210894 0.0127601 0.00920826 -0.0198969 0.0125645 
0.0129302 -0.0200983 0.0122837 0.0150343 -0.0186542 0.0125849 0.0102806 -0.0180639 0.012632 
0.0134836 -0.0175431 0.0119463 0.016497 -0.0172858 0.0120818 0.00875045 -0.0167851 0.0128382 
-0.0183769 -0.0152707 0.0120746 -0.0211787 -0.0108271 0.0125659 -0.0190494 -0.0114347 0.0124799 
-0.0193952 -0.0135027 0.0124876 -0.0181952 -0.00943001 0.0123966 -0.0201516 -0.00891532 0.0127469 
-0.0222386 -0.00884222 0.0127323 -0.016386 -0.0151338 0.0118685 -0.0151155 -0.0135918 0.0120149 
-0.0158062 -0.0118469 0.0127303 -0.00975062 -0.0130062 0.0119415 -0.0117782 -0.0154297 0.0121719 
-0.0138329 -0.012161 0.0125921 -0.0125766 -0.0137376 0.0128978 -0.0138237 -0.0153657 0.0121707 
-0.0118895 -0.011177 0.0120665 -0.0099292 -0.0111089 0.0125636 -0.0136051 -0.0101873 0.012348 
-0.0155857 -0.0098399 0.0127146 -0.0110107 -0.00937226 0.0122876 -0.00902604 -0.00929668 0.0126178 
-0.00397605 -0.0165626 0.0125154 -0.00792964 -0.0113888 0.0129953 -0.00591937 -0.0114265 0.0123483 
-0.00698089 -0.0131373 0.0125768 -0.00346123 -0.0145262 0.0130031 -0.00320283 -0.0122104 0.0121908 
-0.00414104 -0.0102935 0.0122695 -0.0049101 -0.0132476 0.0124501 -0.00180303 -0.0156802 0.0127045 
-0.00177813 -0.0136256 0.0124046 -0.00702576 -0.00960432 0.0128724 -0.000191134 -0.0113165 0.0124375 
-0.00522417 -0.00861061 0.0125521 -0.000241018 -0.00929609 0.0122714 1.98567e-05 -0.0145608 0.0122536 
-1.14372e-05 -0.0165736 0.0126877 0.00171549 -0.0135762 0.0128595 0.00565225 -0.0163662 0.0127953 
0.00360957 -0.0152156 0.0127356 0.00473032 -0.0112227 0.0124403 0.00373936 -0.0129995 0.012611 
0.00566326 -0.0143609 0.0124605 0.00631975 -0.0125598 0.0117649 0.00602568 -0.00968217 0.0123213 
0.00411257 -0.00924905 0.0128744 0.00753358 -0.0109788 0.0119562 0.00794199 -0.00907693 0.01248 
0.00804012 -0.0148823 0.0129005 0.0142871 -0.0118204 0.0114092 0.0162352 -0.0122787 0.0112634 
0.0139579 -0.00840079 0.0115454 0.0101272 -0.015349 0.0123335 0.00945811 -0.0113607 0.012388 
0.0127406 -0.0129174 0.012071 0.0136079 -0.0151617 0.011805 0.011739 -0.0166061 0.0122615 
0.00995905 -0.0133346 0.0123124 0.0119257 -0.0146035 0.0127953 0.0114313 -0.010933 0.0119118 
0.0149106 -0.0136302 0.0119946 0.013305 -0.0102123 0.0120922 0.0153926 -0.00974005 0.0121205 
0.0156006 -0.0155189 0.0117527 0.00983376 -0.00942835 0.0119106 0.0117907 -0.00882798 0.0122038 
0.0212735 -0.0108974 0.0113494 0.0173806 -0.0100902 0.0114787 0.0221235 -0.00899954 0.0110361 
0.0189237 -0.00875699 0.0114083 0.0170167 -0.0140702 0.0117315 0.0191359 -0.014308 0.0115798 
0.0178956 -0.0158769 0.0116164 0.0182459 -0.0124753 0.0117795 0.0203017 -0.0126685 0.0115857 
0.019248 -0.0107227 0.0119604 0.0168903 -0.0113319 0.01298 0.0206265 -0.00931174 0.0123874 
0.0174048 -0.00848826 0.0127643 -0.0205268 -0.00689584 0.0125476 -0.0223638 -0.00677294 0.0117653 
-0.0186669 -0.00606669 0.0126496 -0.0217767 -0.00401359 0.0126746 -0.0232292 -0.00537281 0.0129667 
-0.0182933 -0.00407327 0.0128252 -0.0200098 -0.00300627 0.0129383 -0.0236727 -0.00323222 0.0123328 
-0.0173623 -0.00227457 0.0125078 -0.0170292 -0.00723987 0.0125991 -0.021194 -0.0017017 0.0119439 
-0.0191189 -0.00134778 0.0122616 -0.0238427 -0.0012315 0.0122653 -0.0151287 -0.00787966 0.0125207 
-0.0165674 -0.00490007 0.0120951 -0.0107564 -0.00366244 0.0123209 -0.0109647 -0.00573675 0.0126752 
-0.015547 -0.00312905 0.0120099 -0.0131438 -0.00821205 0.0124293 -0.0126684 -0.00429152 0.0123602 
-0.00967948 -0.00737677 0.012625 -0.0130577 -0.00623101 0.0128585 -0.0145412 -0.00493015 0.0119997 
-0.0128356 -0.00195396 0.0117955 -0.0108712 -0.00166279 0.012126 -0.0146649 -0.00129044 0.0123712 
-0.00878059 -0.00369793 0.0126729 -0.00880305 -0.00169834 0.0123375 -0.0162862 -0.000103272 0.0121891 
-0.00396881 -0.00697961 0.0122138 -0.00564886 -0.00585513 0.0123403 -0.00288325 -0.00234874 0.0126585 
-0.00737 -0.00753773 0.0125085 -0.00240569 -0.00431415 0.012634 -0.00699423 -0.00244957 0.0127597 
-0.00527769 -0.00141308 0.0128947 -0.00150193 -0.000939387 0.0122906 -0.000728213 -0.00591485 0.0124327 
-0.00349699 -0.000454869 0.0123931 -0.00730019 -0.000348836 0.0129526 0.000198952 -0.00411595 0.0125086 
0.000749738 -0.00762984 0.0128478 0.00455929 -0.00718624 0.0126836 0.0026914 -0.00782276 0.012358 
0.000157726 -0.00209266 0.0126586 0.00217615 -0.00368038 0.0121058 0.00536602 -0.00534648 0.0124747 
0.00148559 -0.00588395 0.0121897 0.00490299 -0.00338476 0.0124179 0.00336467 -0.00541143 0.0126963 
0.00641847 -0.00770576 0.012155 0.00339024 -0.00208088 0.0120976 0.00688069 -0.00376011 0.0122401 
0.00714508 -0.00589444 0.0116921 0.00534215 -0.00145786 0.0120913 0.00172591 -0.000973511 0.0119021 
0.00741275 -0.00181589 0.0120117 0.0146577 -0.0063975 0.0114169 0.0149535 -0.00320261 0.0109146 
0.0160423 -0.00785542 0.0113772 0.0162397 -0.00495895 0.0109749 0.0131826 -0.00494145 0.0117021 
0.00913494 -0.00747761 0.0120522 0.0126265 -0.00698209 0.0120467 0.00898036 -0.005189 0.0120755 
0.00893333 -0.003121 0.0118448 0.0107591 -0.00617011 0.0118985 0.0106704 -0.00411911 0.0117468 
0.0124466 -0.00304906 0.0116761 0.0105864 -0.00201383 0.012064 0.0150119 -0.00471035 0.0126779 
0.0139465 -0.00275781 0.0129723 0.0160276 -0.00243036 0.0127233 0.0128409 -0.00101746 0.0118061 
0.0148724 -0.00122916 0.0115421 0.00921424 -0.000540853 0.011949 0.0160996 -0.000111464 0.012702 
0.0197962 -0.00522668 0.0106653 0.0190727 -0.00264385 0.010772 0.0205755 -0.00760362 0.0105978 
0.0232767 -0.00516416 0.0107425 0.0214569 -0.00406524 0.0108003 0.0175135 -0.00652969 0.0110628 
0.0227841 -0.00711251 0.011172 0.017127 -0.00306689 0.0110859 0.0236569 -0.00277289 0.011219 
0.0218282 -0.00188663 0.0110472 0.0237231 -0.000658523 0.01125 0.0182559 -0.000179606 0.0107847 
0.021167 -0.00595583 0.0120282 0.0178926 -0.00480828 0.0121473 0.0223839 -0.00818432 0.0128798 
0.0192358 -0.00695687 0.0122262 0.0200164 -0.00403065 0.0122739 0.0230241 -0.0060287 0.0129271 
0.0235615 -0.0040309 0.0129104 0.0217456 -0.00306676 0.0127258 0.0179781 -0.00148741 0.012343 
0.0198804 -0.00112896 0.0118316 0.0216087 -0.00106942 0.012874 -0.0182209 0.000473643 0.012384 
-0.0221378 7.87071e-05 0.0119988 -0.0238521 0.000690588 0.0129102 -0.0215774 0.00206757 0.0117809 
-0.018147 0.00288354 0.0125018 -0.01999 0.00369715 0.0123337 -0.0197744 0.00172099 0.0126338 
-0.0237875 0.00267969 0.0126003 -0.0183422 0.00485719 0.0121591 -0.0233844 0.00447969 0.0117557 
-0.021349 0.00516493 0.0120462 -0.0196272 0.00636734 0.0117939 -0.022962 0.00641476 0.0120566 
-0.0167164 0.00602709 0.0122585 -0.0204143 0.0081827 0.0121109 -0.0184136 0.00798386 0.0119708 
-0.0113647 0.00198417 0.0121065 -0.0164057 0.00186917 0.0124983 -0.0164919 0.00403052 0.0124185 
-0.0104946 0.000252238 0.0126277 -0.0145617 0.000992804 0.0124862 -0.0132634 0.00255095 0.0123907 
-0.0119579 0.00406693 0.0122423 -0.0095801 0.00289653 0.0121922 -0.0114482 0.00600316 0.0122409 
-0.0147971 0.00539652 0.0124563 -0.00913959 0.00649096 0.0124151 -0.0145083 0.00737953 0.0121916 
-0.0106006 0.00784548 0.0121311 -0.00860639 0.00123241 0.0127666 -0.0125966 0.0079903 0.0121411 
-0.0164087 0.00800435 0.0121608 -0.005088 0.00790762 0.0116028 -0.00313291 0.00155476 0.0121916 
-0.00229598 0.00491463 0.0120762 -0.00629789 0.00451774 0.0122311 -0.00429805 0.00464418 0.0120442 
-0.00535518 0.000561635 0.0124915 -0.00687167 0.0022712 0.0124439 -0.00824388 0.0042699 0.0127777 
-0.0049384 0.00278001 0.0125539 -0.00355038 0.00649902 0.0119983 -0.00144352 0.00308168 0.0123388 
-0.00120937 0.00660331 0.0120714 -0.0069112 0.0071339 0.0119904 -0.000908963 0.0011433 0.0122594 
-0.000276621 0.00471591 0.0120382 -0.00244443 0.00814548 0.0116827 0.00294668 0.00600429 0.0113972 
0.00615784 0.00440476 0.0115152 0.00491434 0.00756171 0.0113424 0.00449595 0.00250241 0.0117405 
0.00419646 0.00451329 0.011919 0.00513121 0.000545696 0.0121034 0.00306583 0.000661088 0.0119133 
0.00106377 0.000973626 0.0118715 0.000556046 0.00291037 0.0123286 0.00178461 0.00451701 0.0122704 
0.00250588 0.00265898 0.011947 0.00660196 0.00244627 0.0117701 0.000863805 0.00641534 0.0114916 
0.00670942 0.00644422 0.0116613 0.00712125 0.000190264 0.0118324 0.00364974 0.00710223 0.012916 
0.00748262 0.0050567 0.0128831 0.0141621 0.00500017 0.0109749 0.0144589 0.00252554 0.0105243 
0.0145501 0.00741957 0.0107626 0.00903026 0.00362492 0.0115667 0.0106946 0.00547087 0.0113039 
0.00867193 0.00578695 0.0113136 0.0165689 0.00420658 0.0114164 0.0118265 0.0071571 0.0110269 
0.0111432 3.81743e-05 0.0116893 0.0135629 0.000829268 0.0115244 0.0125562 0.0032947 0.0117754 
0.00857858 0.00168254 0.011858 0.0107703 0.0020265 0.0118375 0.0156701 0.00582756 0.01253 
[...]
POINT_DATA 5997
FIELD FieldData 7
id 1 5997 int
2955 2963 5661 5170 2497 3047 2189 5458 424 
2492 4201 324 4407 340 1156 4659 4848 3666 
867 6025 1920 5126 4578 3957 3740 5410 1708 
3173 5225 4442 4113 1073 1246 5298 4247 4440 
5989 1322 5585 3113 51 3734 3260 115 2532 
1351 5776 5615 2890 2519 2900 1125 188 4543 
42 5463 457 2560 1881 545 4462 2197 692 
4634 4024 3763 3415 5637 3279 19 5929 3986 
3691 5535 742 5317 100 992 2837 4409 3145 
4869 731 3832 3969 1298 2418 3837 5023 4880 
3189 3628 146 4174 3646 3079 5755 4596 5533 
1302 1190 519 4511 1994 844 613 6027 823 
2013 6010 3912 1439 2831 123 4482 2098 3194 
3913 2989 2369 147 5102 590 4678 4299 4252 
2930 4909 5678 1797 4081 2088 110 1838 2770 
1987 2579 1220 3929 3370 5765 3419 3502 3764 
5609 1793 5526 5482 1453 1447 2627 506 1122 
4783 78 4703 2872 1634 4300 4494 5909 5449 
3544 5597 3445 4835 4041 6012 3499 797 971 
1101 4777 2016 1516 1551 2200 714 5889 1563 
2488 546 5723 2762 3055 1766 1228 3769 1767 
298 1986 5708 4546 2749 633 3657 911 4732 
702 231 1626 3093 920 4559 5277 1458 3817 
5681 2365 6045 3720 3198 1538 2630 3106 5278 
155 5333 6013 4023 873 6031 926 5781 2967 
3918 4747 217 2307 877 4846 1077 4090 3249 
709 336 1310 3697 2026 3898 4589 5702 2126 
3342 5724 3582 5997 3886 4220 3750 1688 612 
3184 1137 4208 5566 3858 3434 1061 1172 5063 
756 5048 3433 403 2063 2318 1283 4688 1313 
4047 965 4055 2650 5239 5334 151 2429 747 
4893 5202 3058 2150 2128 5733 4996 3123 4528 
4183 3819 3941 1324 3490 5855 1160 528 2779 
637 2614 4292 1391 4941 3096 5122 3708 579 
2873 932 4485 4202 1348 124 4606 2141 2136 
5306 4927 3178 4553 6049 2072 1677 458 4149 
2944 1133 1150 180 1389 56 2845 1494 3966 
2138 2437 3389 721 6037 5247 1429 5249 5930 
3082 4309 2866 1561 140 5507 4395 4488 1745 
2097 1731 4359 3616 5673 5654 5034 884 61 
5913 4728 1087 5486 4338 836 876 1017 2419 
5371 2343 3447 686 5319 4350 1605 5954 3424 
4583 4377 234 1640 5729 927 2546 3871 4601 
5770 4267 1113 4936 5019 5651 2075 1540 241 
28 5492 2741 2700 3690 4184 1209 1339 5766 
5938 601 1451 1770 270 1333 2983 1541 5382 
5040 1867 333 2135 3373 3406 2935 4647 428 
4434 5604 2547 3774 5951 708 3760 322 4064 
2906 2082 789 1410 2157 4579 2048 5972 433 
3401 2621 5255 2922 3905 4683 5156 3737 5164 
2402 4117 1449 5841 4470 4704 1216 3116 4633 
1784 651 4241 4471 273 1136 1567 5487 5631 
3954 5500 5027 1833 1235 3392 3276 1258 5774 
2945 3132 4418 2598 5392 626 4981 53 2276 
1250 3339 5212 5975 4717 3032 5407 65 5588 
5205 759 999 4521 1853 4984 5572 367 281 
3307 1081 3252 4293 5021 1830 4400 3410 2893 
830 3467 3758 2746 615 2680 2336 673 5610 
5555 4192 2142 2095 54 5501 1850 1292 2664 
4217 5265 3051 394 549 4286 1779 432 3133 
5737 2800 2665 541 4367 453 591 5527 5861 
1486 5872 3109 5920 3731 5887 2120 2354 5231 
3576 2540 2351 521 2957 1817 3830 2757 2227 
4337 1693 6041 4043 3306 4305 5404 476 2123 
768 3099 3996 1808 638 1912 4822 235 2041 
5904 2677 5479 5657 1692 5273 4888 4639 3771 
2374 4641 2753 5444 3662 3044 767 1582 5804 
3847 2238 2465 680 3971 2084 4027 5044 1579 
1716 59 4056 4357 2384 4625 3475 845 5757 
4980 3180 4316 4151 2174 345 3546 2454 1022 
4902 2674 4523 4946 5413 3987 4959 536 5505 
3241 5699 3286 717 2888 527 2005 2383 1323 
5561 2249 2114 3365 4723 1783 2355 265 5912 
895 1312 127 5508 4575 4087 4545 1309 3183 
456 3622 4883 1696 659 773 3349 5418 1493 
2325 3553 4662 1814 4212 2787 629 1604 1815 
2394 2783 3621 2085 5995 1750 3468 4945 2405 
195 3618 1690 1866 753 3426 1772 1015 5788 
1062 380 2631 2609 3868 1518 2314 3601 3444 
2948 256 1839 4253 2782 3998 2218 419 645 
1891 5288 6019 5187 4075 5374 4243 5440 749 
850 1146 5234 6053 4059 3335 2998 4445 5420 
5520 786 5145 655 3692 3855 2647 5885 5241 
5742 5554 542 4073 4197 2503 2748 2425 1476 
3470 5879 2038 24 2324 2501 2172 1961 3563 
2252 1934 4347 3673 1463 5694 3639 1142 3288 
4406 1658 4818 3036 2323 5213 1057 2853 3583 
2019 66 4062 3086 63 6000 5115 1597 5309 
653 3985 4761 30 3325 4513 2385 1342 247 
1742 498 654 2258 5620 5167 3355 2260 4255 
114 62 3454 1187 2803 5594 50 1330 1417 
5743 3039 5130 233 1180 4931 1219 1612 3777 
406 5387 1836 4348 5868 5403 5397 4998 1373 
2361 5137 587 2462 1733 5358 2625 899 3423 
2623 2010 368 4537 1317 4677 205 3136 571 
206 556 1064 1666 58 2902 4108 525 2520 
2557 3321 2953 2196 388 3435 2028 4456 2357 
3011 2886 4539 34 5182 4919 239 1660 2796 
4490 2311 2593 160 3852 568 2649 5771 2062 
3385 4550 4040 5926 3893 102 5706 3704 3300 
4239 5627 1801 2584 2675 1285 3516 5428 5378 
5357 1399 2349 165 6062 4505 1158 2489 310 
2254 3722 64 372 5950 896 5795 1332 5665 
5029 3810 1663 422 4044 1976 5082 4105 8 
822 5985 2291 5328 1695 3821 1948 354 2928 
1619 1892 4079 4652 3005 3528 2121 2951 2475 
3232 133 3056 4648 4444 4979 1139 3644 3121 
4343 1225 5042 5133 3807 5541 5917 2696 3896 
3319 5016 499 2595 784 5701 76 5412 4680 
4592 46 263 1904 2542 1433 3263 894 452 
2251 727 974 60 2606 2733 4303 2952 3517 
2428 5323 2270 5883 2401 1854 2386 2939 3060 
5895 2265 4924 1288 4486 2061 3394 4782 81 
1244 1811 1193 3204 5454 3828 119 128 2022 
2491 4283 5471 1038 9 2090 4617 248 3157 
826 4238 1962 5193 3360 2250 179 232 2719 
2567 3865 2522 4557 4856 2655 4715 1354 1315 
2646 3643 4961 1124 5946 4952 3442 1437 2339 
1510 2358 5575 4429 4107 25 4401 2490 5064 
5793 4351 5364 3356 5621 496 777 4155 502 
6057 5890 2814 1470 2964 1577 1835 1909 5987 
4890 2697 3147 3960 4296 5690 3588 3620 4544 
164 4947 4402 482 2565 4512 4695 2241 3018 
2571 2974 4792 580 1371 26 1265 5419 2605 
3457 1643 5409 3308 3478 296 1421 2971 2742 
91 5047 3268 5734 392 2818 3464 4916 1641 
1847 5272 3650 3660 1350 3473 5579 4438 5783 
70 3416 5289 4194 3675 5158 716 4809 1560 
3409 4567 2034 285 1233 854 3949 3903 4701 
1596 2017 4405 387 253 43 3786 3487 5882 
3496 5119 5416 3856 1511 82 4837 6059 4078 
3377 480 3172 4978 3257 3642 6003 5214 462 
290 4315 2871 4397 3182 4793 5320 98 603 
2390 683 426 1084 4257 4693 917 4819 4346 
5472 4562 4663 3471 4682 1266 505 4875 5259 
4999 488 1877 2549 4413 5131 1210 1955 4415 
4158 2731 2638 4781 3105 2023 3955 4964 1736 
4140 3785 2562 4422 6017 1003 1492 3782 1587 
4387 293 5672 4969 2313 4607 5219 1886 3399 
5835 159 2920 3550 1960 3598 1360 111 3925 
436 1121 606 4750 4104 812 3481 3275 309 
5149 2819 2037 2591 5923 4268 1500 3071 2453 
1005 5037 4114 4786 4780 1095 167 4436 451 
2523 2447 1303 5805 2682 1944 1508 515 5922 
3802 1800 1352 1441 2003 1568 1270 5203 1775 
4451 262 4840 3934 2500 5819 928 5979 4816 
3480 1725 3159 5683 32 4414 439 4913 2976 
5607 4660 3611 3939 5850 3070 5140 3787 1484 
5307 1505 2186 4790 838 291 4861 3346 4004 
3219 2143 1106 4060 2476 1730 203 2641 1773 
4162 2991 2913 2482 2548 1456 2793 5127 1699 
1616 1013 4899 1608 5393 4824 5857 2262 1606 
1056 728 3191 5611 68 4481 2685 3134 5435 
2396 2450 5161 1585 975 365 1093 960 2247 
4664 3115 1876 3488 5826 2076 3512 5254 4740 
3443 2091 5650 2941 4811 4138 1096 4568 3311 
622 471 1086 2008 4356 1975 825 2266 2046 
3396 4517 5223 5750 925 1378 5761 2420 1936 
1097 897 5006 465 868 1741 2304 4487 2986 
2931 2433 2857 4067 2804 3667 4225 3630 2451 
4892 3881 3459 3977 1083 939 2317 1676 4177 
947 405 1107 1558 2078 2155 184 5660 4290 
1580 3228 5221 1653 1365 2513 4235 92 4254 
1055 1218 3174 2910 3751 1565 3567 723 1327 
573 3095 3887 327 1647 2277 4968 2009 5275 
201 4499 4829 2616 503 5184 1274 2929 4182 
200 5836 4360 3894 567 3527 2486 1771 5105 
5544 3562 1701 4858 886 5459 5961 3727 1627 
4684 121 2962 1984 5976 2480 4823 5481 182 
3466 5658 6036 710 5433 3593 1151 1932 1052 
3139 3521 1329 3299 5568 5692 3388 4590 337 
592 1959 1230 1078 1268 4480 4552 3141 6068 
3781 3529 4100 4206 4171 2015 5474 1764 2533 
2435 2904 3430 5448 2001 2326 1001 1157 3557 
1880 5984 866 3963 5038 5625 2554 4256 2464 
3351 2759 919 5373 3504 3572 1940 5703 5478 
632 2791 619 2509 1318 2360 3849 4026 3474 
1926 5944 2457 3962 1964 236 1068 2505 5451 
889 125 4746 962 5874 4469 3658 330 4963 
650 315 1377 116 4130 978 1238 3149 1202 
4691 5339 3347 1297 1545 818 2878 2151 1448 
1927 5188 1789 4342 5186 427 1973 2216 1872 
4240 5260 1291 2408 4003 5740 4127 3135 1765 
2643 4738 3904 6024 5232 1277 1621 2319 1655 
1402 2874 4618 4654 2807 3008 2701 1181 4930 
1972 4237 828 477 299 3711 1208 3476 3534 
5789 361 3938 5268 6023 4569 3811 4006 3217 
1737 2529 3554 3216 4847 4258 2973 1670 5632 
4526 3107 5354 5732 2830 2353 583 2634 174 
1509 4234 4275 1925 1806 3004 3313 2827 3492 
5573 738 4536 2110 1188 4692 3482 4302 5618 
3541 4050 4864 332 4870 4310 5093 1159 6069 
2921 5252 3654 5068 4223 220 4384 3549 2240 
5813 1795 4885 1175 2232 1893 2856 5087 4707 
769 972 5466 3427 4694 6035 112 415 489 
1555 668 887 2721 3900 4737 1713 1757 4496 
207 2897 2678 14 5376 5185 6033 3185 2891 
1114 5036 4833 976 1393 4586 5106 1237 2444 
5775 1178 4166 904 3214 3289 3945 2855 3555 
3587 2805 4484 1665 4815 1654 3158 4199 2456 
5558 5806 3836 1933 4501 5303 5919 535 4141 
532 2248 3090 5948 2308 4032 593 1535 3144 
5151 1132 3892 4944 130 1256 1498 5749 739 
4775 1206 448 4361 3526 4391 4595 3910 2295 
4960 1499 3706 3431 5394 2599 3171 5226 2978 
5347 2213 3203 6052 4072 4058 5884 2917 5947 
5945 1929 1794 5721 5148 3510 2927 3001 1401 
3003 4049 865 869 2771 2441 4076 283 5271 
3950 5337 2559 4115 4891 4389 399 5816 5485 
3580 3927 3579 1039 771 3775 4013 4705 4148 
2212 3432 1249 5940 1744 1023 1769 5973 1915 
2070 1672 5100 264 766 961 1311 4045 832 
3154 2101 872 2690 2961 495 3702 5211 4533 
5494 3097 1170 707 1997 148 2377 1319 4410 
4489 981 4378 5059 2461 2895 1865 3497 1199 
4017 1131 4739 730 3101 5166 4973 4661 4646 
1189 5390 5718 493 2980 4186 1946 1474 3864 
2025 4137 4464 5642 1848 2443 4555 666 4520 
4077 5633 5685 2424 5571 1127 5969 1452 2246 
1089 856 1231 5215 4525 1281 3742 3707 2570 
395 1490 4288 4676 5551 5067 2395 4159 5281 
396 1825 437 3258 5736 5807 4020 2152 4193 
5270 175 5305 3391 129 2862 3589 2158 370 
3779 3928 6050 1094 5276 5194 1639 3613 520 
1879 5107 4432 3718 2633 3848 5341 691 2601 
4046 4636 2510 1571 3668 1109 4756 3705 1977 
4001 1822 843 5144 2167 4877 2544 4934 4734 
4319 5871 3762 1981 5982 783 4593 3536 4800 
3624 2407 2055 425 4673 1032 2775 3715 2765 
4742 1824 2936 2321 1858 3604 2728 311 5461 
824 1755 5934 1016 3679 3574 1988 3575 5893 
678 5820 1243 3795 4142 816 3222 2283 984 
4358 3728 3710 1537 190 5344 5815 3797 1252 
1479 4121 3798 1735 2590 5867 4491 5110 3752 
3558 4637 4455 1637 5935 3634 5772 4702 2171 
1575 2103 5864 420 1846 3118 1445 2154 3408 
2035 2615 38 3237 5759 3911 2371 1403 5928 
1471 2863 5456 4495 802 3880 2007 1058 5348 
4857 22 363 1930 881 3931 3227 4205 610 
2832 2528 4376 4095 266 1478 4233 5253 5316 
6047 4671 2660 5331 3906 1823 3042 5168 1624 
2981 4943 4188 4277 3127 5401 588 134 94 
5098 4621 440 3000 510 2885 4845 2067 1819 
2745 3926 5523 3944 1878 534 508 2436 4311 
5269 2656 2752 998 2751 3053 3843 1045 3038 
566 216 109 4433 170 3695 3281 158 5199 
5369 4986 350 3757 2315 5190 5624 1638 2455 
166 1870 18 87 178 5962 3803 3046 3596 
5405 4820 4577 3578 1386 1267 5578 2239 5377 
2937 1788 3019 2508 5811 3395 2187 2116 84 
859 2512 1030 5052 1364 450 1261 4099 4036 
2851 4712 2388 1751 204 5659 2940 5312 805 
3315 5470 3804 5731 1002 5539 1408 3017 3709 
3961 4285 5647 5865 1091 3826 908 2727 5992 
3484 4463 1392 5071 5549 4039 1648 6016 1425 
5041 3027 921 5445 6005 3569 3825 3148 997 
3682 31 676 4516 2292 198 4576 5338 1473 
715 356 131 5060 3143 3261 4665 1423 4388 
5434 913 5286 1941 4642 5878 4834 335 2997 
1036 4531 4089 1834 3048 3247 497 4396 5705 
1697 3498 2550 1557 4092 318 3732 4679 3266 
681 660 4472 2064 1916 3380 5640 1827 3922 
6040 321 4989 3381 2710 2999 172 902 4518 
839 5165 108 4150 3400 3202 1821 5002 4172 
212 2626 4629 3932 1207 1691 5134 765 5362 
4417 1349 743 1397 4146 3052 1221 4551 2689 
4727 4154 3304 4249 5577 1718 5078 2256 346 
5342 3940 4997 2057 3951 103 1983 4687 973 
3037 152 720 3820 4949 4933 4598 4853 1905 
1566 5849 2950 5514 2817 2603 1792 770 5076 
3565 516 5862 4328 2410 2274 2473 3889 1155 
2915 287 2681 5958 4730 1462 1308 5891 1123 
3556 4029 2389 792 2181 1895 1857 1278 2576 
3989 4057 3028 6029 5587 3192 1454 918 5725 
4120 10 2149 3242 3542 3348 6048 5630 2077 
5686 5121 1965 2738 4561 2692 1465 726 4457 
1760 1010 4355 3384 1164 1347 5142 2255 3748 
1251 982 4813 1885 5380 4380 3615 1698 4477 
2514 3872 4165 2275 883 1211 4185 6058 177 
5902 2139 3815 3723 560 2195 5049 3329 5062 
3543 3669 6067 303 1951 4843 132 5355 906 
3571 1236 4373 4745 3479 4854 5886 3119 1024 
4116 1407 3205 1042 4145 122 1369 598 1574 
5680 2259 2051 5751 1194 1921 3610 1610 4118 
323 5154 5263 52 4441 4179 5229 604 3293 
2470 2093 86 4778 5643 1259 5644 4216 3518 
173 4599 2364 320 2668 3805 1460 4168 616 
5993 698 4814 1334 820 988 1411 2362 630 
4326 5601 1534 5787 2293 3386 4925 2843 2933 
2545 3607 3188 1539 5802 5242 183 514 2763 
1264 2985 1234 4719 4180 1592 2423 2561 5522 
1633 751 3322 1980 1957 4131 5560 245 227 
5302 1583 3162 1694 1426 4923 3761 764 4710 
1118 4420 847 2333 1129 746 276 4699 878 
5516 3320 3523 1046 2604 4245 1732 5943 725 
4340 5426 484 3077 3801 5752 1752 1628 656 
5873 226 3861 4459 5294 3330 817 2577 524 
2409 2563 5727 5043 4297 2245 3863 3059 4982 
4178 4515 2330 3062 4799 4425 214 4926 1168 
1859 5829 5065 1035 1247 3680 5562 2092 5753 
2300 1368 609 4251 3495 461 2717 553 4170 
4153 5209 4760 5953 733 3270 2648 3874 1320 
4928 5179 621 706 2777 3696 5118 4787 5491 
2346 1507 1738 664 2671 4971 5955 2618 1768 
1810 4372 1974 3290 785 3995 2735 4478 4344 
3446 5379 2823 4403 2287 3783 3590 5574 5095 
1728 96 5157 2662 2122 4538 5831 2703 2032 
75 4527 3269 4889 5762 5842 1229 5956 5619 
5295 3412 5596 5648 4031 4215 1809 552 1971 
5927 1435 2815 4729 2789 5422 639 397 2684 
2286 5821 1525 157 3026 3724 2133 2160 5159 
752 875 3592 1613 444 4839 4638 1367 3029 
2426 5035 979 2166 3177 3635 3438 4631 1331 
1675 1919 150 2165 1400 5224 658 1152 6055 
2730 2716 347 3292 5557 722 1430 1321 2958 
357 2624 3334 2683 4591 1659 3878 3486 3627 
5707 3452 1656 5700 4374 4954 5994 5427 634 
3725 4181 1649 4588 1382 2846 2387 3560 1590 
827 5605 557 162 2466 1406 5120 149 373 
3606 3023 4156 5204 3808 88 74 3235 2744 
470 2224 5480 1521 565 4460 2755 648 5114 
5548 5996 1415 4232 4698 1855 4776 4613 4133 
4106 3440 2580 3937 1029 3917 2663 2518 1828 
1144 4907 113 3193 3255 4123 1326 957 2816 
712 558 3759 1495 1763 2081 2412 5830 5086 
2695 5697 1996 5797 2217 1873 302 4718 3663 
3816 2471 1907 4218 1723 4012 5304 305 3420 
2074 5365 4912 1721 5990 3765 5088 4706 4479 
3844 2380 4282 953 3298 774 4842 2826 1242 
2219 1049 958 5359 3882 271 1040 2876 1618 
3009 4224 3789 2327 3638 89 4219 2404 221 
3333 2257 1787 3327 3345 5057 2145 5877 37 
4628 3390 2235 4327 3246 3472 2859 4228 2543 
5296 494 2335 4716 5617 2896 2194 2011 5786 
4674 2033 4953 3340 3111 2406 4649 1390 5532 
138 880 1069 4748 4950 449 2901 5519 4825 
547 5431 2516 3716 186 4803 3840 954 1978 
1345 4855 3573 4291 4876 3240 6046 4063 5696 
3885 5991 2979 2421 5974 704 530 2785 4273 
5113 1357 1314 352 1213 5691 3022 5163 40 
376 763 1134 1868 250 2768 1141 3065 4714 
2670 4758 599 4603 3087 5780 608 5094 1785 
4323 3061 2096 804 5367 55 2188 2372 1860 
4632 3310 1286 3206 4002 2170 719 1646 5045 
1513 105 163 970 2018 3196 3806 2596 5066 
4736 5004 4581 4306 1952 1644 1531 4897 652 
2894 1419 3140 2414 2594 543 517 6015 2329 
2640 5206 1805 5169 3318 3854 5464 929 3524 
3413 1485 5863 4549 5546 4709 2909 294 4602 
5899 1422 246 5553 1681 3102 4473 5537 104 
4862 4873 3437 4294 4167 1611 3561 2102 3538 
409 3369 341 3301 5704 2175 5636 431 5777 
3302 2320 1464 4443 1888 1818 3285 762 3800 
5623 2463 1037 924 4204 5330 3256 1528 1385 
2969 1161 2822 2672 614 5888 1942 2191 5447 
1387 5022 1703 485 2209 4917 2108 1203 4382 
5980 3100 2574 5949 1047 595 4836 5477 796 
5139 3168 3897 576 2382 4493 5645 891 1248 
329 4295 5584 3199 3379 4325 5230 1600 5669 
5741 2478 538 244 4101 3234 4573 740 775 
411 4784 1530 4265 3142 4416 671 4585 835 
661 3739 3794 5026 2099 1657 1346 5663 4594 
3617 2867 2797 2946 3069 4322 143 1108 3665 
5450 4937 171 1356 5614 5666 3358 5963 5299 
47 5195 5301 874 3674 1678 3688 4806 1842 
3382 3034 2868 3993 2058 2134 3002 1702 292 
1145 1928 5745 3726 4096 1054 5710 4336 3197 
1548 4987 41 2006 600 4726 1366 1803 3273 
4371 5430 4176 946 2111 3031 2059 3460 1177 
2036 4502 4173 4615 5550 2608 1759 3363 4524 
5670 3352 2739 1325 2968 378 5176 267 2812 
5662 80 1776 3979 1586 251 791 3344 4650 
5915 5436 3577 5257 5198 4324 2558 5352 430 
5070 938 4779 3968 5754 4447 1544 647 2294 
5880 2000 4614 4261 2220 3990 5311 5046 554 
3730 4624 1995 4898 2094 5083 5897 2847 4656 
272 3509 2708 49 4009 4668 3612 2898 1668 
1138 572 5782 1620 326 570 3533 1949 1398 
5634 540 192 1305 697 1813 5178 3566 1845 
492 1831 2140 390 2722 2496 1241 3645 2537 
3629 1149 5117 5716 4163 153 2225 4582 6060 
5227 5738 4620 5843 5667 1031 5084 2994 4353 
5779 1021 2399 2004 4805 2477 2236 1375 5343 
5837 5315 3548 4259 4474 3089 371 4030 1536 
5000 1293 1491 808 2635 5013 5200 383 5676 
137 1198 2352 990 2459 5933 401 4021 4939 
4274 3489 1050 3485 4901 5790 4955 4465 672 
798 6054 2982 4841 5256 3151 5536 5517 4483 
4785 4653 677 4514 4492 2130 4161 3326 3186 
3397 2551 3888 2661 2794 4541 5600 5483 3465 
631 2031 5613 1413 1467 1257 5591 3599 3916 
2119 3745 5389 1130 5079 1444 529 161 5400 
888 4375 841 4564 5881 2525 1969 5866 466 
6009 2724 1562 3020 3976 4280 5103 6043 4038 
848 4535 2422 3224 4503 3112 3778 2517 1869 
5210 2992 3383 5353 348 5735 210 3656 5515 
4431 991 3975 2083 1851 3964 4993 2581 5217 
5870 2233 1837 1461 2100 459 2337 5356 1642 
1414 4144 4951 5460 4985 3891 4404 2960 4498 
1569 853 5612 4272 693 3920 6064 657 3403 
5839 2795 27 1409 4379 5717 1183 2628 5756 
4566 1384 4689 4972 1033 211 229 408 5713 
605 4788 1480 435 5192 1781 5719 2704 6042 
2438 4965 2829 1192 4651 966 483 1100 362 
5860 2839 5540 1358 2391 5189 5726 319 4910 
5077 260 5567 1739 1662 4093 3211 5172 2229 
1396 4752 3050 4743 1060 2657 5383 2147 1970 
787 3792 4011 5124 3790 5903 280 3343 1395 
2106 3559 5017 3513 1341 3267 145 2153 5590 
2125 5971 4991 4992 937 907 1051 900 5108 
2892 5931 5530 5096 4329 4263 1200 4722 2177 
3341 3713 4605 1799 1918 4587 3245 1756 2761 
1276 864 1871 3461 240 1726 1487 3328 1615 
790 699 1753 4269 3834 2586 2479 5828 3984 
788 3545 2658 3238 57 3013 2711 602 1224 
855 1174 4744 781 481 1214 5773 3862 3689 
1802 4572 2612 5425 5429 5498 126 4454 5668 
3163 1588 3619 1515 3458 2020 2854 1053 1275 
5262 3842 3332 5361 3012 255 1184 1629 799 
243 2279 261 1526 4449 2242 2651 1931 1316 
1514 5564 4681 2223 4770 4164 2903 4903 3899 
3024 4686 4852 2316 500 5851 5964 951 1048 
2723 623 1176 794 3021 3535 4773 1559 5639 
67 2047 4227 5441 1609 1201 943 6008 1169 
2056 3540 5150 3595 1363 1217 5932 23 2806 
288 5854 5415 4765 741 5918 1254 5965 4749 
417 4860 3259 5266 5274 2338 2113 4248 2042 
2179 5513 2530 4967 5981 5582 5722 2676 5709 
312 5730 829 5924 2446 1937 1418 4757 5653 
4226 5898 935 1715 1901 2720 169 5155 1468 
3075 801 5511 3129 5576 5688 1438 3514 1722 
4720 1914 3744 694 5018 1554 279 1807 2607 
2758 5565 3271 4966 4731 1110 1063 2993 2809 
4801 6026 2014 5675 5970 4508 3016 1067 5112 
5652 696 3045 1226 2729 4571 3153 2344 2908 
2073 5907 2204 687 381 5606 2231 4314 1897 
3067 1714 1255 682 1282 4051 793 3851 2767 
1546 5039 316 4708 6038 2066 3229 3375 1140 
2613 5824 5838 4626 597 4083 249 6063 1442 
4411 5175 5287 2228 862 4281 1336 268 73 
4124 5091 3176 1232 4826 5085 670 3701 1092 
2053 3537 3552 2907 5957 71 504 5598 4510 
3972 4458 1074 5569 4109 5525 187 1502 349 
5177 5332 1743 4817 3505 3463 4345 6044 3603 
490 1165 3640 1381 821 5173 5246 2841 1300 
3833 2484 4033 1899 300 2838 3651 5952 379 
2535 4270 2356 4956 3676 3520 5293 11 3104 
2875 491 3564 2214 3609 564 1601 5075 2207 
2485 2221 438 986 2328 2865 2301 4827 6002 