# vtk DataFile Version 4.2
Generated by LIGGGHTS
ASCII
DATASET POLYDATA
POINTS 70 float
-0.000325245 -0.0261434 0.0352279 -0.0149832 0.0210799 0.0479632 0.0191306 -0.0193362 0.0600075 
0.000336904 0.00592148 0.0588072 -0.00782657 -0.00741408 0.0627211 -0.0336155 0.00525219 0.069375 
0.0363398 0.0111615 0.0650465 0.0112574 0.0171885 0.0652814 -0.0087745 0.0280523 0.070081 
-0.0109787 -0.0235554 0.0715503 0.0225994 -0.0115983 0.0747615 -0.00835715 0.0273492 0.0820522 
-0.0069122 -0.0183296 0.0871472 0.00155135 -0.00149742 0.082627 -0.0234411 0.00765288 0.104139 
-0.00131971 0.00827607 0.0974302 0.0140649 0.018808 0.102101 -0.0279034 -0.0137173 0.104714 
-0.0027874 -0.0181624 0.120627 0.0229092 -0.0124254 0.124624 0.0380003 -0.0153173 0.125006 
-0.0131374 -0.00108706 0.119279 0.0272687 0.0180533 0.123831 -0.0138654 0.0285688 0.1171 
-0.0130022 -0.0380836 0.136341 0.00643649 -0.0312524 0.136671 0.0125366 -0.0103299 0.135557 
0.0314931 -0.0017673 0.135776 -0.0181999 -0.0283872 0.143802 -0.00866905 -0.0238964 0.13806 
0.0131371 -0.0339237 0.146259 0.0149352 0.00686162 0.145702 0.0257956 0.00759856 0.140657 
-0.00776399 0.0249631 0.138661 -0.027094 -0.0263823 0.153246 0.00201312 -0.032154 0.158114 
-0.00353122 -0.0191512 0.157666 0.0175448 -0.00848716 0.157562 -0.0329996 0.00882666 0.153443 
-0.0151206 0.0033143 0.149071 0.0322415 0.00279728 0.150679 -0.0193759 0.0210962 0.14994 
0.00820401 0.0282124 0.159188 -0.000538913 0.0363134 0.157811 0.0096945 0.039844 0.150697 
-0.00886041 -0.0343435 0.16341 0.0104172 -0.0267315 0.164742 -0.0342153 -0.0050154 0.16362 
-0.000137059 -0.00141219 0.16474 0.0288715 -0.0109924 0.167247 -0.0353291 0.00684723 0.165044 
-0.0162839 0.00196268 0.16469 0.0195281 0.00240506 0.164309 0.00081591 0.0153321 0.170021 
0.0150599 0.0166938 0.168369 -0.0138121 0.0240943 0.160138 -0.00834191 -0.0285983 0.181 
-0.000516113 -0.0190544 0.181113 0.0110638 -0.0191157 0.177529 -0.0344979 -0.00700297 0.177638 
-0.0132936 -0.0112 0.175587 0.0163968 -0.00185082 0.175083 0.02814 -0.000499119 0.173018 
-0.0295486 0.00390026 0.178963 -0.000902614 0.00662032 0.181454 -0.00341137 0.020928 0.179758 
0.0243139 0.0144186 0.177785 0.00839905 0.0303749 0.176351 0.0322982 0.000532068 0.184226 
0.00684984 0.0156417 0.183035 
VERTICES 70 140
1 0 
1 1 
1 2 
1 3 
1 4 
1 5 
1 6 
1 7 
1 8 
1 9 
1 10 
1 11 
1 12 
1 13 
1 14 
1 15 
1 16 
1 17 
1 18 
1 19 
1 20 
1 21 
1 22 
1 23 
1 24 
1 25 
1 26 
1 27 
1 28 
1 29 
1 30 
1 31 
1 32 
1 33 
1 34 
1 35 
1 36 
1 37 
1 38 
1 39 
1 40 
1 41 
1 42 
1 43 
1 44 
1 45 
1 46 
1 47 
1 48 
1 49 
1 50 
1 51 
1 52 
1 53 
1 54 
1 55 
1 56 
1 57 
1 58 
1 59 
1 60 
1 61 
1 62 
1 63 
1 64 
1 65 
1 66 
1 67 
1 68 
1 69 

POINT_DATA 70
FIELD FieldData 7
id 1 70 int
44 208 510 598 557 411 372 458 587 
506 366 612 723 485 1047 875 972 835 
1168 1262 1563 1140 1063 894 1642 1274 1445 
1242 1483 1602 1884 1645 1687 1328 1519 2214 
2099 2118 2005 1335 1808 1875 1873 1747 1781 
1900 1990 2253 2175 2254 2200 2171 2147 2152 
2278 1946 2455 2457 2463 2412 2322 2430 2345 
2364 2460 2424 2304 2379 2461 2474 
type 1 70 int
2 2 2 2 2 2 2 2 2 
2 2 2 2 2 2 2 2 2 
2 2 2 2 2 2 2 2 2 
2 2 2 2 2 2 2 2 2 
2 2 2 2 2 2 2 2 2 
2 2 2 2 2 2 2 2 2 
2 2 2 2 2 2 2 2 2 
2 2 2 2 2 2 2 
i 3 70 int
0 0 0 0 0 0 0 0 0 
0 0 0 0 0 0 0 0 0 
0 0 0 0 0 0 0 0 0 
0 0 0 0 0 0 0 0 0 
0 0 0 0 0 0 0 0 0 
0 0 0 0 0 0 0 0 0 
0 0 0 0 0 0 0 0 0 
0 0 0 0 0 0 0 0 0 
0 0 0 0 0 0 0 0 0 
0 0 0 0 0 0 0 0 0 
0 0 0 0 0 0 0 0 0 
0 0 0 0 0 0 0 0 0 
0 0 0 0 0 0 0 0 0 
0 0 0 0 0 0 0 0 0 
0 0 0 0 0 0 0 0 0 
0 0 0 0 0 0 0 0 0 
0 0 0 0 0 0 0 0 0 
0 0 0 0 0 0 0 0 0 
0 0 0 0 0 0 0 0 0 
0 0 0 0 0 0 0 0 0 
0 0 0 0 0 0 0 0 0 
0 0 0 0 0 0 0 0 0 
0 0 0 0 0 0 0 0 0 
0 0 0 
v 3 70 double
-2.5542346352e-06 4.3547268539e-06 1.4561166462e-06 -2.1424600638e-06 -2.7161676008e-06 -4.075752931e-06 1.55869989e-06 -7.6682352472e-07 2.2826643451e-06 
1.3678312288e-06 -4.2590763518e-06 3.7299932278e-06 1.1408174453e-06 3.3645194219e-06 2.1069690492e-06 1.0043871186e-07 3.8385202487e-07 -1.7639589268e-06 
-8.7569743921e-06 -5.5650602684e-06 3.2073555001e-06 -1.4700101599e-07 7.3129913292e-08 1.0079481947e-06 2.1330864993e-06 2.6864688204e-06 1.2394738191e-06 
2.2832150679e-06 2.3101778496e-06 -4.9438826378e-07 -8.1789774037e-07 -5.2882054586e-06 3.8508826487e-06 1.3720843697e-06 -2.4074747016e-06 -4.0819673893e-06 
4.3166199084e-06 1.8805436249e-06 -2.2313868524e-06 2.6500477982e-07 9.702487528e-08 -3.2475549334e-06 -7.1586255052e-07 -4.4064283297e-06 -1.8820121952e-06 
-3.4477080216e-06 -4.3574504186e-07 -1.5712225614e-07 -6.4575320942e-07 -2.8485165532e-06 4.0103485502e-06 2.3001887047e-06 1.3615562797e-06 2.9738720662e-07 
8.0348278505e-07 2.1312488542e-08 1.1016837333e-06 -7.1690213856e-06 -4.1284225621e-06 -1.7954032894e-06 6.2741062738e-06 -9.9240059541e-07 2.6834387564e-06 
-1.5341603421e-06 2.0607733055e-06 -7.406499667e-07 -7.2122994463e-07 -1.1270545864e-06 -4.2728683464e-06 6.0633416434e-08 -1.5483013015e-06 4.5995081555e-08 
-6.9466725022e-07 -1.1906997865e-06 -9.9670835313e-07 -2.4077778797e-07 1.8951823941e-06 -9.5672743757e-07 6.0090842e-07 1.6888781571e-06 -1.9408440974e-07 
3.4366759369e-06 5.0736544427e-07 -2.0839164136e-06 -5.6596920514e-07 -1.8087197928e-06 5.9235925456e-07 7.0842690322e-08 2.1230281205e-07 -8.2698307455e-08 
8.1299236303e-08 1.0760765188e-06 2.5121209056e-07 -1.2380368397e-06 4.0770790371e-06 -2.6318971331e-06 -1.3491491642e-06 3.0973929398e-07 -1.1572876972e-06 
6.3397178818e-07 -1.5671083064e-06 2.2322826566e-07 6.5428845077e-07 9.895689789e-07 9.1383386097e-07 1.0993589852e-06 -1.0154528103e-06 -1.0577626184e-06 
1.4719226489e-06 -5.5818235989e-07 -2.9852789925e-07 -2.3557291109e-06 -1.787659965e-06 2.709937097e-06 -4.6304160998e-07 8.4525035766e-07 -1.0361594877e-06 
1.5035039414e-06 -1.3910228061e-06 -7.4070644338e-08 1.6486523319e-06 -2.1491609666e-06 1.5718020103e-06 1.7518606997e-06 -1.0369832041e-06 -1.9078602948e-07 
5.5793866239e-07 -2.4936499837e-07 -1.0973648804e-06 -9.8705141652e-07 -4.3686960534e-06 5.7435115299e-07 7.2210371433e-07 2.2424950982e-06 -3.2665733962e-06 
3.34912189e-07 -1.9640826258e-07 1.3362458649e-06 -1.0499186662e-07 -6.7721917214e-07 6.4278909275e-07 1.376950468e-07 -3.4124570691e-07 2.2321349756e-06 
2.9528048333e-07 -1.4911794569e-06 3.5333872915e-07 3.8159814067e-07 -3.7899693565e-08 3.8407379078e-07 1.3951100062e-06 4.8702503625e-08 6.3930629631e-07 
-2.3306566775e-06 -6.7583177547e-07 8.1972178823e-07 -3.9259956642e-07 -6.6958082496e-07 2.7817787949e-07 9.6183928801e-07 -4.110116215e-07 -2.4562974527e-06 
-2.316534773e-06 -1.6890888172e-06 3.1285189257e-06 4.3008277972e-07 1.5652603447e-07 1.721085933e-06 7.7735997366e-07 -6.0328557095e-07 6.4983151362e-08 
-4.8678630525e-07 -5.277227897e-08 -8.8091980455e-09 4.4889844034e-07 7.5017316864e-07 -4.0152833027e-07 1.8706521922e-07 -7.3317820188e-07 -1.5736528614e-06 
-2.7559238682e-07 -4.4461382928e-07 1.5747256908e-07 -9.0411042315e-07 1.4532794731e-07 -1.4299318473e-07 1.1261137678e-06 -7.6785116411e-07 -7.0554272678e-07 
-8.9402577307e-07 -4.7893657589e-07 -4.7920769407e-07 1.2116837325e-06 2.3328944056e-06 -6.2836268303e-07 8.1880415299e-07 -4.2334697007e-07 -4.6286482881e-07 
1.2880737551e-06 -4.9198815439e-07 -9.4996077853e-07 -2.542605796e-06 1.7386704663e-06 -4.1000160649e-06 -8.8101649305e-07 -7.4293424867e-07 -1.4110091613e-06 
2.8207202083e-07 -7.1260835334e-07 8.7448196423e-07 
f 3 70 double
0.00017860234244 -0.00051951766531 0.00074300053855 -0.00023333839247 0.00010915496742 -4.904656469e-05 0.0013661551247 0.00041220815965 0.0022420127935 
-2.2839767708e-05 0.00041072825529 -0.00042134666987 8.9918990279e-06 -0.00016360048023 -0.00035404119669 -0.00024594549789 0.00023724978474 -1.1511211501e-05 
0.0010664090992 -0.00017059226346 0.00051204392292 0.00047630584773 -0.00044499669037 -0.0002520345038 0.0008210035328 0.00066293897608 -0.0008337908372 
-0.00014051414464 -0.00073944554605 -0.00035526657622 -0.00040804740339 -0.00018437806664 -0.00050598448078 -1.3845383589e-05 -4.4411772797e-05 -0.00030087942461 
-3.7262400406e-06 5.3263832631e-05 -0.00015724661577 -7.1335030289e-05 1.9712595876e-05 0.0001151560446 0.00075555109143 -0.00017951732993 0.00029245196164 
0.00015458934149 -0.00029980133397 0.00014889424987 0.00011964980123 5.6875197563e-05 0.0001615242169 -0.00023153471558 0.00020960165938 -0.00010919789419 
-7.7936084257e-05 -0.00027317769749 0.000333450315 -0.000189130404 0.00020276073141 -8.5569124353e-05 -0.00020851129724 -6.7702707355e-05 0.00024548501664 
0.00022206948864 9.8930264456e-06 -5.7935444095e-05 -1.5813211082e-05 -0.00011494656432 4.9590643076e-05 0.00025952483308 0.00019465514605 7.3337995268e-05 
-9.8335064485e-05 -0.00045104690418 -0.00010539904435 -2.6740171935e-05 -8.3151621296e-05 7.9056898864e-05 0.00027469623898 4.6254355295e-07 -0.00024759314031 
0.00039774818988 0.00016731951021 -0.0001143132044 0.00035544118367 0.00016184714723 -0.00057125128148 2.5653537919e-05 2.1004233943e-05 0.00020239864232 
-0.00012647779774 -8.1255910047e-05 -4.5389105244e-05 -6.4527604655e-05 -0.00025050447003 0.00022723525109 -9.6329496856e-05 5.3056947185e-05 -0.00017639349619 
6.6237409173e-06 3.4186482318e-05 0.00042560341571 -1.8868234644e-05 -9.4511476853e-05 2.6848057923e-05 -0.00027166677755 -0.00011064301472 0.00054389706532 
-0.00012398859913 4.2516059769e-05 0.00013757975262 3.3634967172e-05 -0.0001065769078 -5.4743062136e-05 -0.00011322610109 0.00013350033221 -0.00021284629857 
0.00010549360067 -2.7640366268e-05 0.00018049834239 -9.1780801586e-05 -8.0129146088e-05 1.5142032435e-05 1.947210434e-05 -0.00036139915222 0.00010165116076 
-0.00028304788359 4.0139707797e-05 -8.5475948427e-06 0.0001565277555 0.00087548772886 0.00025322902916 0.00014911266392 -4.1763189093e-05 -7.881724243e-05 
-0.00041744582793 -0.00017079940311 -0.0002855684902 0.00015650118396 1.2374136262e-05 4.4978836138e-05 0.00017153030206 0.00010875940748 -0.0001488061688 
0.00019626939525 9.220545102e-05 -0.00013359843059 8.9283762977e-05 -4.1605757627e-05 4.0927325402e-05 -4.7696694313e-05 -7.1169304036e-05 0.00018056736989 
6.5062774024e-05 -2.2645492807e-05 3.5395006804e-05 6.7372272668e-07 -5.2575354278e-06 -3.8825327784e-06 0.00028809799766 4.1794413878e-05 0.00052062464574 
0.00031760728538 0.00026656748758 6.6020929103e-05 0.00024830241095 -9.9785795038e-05 0.00017212941608 4.447978544e-05 8.5159639049e-07 5.2404747837e-05 
-2.2231851749e-05 3.8159169528e-06 -8.534628391e-06 -4.8312341527e-06 4.8582699022e-05 3.515882535e-05 1.8851881111e-05 -3.9808703065e-05 2.1499415412e-05 
6.1074337796e-05 -4.1514531076e-05 -7.611836675e-05 -1.3546846857e-05 -8.6019200415e-07 1.0803450805e-05 -3.4007795479e-05 9.1580078523e-05 9.5606972563e-05 
-5.0041738969e-05 -9.8477491698e-05 0.00011454361206 -4.4425886951e-05 -0.00023794284432 -3.2740327793e-05 -7.2882764064e-05 4.941673063e-05 7.9504053119e-05 
0.00019844850092 -0.00012960307775 9.4958126393e-05 1.2590906118e-05 -7.1659075677e-05 7.3971411323e-05 -3.3701483444e-05 -6.142219617e-06 -3.0693560586e-05 
4.8799601748e-05 8.7003643694e-05 -6.8060934961e-05 
radius 1 70 double
0.006 0.006 0.006 0.006 0.006 0.006 0.006 0.006 0.006 
0.006 0.006 0.006 0.006 0.006 0.006 0.006 0.006 0.006 
0.006 0.006 0.006 0.006 0.006 0.006 0.006 0.006 0.006 
0.006 0.006 0.006 0.006 0.006 0.006 0.006 0.006 0.006 
0.006 0.006 0.006 0.006 0.006 0.006 0.006 0.006 0.006 
0.006 0.006 0.006 0.006 0.006 0.006 0.006 0.006 0.006 
0.006 0.006 0.006 0.006 0.006 0.006 0.006 0.006 0.006 
0.006 0.006 0.006 0.006 0.006 0.006 0.006 
omega 3 70 double
0.00044553888309 -0.00053656824423 -0.00031525746344 -0.00038603429743 -0.00074157477706 0.00035931586798 0.0013391495759 0.0017276213417 -0.00063721468238 
-0.0018576804735 0.00056034203142 0.00019435418402 -0.0010891526297 -0.00028850190196 -6.4737373788e-05 -0.0002166980806 -0.00056849422329 5.53599183e-05 
0.0020935109408 0.0025528156325 -0.00013099486356 0.000138098685 0.00018724373758 0.00013389022884 9.1887503094e-05 -0.004665236107 -0.00069582547646 
-0.00030124365287 -0.0002329744181 0.00021493272996 0.00015098031836 0.00041374651141 -0.00027924772429 -0.0017496237348 -0.00089941109511 -0.00058371928803 
0.0011620772736 -0.0010750434257 -0.00046158775757 7.1194715462e-06 -0.0003956421763 -7.3677536833e-05 -0.00029286486611 0.001398485095 0.00041377461984 
-0.0010632077844 -0.0011255748045 -0.00068229496905 -0.001287283686 0.00025340341264 0.00077499543541 0.00025665545685 0.0002629379912 0.00090105688698 
-0.00027287122795 0.0002963278362 -1.5877754682e-05 -0.00072681536086 0.001960190828 -0.00043756701336 0.00088501203857 -0.00025010103857 -0.00032612706974 
-0.00057398399673 0.00062752229815 0.00027983169954 0.00015001139432 0.00024110944691 0.00021029067355 -0.0016051509603 0.00076714805508 0.00032008378273 
0.00014477041648 7.3465809032e-06 -0.000726785784 -6.4569822398e-06 -0.00088699116964 -0.0012532254442 -0.00034235106457 0.000159144506 -0.00026130808952 
-0.00035496464826 0.000787068978 -0.00088113039454 0.0001389068409 0.00039613315272 -0.00017463346556 0.00036371780332 9.6150164009e-05 -0.00062348949934 
-0.00020525122339 -0.00085522724757 -0.0014139953544 0.00087361563334 -0.00060525251474 -0.0011834588952 -0.00041186862517 0.0009499646316 -8.8484589877e-05 
0.00088390138404 0.00018316788489 -0.00034265266855 -0.00071386594849 0.00053046669212 0.00046019148898 1.684973884e-06 0.00025729783793 -0.00012416578461 
0.00068608267076 -0.00066766828302 -0.00021695604043 0.00030444183718 0.00022384981301 0.00014535845738 0.00033289610638 0.00027490725054 -0.00011277700478 
0.00044450919786 0.00097798962286 0.00010727355924 0.00052156353869 0.0010341589835 0.00010916987857 6.2327227653e-05 0.00030585647761 -0.00043372535206 
7.7464431523e-05 0.0010914344695 0.00031245310972 0.0002606807512 0.00088683269194 0.00020068920752 -0.00029583302311 0.00040990652558 0.00031298503837 
-0.00059059656809 -0.00027358267355 1.4982221777e-05 3.5058267057e-05 -8.6074240137e-05 -0.00041264620713 0.00011160562939 0.00010375755258 0.00030226049486 
0.0011626992357 -0.00087142565986 0.00067568258467 -0.00034534733006 0.00019831912906 0.00037753209275 0.00010192996219 0.00017808470964 0.00035240761476 
0.00033921677224 0.0002256587672 4.4109567659e-05 2.7363751119e-05 4.6466109113e-05 0.00011871275486 0.00028411661182 0.00064059386774 0.00036221214417 
-0.00022122470068 0.00010455866845 0.00043461522304 -0.00015013182351 6.4405167515e-05 0.0004932435531 -1.0189459499e-05 5.9416537892e-05 -4.7875457739e-05 
-0.00029565795436 0.00018339813523 4.0560944373e-05 -0.0001909535682 4.4853116442e-05 -0.00013862756913 -0.00050610767085 -0.00012063622228 0.00041767476818 
0.00019560238867 -0.00022457199669 -0.00012489770497 5.091360668e-05 0.00022547334335 -0.00011514615206 0.00042078147676 0.00037040328246 -0.000250870436 
-0.00020349711734 0.00030499992339 -4.7864659354e-05 0.0001089210792 -0.00021947290689 6.0243546102e-05 1.4118195396e-05 -0.0003863156005 3.1926919923e-05 
-6.6599357962e-05 -0.00040110275141 0.00010919214234 -0.00015352453356 0.00027514169992 -0.00026820304736 -0.00018641385844 0.00025198988953 -9.6124130023e-05 
4.5903845021e-05 -0.00014186380588 8.693385401e-06 
