# vtk DataFile Version 4.2
Generated by LIGGGHTS
ASCII
DATASET POLYDATA
POINTS 70 float
-0.000325245 -0.0261434 0.0352279 -0.0149832 0.0210799 0.0479632 0.0191306 -0.0193362 0.0600075 
0.000336903 0.00592148 0.0588072 -0.00782657 -0.00741408 0.0627211 -0.0336155 0.00525219 0.069375 
0.0363398 0.0111615 0.0650465 0.0112574 0.0171885 0.0652814 -0.00877451 0.0280523 0.070081 
-0.0109787 -0.0235554 0.0715503 0.0225994 -0.0115983 0.0747615 -0.00835716 0.0273492 0.0820522 
-0.0069122 -0.0183296 0.0871472 0.00155133 -0.00149741 0.082627 -0.0234411 0.00765287 0.104139 
-0.00131971 0.00827606 0.0974302 0.0140649 0.018808 0.102101 -0.0279034 -0.0137173 0.104714 
-0.0027874 -0.0181624 0.120627 0.0229092 -0.0124254 0.124624 0.0380003 -0.0153173 0.125006 
-0.0131374 -0.00108706 0.119279 0.0272687 0.0180533 0.123831 -0.0138654 0.0285688 0.1171 
-0.0130022 -0.0380836 0.136341 0.0064365 -0.0312524 0.136671 0.0125366 -0.0103299 0.135557 
0.0314931 -0.0017673 0.135776 -0.0181999 -0.0283872 0.143802 -0.00866905 -0.0238964 0.13806 
0.0131371 -0.0339237 0.146259 0.0149352 0.00686162 0.145702 0.0257956 0.00759857 0.140657 
-0.007764 0.0249631 0.138661 -0.027094 -0.0263823 0.153246 0.00201312 -0.032154 0.158114 
-0.00353122 -0.0191512 0.157666 0.0175448 -0.00848716 0.157562 -0.0329996 0.00882666 0.153443 
-0.0151206 0.0033143 0.149071 0.0322415 0.00279728 0.150679 -0.0193759 0.0210962 0.14994 
0.00820401 0.0282124 0.159188 -0.000538916 0.0363134 0.157811 0.0096945 0.039844 0.150697 
-0.0088604 -0.0343435 0.16341 0.0104172 -0.0267315 0.164742 -0.0342153 -0.0050154 0.16362 
-0.000137058 -0.00141219 0.16474 0.0288715 -0.0109924 0.167247 -0.0353291 0.00684723 0.165044 
-0.0162839 0.00196268 0.16469 0.0195281 0.00240506 0.164309 0.000815908 0.0153321 0.170021 
0.0150599 0.0166938 0.168369 -0.0138121 0.0240943 0.160138 -0.00834191 -0.0285983 0.181 
-0.000516111 -0.0190544 0.181113 0.0110638 -0.0191157 0.177529 -0.0344979 -0.00700297 0.177638 
-0.0132936 -0.0112 0.175587 0.0163968 -0.00185082 0.175083 0.02814 -0.000499117 0.173018 
-0.0295486 0.00390026 0.178963 -0.000902615 0.00662032 0.181454 -0.00341137 0.020928 0.179758 
0.0243139 0.0144186 0.177785 0.00839904 0.0303749 0.176351 0.0322982 0.000532068 0.184226 
0.00684984 0.0156418 0.183035 
VERTICES 70 140
1 0 
1 1 
1 2 
1 3 
1 4 
1 5 
1 6 
1 7 
1 8 
1 9 
1 10 
1 11 
1 12 
1 13 
1 14 
1 15 
1 16 
1 17 
1 18 
1 19 
1 20 
1 21 
1 22 
1 23 
1 24 
1 25 
1 26 
1 27 
1 28 
1 29 
1 30 
1 31 
1 32 
1 33 
1 34 
1 35 
1 36 
1 37 
1 38 
1 39 
1 40 
1 41 
1 42 
1 43 
1 44 
1 45 
1 46 
1 47 
1 48 
1 49 
1 50 
1 51 
1 52 
1 53 
1 54 
1 55 
1 56 
1 57 
1 58 
1 59 
1 60 
1 61 
1 62 
1 63 
1 64 
1 65 
1 66 
1 67 
1 68 
1 69 

POINT_DATA 70
FIELD FieldData 7
id 1 70 int
44 208 510 598 557 411 372 458 587 
506 366 612 723 485 1047 875 972 835 
1168 1262 1563 1140 1063 894 1642 1274 1445 
1242 1483 1602 1884 1645 1687 1328 1519 2214 
2099 2118 2005 1335 1808 1875 1873 1747 1781 
1900 1990 2253 2175 2254 2200 2171 2147 2152 
2278 1946 2455 2457 2463 2412 2322 2430 2345 
2364 2460 2424 2304 2379 2461 2474 
type 1 70 int
2 2 2 2 2 2 2 2 2 
2 2 2 2 2 2 2 2 2 
2 2 2 2 2 2 2 2 2 
2 2 2 2 2 2 2 2 2 
2 2 2 2 2 2 2 2 2 
2 2 2 2 2 2 2 2 2 
2 2 2 2 2 2 2 2 2 
2 2 2 2 2 2 2 
i 3 70 int
0 0 0 0 0 0 0 0 0 
0 0 0 0 0 0 0 0 0 
0 0 0 0 0 0 0 0 0 
0 0 0 0 0 0 0 0 0 
0 0 0 0 0 0 0 0 0 
0 0 0 0 0 0 0 0 0 
0 0 0 0 0 0 0 0 0 
0 0 0 0 0 0 0 0 0 
0 0 0 0 0 0 0 0 0 
0 0 0 0 0 0 0 0 0 
0 0 0 0 0 0 0 0 0 
0 0 0 0 0 0 0 0 0 
0 0 0 0 0 0 0 0 0 
0 0 0 0 0 0 0 0 0 
0 0 0 0 0 0 0 0 0 
0 0 0 0 0 0 0 0 0 
0 0 0 0 0 0 0 0 0 
0 0 0 0 0 0 0 0 0 
0 0 0 0 0 0 0 0 0 
0 0 0 0 0 0 0 0 0 
0 0 0 0 0 0 0 0 0 
0 0 0 0 0 0 0 0 0 
0 0 0 0 0 0 0 0 0 
0 0 0 
v 3 70 double
2.3291241906e-08 2.0689444566e-06 -2.168497662e-06 -5.1851735242e-06 4.4727189591e-06 -2.2183645025e-06 -3.6579526196e-06 2.9326614312e-06 -6.9419356177e-07 
-2.9419715576e-06 -1.8571951849e-06 -2.0715504266e-06 1.9109482342e-06 -1.8185718124e-06 3.4891250956e-06 -1.2853888177e-06 -1.4461088676e-06 -5.1798247924e-06 
-3.8456378607e-06 -7.2989559166e-07 2.212616879e-06 -7.3106214524e-07 -9.6588888154e-07 -7.9998175314e-07 5.2772727805e-06 -5.7867965259e-06 2.1877769101e-06 
1.5596803856e-06 2.5896898312e-06 4.2834360836e-07 -2.0361966928e-06 -8.3288538655e-06 -2.5449198943e-06 -1.7577048126e-06 2.6941249303e-06 -4.3078172706e-07 
5.8463231812e-06 3.1708628899e-06 1.8031021723e-08 3.0962997068e-06 -9.9700715628e-07 5.3693470537e-07 1.6922074637e-07 -5.9797684016e-07 -4.6685828783e-06 
-3.4751350812e-06 -1.1107883285e-06 3.6109115068e-06 -1.3026689441e-06 1.9233966322e-06 -2.857878956e-06 4.2644036924e-06 -6.2816174458e-07 -1.530624436e-08 
2.4159897465e-06 -1.9582781998e-06 1.0978391624e-06 -4.8343269392e-07 -4.9207992062e-06 -1.9170747479e-06 5.5578551908e-06 1.5738492299e-06 4.5264052701e-06 
4.6475638136e-07 -1.1531807892e-06 6.0031523842e-07 6.6099046145e-07 9.8669187022e-07 -5.9488485164e-07 -2.1331712476e-06 -2.7317391241e-08 7.5693728919e-07 
7.9878089793e-07 -1.6339911108e-06 -7.2055644716e-07 -2.7664540716e-06 1.8162532682e-06 1.2570977496e-06 -3.57711924e-06 5.7714498524e-07 1.6320153911e-06 
2.0351423909e-06 4.8922111847e-07 -3.6266691756e-06 2.22367966e-06 -9.4736860912e-07 -1.2188117914e-06 3.3470041728e-08 -1.0789285263e-06 -8.5500270712e-07 
-3.7360513692e-07 3.0938198232e-06 1.6920694647e-06 5.0645904304e-07 2.3641661754e-06 -1.0266626531e-06 -2.4813605274e-06 1.7990226775e-07 2.0924715142e-06 
-1.1380178039e-06 -1.3323193958e-06 2.3632869365e-06 6.9647069898e-07 7.3651375882e-08 -1.1327741713e-06 -3.3467759252e-07 -1.1634980101e-07 -7.9435550789e-07 
-3.3719633304e-07 -1.3275887322e-06 -3.131014318e-06 -3.5845202623e-07 -1.3207595211e-06 9.315931954e-07 -1.3153712422e-06 -5.6138925363e-07 -1.9269693608e-06 
-5.8827172994e-07 3.8211449497e-08 8.1231643222e-07 6.933788239e-07 3.9900817399e-08 -2.0550142576e-06 9.2464418263e-07 -1.2208790311e-06 5.9377519294e-07 
-5.4794062871e-07 -2.4315498385e-06 7.4491308448e-07 2.0098804078e-06 8.9631105121e-06 2.0601331104e-06 -2.120062123e-06 2.7051728625e-07 4.0128176897e-06 
2.8439662398e-07 -1.2022222189e-08 -7.8769551998e-08 -9.4069560034e-08 -5.3066352111e-07 -5.3360884556e-07 5.0238868926e-07 -4.2094460588e-09 -1.5692991388e-06 
4.4185330874e-07 -1.2916189082e-06 1.3415366034e-06 -1.5952838056e-08 -1.4803016554e-07 -5.2346956429e-07 1.1933746172e-06 8.6801894031e-07 8.961357781e-07 
1.6077281492e-06 1.7711720833e-06 2.2084729129e-07 -7.0894290156e-07 -5.2039584694e-07 -1.4351697996e-06 -9.7557919081e-07 -5.5545921802e-07 2.6895018656e-07 
-4.381815424e-07 2.8820363936e-07 1.1091950628e-06 -6.6237874323e-07 1.2374312664e-07 -8.4650633292e-07 -1.0222203992e-07 2.1925667034e-07 -1.5040858268e-07 
4.1630247008e-08 -2.8069402724e-07 5.3394390724e-07 1.0801839792e-07 4.2246004673e-07 7.5360246367e-07 3.5424826412e-07 5.7533258432e-07 6.9652101682e-07 
-4.3776746705e-07 -4.5607802023e-07 8.6037136961e-08 1.2765409776e-07 -6.821188589e-07 -3.9130340484e-07 -7.6002639668e-07 3.8459609436e-08 6.8873548893e-07 
3.1979459177e-07 -1.8359833501e-08 8.2062611704e-07 4.7146066622e-07 2.0206006024e-06 9.2019849577e-07 -1.4118593844e-06 -2.7304738499e-07 -1.2245743505e-06 
-1.5817682938e-06 9.384875083e-07 1.2392597966e-06 1.8824039442e-06 -1.2306492065e-06 7.4053392413e-07 3.9380439662e-07 -7.2060349782e-08 -6.9605925356e-07 
1.6442224872e-06 9.2167857433e-07 -1.1491106952e-07 
f 3 70 double
-0.00025828153558 7.0152556808e-06 -4.9046442772e-05 -0.00060141038297 -0.00055340238873 0.0002898683984 -0.00072151542247 0.00044788577802 -0.00052484964227 
0.00024044347171 -0.00018050665184 -8.0321971792e-05 -0.00026490234928 0.00020302350378 0.00028046888999 -1.0124179372e-05 -0.00022059957151 6.1184507742e-05 
0.00055226296916 6.3969258923e-05 0.00067746919501 0.00046111468435 0.00054907780223 0.00074666790681 7.7503455621e-05 -0.00012338107285 -0.0011149258608 
0.00012513424899 -0.00024510838878 0.00026288310649 -0.00024790923671 -0.00025089373183 -0.00025463908568 -0.00017582430415 -0.00040887221404 3.4599184069e-05 
0.000141601526 0.00026756292281 -4.1726152228e-05 0.00032327051605 0.00043912824976 0.00010778252579 0.00026003336157 0.00014787662135 0.0007498074583 
-0.0010460450535 -0.00059854158151 0.00040750853035 0.00033075137914 0.0001621362175 0.00016574510905 1.8770266663e-05 0.00032548245789 -0.00010069466123 
0.00019326966113 -0.00012432683029 0.00038240706151 0.0003017026614 -0.00025977155987 -0.00029495352739 -0.00024624269485 0.00027125226438 0.00036058181827 
-0.00010551151378 0.00019714465354 8.7061075944e-05 -5.2360215739e-05 -0.00012704906692 5.3347943144e-05 0.00029447259212 2.8895971431e-05 1.2307862013e-07 
-1.3845446558e-05 -0.00040051672934 -3.2198759086e-05 -3.5266133962e-05 -0.00018460270027 7.983683e-05 0.00018028199756 -0.00020067082975 -0.00023470447186 
0.000202559093 3.7343925447e-05 -0.00010002617072 0.0003949168066 0.00015544985364 -0.00041855863256 8.1231751238e-05 0.00014689207435 7.2251386935e-05 
-0.00021843758833 -0.00015887184395 -0.00016106162857 -0.00016209009788 0.00031349943322 -7.6820711811e-05 -0.00025649857626 -0.00031818774609 0.0001864476174 
-0.00016756186548 0.00012670000392 0.00016630724631 -0.00020694448754 -0.0001247692778 -0.00013589580625 -0.0003568491327 -3.7371471737e-05 0.00061273666911 
8.6923509183e-05 -7.7895015989e-05 -0.0001393445628 1.4540832896e-05 -0.00011856887045 -0.00010926186599 -6.3099476486e-05 -4.3894829704e-05 5.874084524e-05 
-1.2988011906e-05 -5.4961331761e-05 0.00022075927159 -0.00051602643775 9.758552399e-05 -0.00033960408573 -1.1322550365e-05 -4.7164617884e-05 2.9400283129e-05 
0.00035007215125 0.00037957497613 8.9434163373e-05 -7.9512231333e-05 -0.00019500747264 -0.00026038197863 8.4431221819e-05 0.0005172452687 0.00023493422117 
-0.00059295605022 -0.00021219847568 -0.00021435981023 -1.1912147934e-05 -8.7387301489e-06 -9.8899568711e-06 7.8458258594e-05 7.1537008431e-06 0.00030455038705 
-0.00028016266302 -1.7559400004e-05 -3.2948764964e-05 0.00011968494741 1.2992741514e-05 -7.3537133924e-05 2.3527171984e-05 -8.268650434e-05 -9.9979667177e-05 
0.00012368302371 4.8713986298e-05 -4.8987916005e-05 8.7725353137e-05 -0.00011480505844 3.752438493e-05 -0.00019156885499 0.00028624889368 -0.00051362269519 
-0.00048863376938 -0.0003848270901 -0.00016705233698 0.00012923034013 -8.3994778221e-05 0.00011414122882 4.3824020237e-05 5.1237811665e-05 1.6066788282e-05 
-6.3908832472e-05 -1.7882085035e-06 5.6045272613e-05 -1.0981508935e-05 -8.7935233679e-06 9.0346609789e-06 6.4737082978e-05 1.2394655286e-05 -1.2799993149e-05 
-1.2136366526e-05 -4.3919625948e-05 4.5201434835e-05 -4.1068796557e-05 -1.6401523327e-05 2.401608176e-05 -3.8909467727e-06 5.5156294374e-05 1.4083731873e-05 
-4.6269833327e-05 -6.8813549939e-05 6.9382612904e-06 6.7345522019e-05 0.00015575616066 -7.2961426567e-05 -7.1944216174e-05 -1.9424467947e-05 2.7619413317e-05 
-0.00022775175431 0.00010640426282 -3.7586467972e-05 6.1828951134e-05 1.1377992603e-05 -2.4529927623e-05 9.0962457452e-05 -3.3163580129e-06 8.5979007073e-05 
-5.8041528771e-06 3.4739914699e-05 3.4135549323e-05 
radius 1 70 double
0.006 0.006 0.006 0.006 0.006 0.006 0.006 0.006 0.006 
0.006 0.006 0.006 0.006 0.006 0.006 0.006 0.006 0.006 
0.006 0.006 0.006 0.006 0.006 0.006 0.006 0.006 0.006 
0.006 0.006 0.006 0.006 0.006 0.006 0.006 0.006 0.006 
0.006 0.006 0.006 0.006 0.006 0.006 0.006 0.006 0.006 
0.006 0.006 0.006 0.006 0.006 0.006 0.006 0.006 0.006 
0.006 0.006 0.006 0.006 0.006 0.006 0.006 0.006 0.006 
0.006 0.006 0.006 0.006 0.006 0.006 0.006 
omega 3 70 double
0.00011791609321 -0.00022256486442 -0.00026246090632 0.0024948847155 0.00088997473523 0.00099326802813 0.00064380395658 -0.00013302133124 0.00042104154845 
-0.00026906042919 -0.00082934599887 -0.00030734501532 -0.00056566266399 -0.00089908988798 -0.0011076611457 0.00036916962957 -0.0008167254352 4.0438337146e-05 
-0.00094984046753 0.0004851061968 0.00063244111536 -8.9523766757e-05 0.0010698278832 9.915752917e-05 0.0011192887533 0.0029273148256 0.0010340723227 
9.4452922047e-05 0.00011466256562 -0.00039915660174 -0.0011059379378 0.0006682748189 0.00010695708316 0.0019312365663 0.00096809665204 0.00024833815333 
0.00022763243208 0.00018657521683 -7.9753687315e-05 -0.00012204005751 -0.00028609852279 0.00029788538 -0.0021772561629 -0.00063659363464 -0.00099610646292 
-0.00029396399907 -0.00045992691126 0.00085131188138 0.0002228275037 0.00016093334781 4.9096727508e-06 0.00011259246145 0.00065299980907 0.0012541164311 
-8.4749007416e-05 0.00053825928803 0.0005152649397 -0.00028986156652 0.0016337954398 -0.001190426125 0.00051503763651 -0.00184631628 -0.0016733853963 
-0.00045276785985 -0.0007103321496 -0.00022609080995 -0.00026094030494 -0.00013482340587 0.00065870127973 -0.0018875915706 0.00084792858374 0.0002397422111 
0.00034308278743 -1.0035705997e-06 -0.00046737702891 0.00073299759929 0.00013725657111 -0.00062721829443 7.2947965185e-05 -0.00018828136493 -0.00070672320039 
-0.00025218058735 0.00085171421282 -0.00033652489094 0.0010004367882 6.9883635401e-05 -0.00027019887347 5.0885892588e-05 0.00031823596802 6.2041959668e-05 
0.00036102353346 -2.624620235e-05 -0.00089850992155 0.00058757978234 -0.0011029601012 -0.0001510517496 -0.00019468812621 0.00015788887601 0.00037395037217 
0.00064581821227 0.00033220649705 1.8536935028e-06 0.00023456382838 -4.6135554233e-05 0.0004226816787 -4.083187095e-06 0.00054050297834 -2.7252657491e-05 
-0.00034768144544 -6.7373092541e-05 -2.1963079763e-05 0.00020396394125 2.0775690706e-06 -2.2224517914e-05 -4.1597054891e-05 0.00017504304092 -0.00049994033542 
-9.7348224997e-05 0.00025049628287 -0.00027460237466 -0.00022179577951 9.549329432e-05 -0.00030717169962 -0.00066504346666 0.00027650626453 0.00074693152483 
0.00062658770964 0.00071347093233 -0.0013854038112 0.0030707010277 -0.00035698130071 -0.0011036181827 0.00083008901149 0.00058651669334 -0.0005668250337 
-0.00045498995531 -1.5187401319e-07 -0.00032805251738 0.00022397507626 -6.3137102981e-05 -0.0004602551013 0.00027709995211 -0.00028211824424 -0.0001737158544 
-0.00050218212529 0.00035679573174 -0.00017386343406 0.00025750763484 -0.00016845485111 -0.00029141085978 -0.00024683151576 0.00018267367648 -3.9795209002e-05 
-5.6681128294e-05 3.4452057424e-05 -4.6089506794e-05 -6.3128089383e-05 -7.0745292727e-05 0.00013762037396 0.00066770112506 -0.00023387312394 0.0002389346688 
0.00087203389482 -0.00010822074175 0.00027964237087 -9.9919806968e-05 0.00066789680789 -0.00024667542071 -0.00010412555385 -7.652901163e-05 8.086524872e-05 
-7.0786112692e-05 0.00025473361155 1.5848209114e-05 -6.5026612592e-05 0.0002786600299 -9.9307629115e-05 -0.00026793357096 -4.9208285913e-05 0.00021901708594 
0.00012261486143 -0.00013564062099 -4.1636104733e-05 5.7609186047e-05 -3.9651204989e-05 -1.2791259216e-05 -0.00016466466998 7.747511167e-05 0.00022742357973 
-1.4896212497e-05 -0.0004519240297 -4.0130995738e-05 0.00065216373108 -9.7547029367e-05 8.3387175818e-05 0.00054643743199 -0.00047701454448 0.00018091834657 
0.00014065389799 -2.5011660299e-05 -0.00017047809118 -7.0183091062e-05 0.00026044406463 -0.000235165724 -0.00025120634755 -1.8975507516e-05 4.1540378114e-05 
0.00048507882107 -6.8196532642e-05 7.1858300421e-05 
