# vtk DataFile Version 4.2
Generated by LIGGGHTS
ASCII
DATASET POLYDATA
POINTS 70 float
-0.000325258 -0.0261434 0.0352279 -0.0149832 0.0210799 0.0479632 0.0191306 -0.0193362 0.0600075 
0.000336905 0.00592149 0.0588072 -0.00782657 -0.00741407 0.0627211 -0.0336155 0.00525221 0.069375 
0.0363398 0.0111615 0.0650465 0.0112575 0.0171885 0.0652814 -0.00877449 0.0280523 0.070081 
-0.0109787 -0.0235554 0.0715503 0.0225994 -0.0115983 0.0747615 -0.00835714 0.0273492 0.0820522 
-0.0069122 -0.0183295 0.0871472 0.00155132 -0.00149741 0.082627 -0.023441 0.00765291 0.104139 
-0.0013197 0.00827607 0.0974302 0.0140649 0.018808 0.102101 -0.0279034 -0.0137172 0.104714 
-0.00278738 -0.0181624 0.120627 0.0229092 -0.0124254 0.124624 0.0380003 -0.0153173 0.125006 
-0.0131374 -0.00108701 0.119279 0.0272687 0.0180533 0.123832 -0.0138653 0.0285688 0.1171 
-0.0130023 -0.0380834 0.136342 0.00643655 -0.0312524 0.136671 0.0125366 -0.0103299 0.135557 
0.0314931 -0.00176733 0.135776 -0.0181999 -0.0283872 0.143802 -0.00866909 -0.0238964 0.13806 
0.0131371 -0.0339237 0.146259 0.0149353 0.00686162 0.145702 0.0257957 0.00759853 0.140657 
-0.00776393 0.0249631 0.138661 -0.027094 -0.0263823 0.153246 0.00201311 -0.0321541 0.158114 
-0.00353121 -0.0191512 0.157666 0.0175449 -0.00848717 0.157562 -0.0329996 0.00882674 0.153443 
-0.0151205 0.00331431 0.149071 0.0322416 0.00279726 0.15068 -0.0193759 0.0210962 0.14994 
0.00820408 0.0282124 0.159188 -0.000538782 0.0363134 0.157811 0.00969459 0.039844 0.150697 
-0.00886042 -0.0343435 0.16341 0.0104172 -0.0267315 0.164742 -0.0342152 -0.00501539 0.16362 
-0.000137036 -0.00141216 0.164741 0.0288715 -0.0109924 0.167247 -0.0353291 0.00684721 0.165045 
-0.0162837 0.00196274 0.16469 0.0195281 0.00240507 0.164309 0.000815875 0.0153321 0.170021 
0.01506 0.0166937 0.168369 -0.013812 0.0240944 0.160138 -0.00834189 -0.0285983 0.181 
-0.000516111 -0.0190545 0.181113 0.0110638 -0.0191156 0.177529 -0.0344981 -0.0070033 0.177638 
-0.0132937 -0.0112001 0.175587 0.0163968 -0.00185078 0.175083 0.0281399 -0.000499114 0.173018 
-0.0295496 0.0038993 0.178963 -0.000902619 0.00662025 0.181454 -0.00341306 0.020926 0.179758 
0.0243137 0.0144186 0.177785 0.00839933 0.0303747 0.176351 0.032298 0.0005321 0.184226 
0.0068495 0.0156419 0.183035 
VERTICES 70 140
1 0 
1 1 
1 2 
1 3 
1 4 
1 5 
1 6 
1 7 
1 8 
1 9 
1 10 
1 11 
1 12 
1 13 
1 14 
1 15 
1 16 
1 17 
1 18 
1 19 
1 20 
1 21 
1 22 
1 23 
1 24 
1 25 
1 26 
1 27 
1 28 
1 29 
1 30 
1 31 
1 32 
1 33 
1 34 
1 35 
1 36 
1 37 
1 38 
1 39 
1 40 
1 41 
1 42 
1 43 
1 44 
1 45 
1 46 
1 47 
1 48 
1 49 
1 50 
1 51 
1 52 
1 53 
1 54 
1 55 
1 56 
1 57 
1 58 
1 59 
1 60 
1 61 
1 62 
1 63 
1 64 
1 65 
1 66 
1 67 
1 68 
1 69 

POINT_DATA 70
FIELD FieldData 7
id 1 70 int
44 208 510 598 557 411 372 458 587 
506 366 612 723 485 1047 875 972 835 
1168 1262 1563 1140 1063 894 1642 1274 1445 
1242 1483 1602 1884 1645 1687 1328 1519 2214 
2099 2118 2005 1335 1808 1875 1873 1747 1781 
1900 1990 2253 2175 2254 2200 2171 2147 2152 
2278 1946 2455 2457 2463 2412 2322 2430 2345 
2364 2460 2424 2304 2379 2461 2474 
type 1 70 int
2 2 2 2 2 2 2 2 2 
2 2 2 2 2 2 2 2 2 
2 2 2 2 2 2 2 2 2 
2 2 2 2 2 2 2 2 2 
2 2 2 2 2 2 2 2 2 
2 2 2 2 2 2 2 2 2 
2 2 2 2 2 2 2 2 2 
2 2 2 2 2 2 2 
i 3 70 int
0 0 0 0 0 0 0 0 0 
0 0 0 0 0 0 0 0 0 
0 0 0 0 0 0 0 0 0 
0 0 0 0 0 0 0 0 0 
0 0 0 0 0 0 0 0 0 
0 0 0 0 0 0 0 0 0 
0 0 0 0 0 0 0 0 0 
0 0 0 0 0 0 0 0 0 
0 0 0 0 0 0 0 0 0 
0 0 0 0 0 0 0 0 0 
0 0 0 0 0 0 0 0 0 
0 0 0 0 0 0 0 0 0 
0 0 0 0 0 0 0 0 0 
0 0 0 0 0 0 0 0 0 
0 0 0 0 0 0 0 0 0 
0 0 0 0 0 0 0 0 0 
0 0 0 0 0 0 0 0 0 
0 0 0 0 0 0 0 0 0 
0 0 0 0 0 0 0 0 0 
0 0 0 0 0 0 0 0 0 
0 0 0 0 0 0 0 0 0 
0 0 0 0 0 0 0 0 0 
0 0 0 0 0 0 0 0 0 
0 0 0 
v 3 70 double
-5.4061151074e-06 7.375697903e-06 -1.0480910161e-05 7.7139826584e-06 -6.8793759022e-06 1.1035382073e-06 4.6788245448e-06 2.7128295699e-06 6.8992640093e-06 
-1.7011878052e-06 7.1354884524e-07 8.7554558405e-07 5.2668471112e-06 -8.3435922518e-07 2.3201613561e-07 -1.1253103042e-06 -1.4866488935e-06 5.4099429754e-06 
1.7387543937e-06 1.3494760189e-06 -1.4373587668e-06 7.6806220033e-07 -4.9416501186e-07 3.0463624215e-06 1.5507316388e-06 -1.2390233853e-06 -2.3136080813e-06 
-2.2550171135e-07 1.1125865942e-06 4.6781973018e-06 -1.6373632319e-06 -6.7471611028e-07 -3.3811307351e-07 3.2257778353e-07 1.2368161842e-06 3.0219202497e-06 
4.1476655028e-07 -8.9213077365e-07 -1.874181833e-06 4.861010172e-08 2.5462239032e-06 1.6430289925e-06 -1.9969810277e-06 -1.1351490873e-06 -1.7067295442e-06 
9.5801902642e-07 -9.9857144835e-08 -3.7344790303e-07 8.7848247246e-07 1.8177989648e-06 3.0114700325e-06 6.6666958739e-07 8.4486098509e-08 -2.9723682222e-06 
-1.9792887689e-06 1.5224609718e-07 9.3868644563e-07 -3.2570332013e-07 1.9820551192e-06 2.1843334738e-06 -1.2695252553e-06 1.0802921762e-07 -1.4743982979e-06 
7.5687836771e-08 -1.4812892718e-07 -1.2251961307e-06 -1.3865518724e-06 -6.1487426398e-06 -1.1450308307e-06 -3.407355617e-07 -1.9141258887e-06 -3.8776927853e-06 
4.9884531994e-07 1.2232566114e-06 8.4035024371e-07 1.3065227345e-06 -2.4218131111e-06 2.5877391557e-06 -2.4377492071e-06 7.0312280266e-07 -4.710285065e-07 
1.4380741056e-06 -6.0191893189e-08 9.2832714e-07 3.3932813056e-07 -9.224653737e-07 -9.1861251925e-08 4.9382581029e-07 4.0208568271e-07 1.9593601041e-06 
3.4125653919e-07 -9.3019805577e-07 -1.5618770137e-06 2.5462185395e-06 -2.466581572e-06 -1.7299621763e-06 2.2776752579e-07 -5.2675714716e-06 6.7985614869e-07 
-6.272163319e-07 1.5461006755e-06 -1.7124537021e-06 -1.7939804935e-06 -3.8681345625e-07 -5.728160329e-07 8.4306687056e-07 -7.8507886374e-08 -5.2591308029e-07 
-2.2489896432e-07 6.4553848413e-07 6.7484068931e-07 1.0184942354e-06 1.2910218034e-06 4.882039406e-07 -1.37850065e-06 -2.6545216273e-06 1.1790332081e-06 
1.5183804864e-06 1.0313543875e-06 -3.5036774869e-07 -9.8875852671e-07 3.8938921361e-06 -2.4512435244e-06 -4.067019193e-07 3.8126771006e-07 2.9236749502e-07 
-1.250587315e-06 6.1889829927e-07 9.8636616431e-07 6.4595325122e-07 1.8381927352e-06 -3.318880429e-06 1.9321269445e-06 -4.5066497103e-07 8.0463692906e-07 
9.4460667272e-07 4.294049554e-07 3.0536640124e-07 -6.474541789e-07 -5.6481757412e-07 9.6942110455e-08 6.1148880237e-07 -3.0012078636e-07 -7.2784059514e-07 
1.1812679487e-07 5.226424394e-08 -3.4092100197e-07 -1.4718706454e-06 1.2273895844e-06 2.8073010294e-07 -1.6355715223e-08 -1.8826371491e-07 -1.7614390627e-06 
-4.623215739e-07 -2.7699965865e-07 1.1069774782e-06 -1.5462641747e-07 4.5621669703e-07 -7.9836823795e-07 5.6449434561e-07 1.5082668726e-06 1.7652041119e-06 
-1.9689168195e-08 -1.6374268207e-07 5.5425686204e-07 -4.8976296551e-07 3.6304787101e-08 1.4793147354e-07 -1.4149900059e-06 2.1112529307e-07 -5.9486022372e-07 
-8.7601807009e-07 4.2599115547e-07 5.0447199089e-07 -6.5786306439e-08 -6.8942338632e-07 -3.950121783e-08 1.1867057729e-06 -3.5840793177e-07 -6.9971371863e-07 
2.5629285207e-07 4.4380122435e-07 3.8942092831e-07 -5.1422960415e-07 -9.8517917146e-07 1.0871703719e-06 -2.6858094121e-07 2.214074727e-07 6.1796040136e-07 
2.4490200352e-07 -1.0508260868e-06 4.0105011776e-07 -2.3364316911e-07 -1.6096390844e-06 1.336554774e-07 9.1712452934e-07 -1.7603609096e-07 1.0060046703e-06 
-4.7335500572e-07 -9.9193490149e-07 7.4744724845e-07 -3.9898058105e-07 1.7328338441e-07 -7.2009205717e-08 5.9608171185e-07 -1.5657063764e-07 1.2993977544e-07 
1.0570705592e-06 -6.8883128293e-07 1.4723681703e-07 
f 3 70 double
-0.00012460328646 0.00024967896234 -0.00087190812557 0.00018084329706 -0.00040258275064 9.1923291572e-05 -0.00012474497871 1.9151274518e-05 -0.00034569493939 
-0.00044944724997 -0.00061533834686 -0.0007604472908 0.00022240930472 -0.00020250826845 -4.2630076357e-06 -0.0001268644883 0.00059614554335 0.00082769899912 
-0.00080318540782 -0.00034815723184 -2.4978929707e-05 0.00039828248951 -0.00060421141224 0.00082555018397 4.3644595588e-05 -0.0010221349302 -0.00056451406166 
0.00037862215852 -0.000178901964 0.00051768735 5.8699941215e-05 0.00039859215271 1.2571073351e-05 0.00017256300293 -0.00012142080239 -5.1585320516e-05 
7.9199207447e-05 -5.4365966463e-05 -0.00015561405692 -0.00019651036389 -9.57767135e-05 -0.00014853232383 -0.00013766858949 -0.001048326547 1.0480453369e-05 
-0.0001111769775 -9.342170664e-05 7.1254250091e-05 -0.00010393391337 -0.00015992043528 -1.556039967e-05 -8.6877152538e-06 -0.00031023415792 0.00025539880478 
-7.6788285542e-06 2.721302054e-06 -0.00018811898493 0.00023635487598 -7.2278407283e-05 -0.00019152150752 0.00025898032808 -0.00016543942117 -0.00033543995129 
1.3123185059e-05 6.6070723998e-05 4.3675931845e-05 -0.00053156562975 0.00013545344818 -0.0001961067697 -0.0001236326193 1.614282462e-05 0.00010245229647 
-0.00012908738765 0.00021363672898 1.9196715421e-05 0.00019386143415 -0.00012905733712 5.9173926368e-05 -0.00024386528805 0.0003146516372 -2.9324557473e-05 
-0.00012404124451 -8.9366310777e-06 4.9421127316e-05 -0.00045476487364 -4.4075934776e-05 0.00073242991554 0.00010373217888 -0.00014706586239 -0.00018552680597 
-3.9351469428e-05 1.248270239e-05 -6.7556230476e-05 6.8589534862e-05 0.00039171991581 -5.9402733011e-05 7.3480705716e-05 -7.4166767568e-07 -3.0772105186e-05 
0.00024802435355 -2.4713274782e-05 0.0004276884798 0.00010695259459 0.00010830014754 0.00011276930212 0.00021689689715 0.0003755759444 -0.0004784829096 
-7.0562422696e-05 2.437227433e-05 9.814447252e-05 5.8825324665e-05 0.00020742317049 0.00018558229244 4.0413645662e-05 -0.00085474967963 -0.00020927763575 
1.3106411772e-05 2.3506711824e-05 0.00012431586618 0.00017909827926 -0.00019979029148 0.00030535197149 -7.9760925661e-05 -0.00039384417308 0.00017603650163 
-7.1602035383e-05 -0.00021087557047 0.00013831894299 -0.00030385258383 0.00015721232147 -0.00022069891348 -0.00019628425811 -0.00040170258384 -7.304675536e-05 
0.00053919870253 0.00013953419281 0.0001802681203 3.3502869578e-05 -3.2211165718e-07 -1.9950677614e-06 6.9299329928e-05 -4.1268866231e-05 6.2383890401e-05 
0.00048368174925 5.7370562391e-05 -5.7579697964e-05 2.8416901513e-06 -2.7452764066e-05 -2.0168002055e-05 1.3861440004e-05 -2.2094495696e-05 -0.00013826505709 
-9.6502550789e-05 -2.5701598818e-05 -2.3689929566e-05 -4.8509879595e-06 5.035285469e-05 -9.0189408973e-06 -0.00014577802219 8.3230452449e-05 0.00019857010782 
-5.9675840576e-05 -3.5958891969e-05 0.00057790489777 5.9096371662e-05 2.5608318079e-05 0.00019679762139 3.7339853217e-05 7.3455356749e-06 1.798244776e-05 
-1.9718714553e-05 -2.7923711724e-05 -1.3083934025e-05 -4.4206903118e-05 -6.824410292e-05 -3.4918811575e-06 -4.2216685434e-05 -2.7485178241e-05 -6.2654396827e-05 
-2.5185399105e-06 1.6232467395e-05 2.5274616148e-05 1.7291120871e-05 5.7504784479e-05 -3.4762177076e-05 1.3654098599e-05 2.1203032666e-05 0.00012115616701 
-7.0283183309e-05 -0.00015943650681 4.5354446614e-05 -8.5016571026e-05 -0.00020872210989 3.1008635327e-05 1.5597800485e-05 -1.1873400841e-05 7.0138494091e-06 
0.00025072493922 -0.00013811697553 -7.2367807672e-05 -1.5287983408e-05 2.7561605887e-05 -2.5741056845e-05 -6.3580498831e-06 1.4497754942e-05 -1.1428767336e-05 
-3.5619544876e-05 3.7616790213e-05 -2.5318804897e-05 
radius 1 70 double
0.006 0.006 0.006 0.006 0.006 0.006 0.006 0.006 0.006 
0.006 0.006 0.006 0.006 0.006 0.006 0.006 0.006 0.006 
0.006 0.006 0.006 0.006 0.006 0.006 0.006 0.006 0.006 
0.006 0.006 0.006 0.006 0.006 0.006 0.006 0.006 0.006 
0.006 0.006 0.006 0.006 0.006 0.006 0.006 0.006 0.006 
0.006 0.006 0.006 0.006 0.006 0.006 0.006 0.006 0.006 
0.006 0.006 0.006 0.006 0.006 0.006 0.006 0.006 0.006 
0.006 0.006 0.006 0.006 0.006 0.006 0.006 
omega 3 70 double
-0.00094330041222 0.0019896609028 0.00082676232696 0.0013084613785 0.00075541377499 -8.978754588e-05 -0.00091087094992 -0.00060778663136 0.0025708845016 
-0.0017276324883 8.2651376933e-05 -0.00017697580054 -3.1546345102e-05 -0.0010410136489 0.00016439721101 0.00046840938454 -0.001002484365 0.0021614376788 
0.0015287712144 0.00099758645112 0.00071176715641 0.00015011019394 -0.0017627015088 0.00047150217299 0.0016828072283 -0.0006632414075 0.00014367924111 
-0.00013177680535 -0.002448495976 1.5742372825e-05 0.00082811265089 -4.811768672e-05 0.00022661424048 0.00091540589078 -0.000169331226 -0.00054994231718 
-0.00022122737053 0.00013483638786 -0.00033477254654 -0.00014878871198 -0.0001586388994 0.00027167512748 0.0030357922886 0.00042859617614 0.0020385699265 
0.00091150847372 0.00084254039785 0.00070148983128 0.00029403240228 -0.00038360762303 0.00016770554412 -0.001251270443 0.00010225374349 0.00039718682601 
7.1995632923e-05 -5.4104701078e-06 -0.0003078159054 -0.00049125514671 -0.00098525166286 0.00067342397832 0.00025949667444 -0.001110006362 -4.9047666331e-05 
-0.00079611127578 -0.00037295318239 0.00046710949636 0.000359429432 0.0022210321205 0.0013641240338 0.00011042029097 -0.0002962343138 -7.0468955999e-05 
-4.855241433e-05 -0.00036497207885 -0.00012647351205 0.00023418391214 -0.00027566749094 0.00013503373778 0.0004574451521 -7.0185811861e-05 1.3091713706e-05 
0.00037028897289 -0.0009510602807 0.0011419177614 -0.00050900379998 -0.00015871148303 8.912209506e-06 -0.00025964855712 3.6270091676e-05 0.00032120351705 
-0.00023580130848 0.00061110854357 -0.00018475528917 -0.0010076394175 0.0001888755849 0.00014382219905 0.00050766368826 -0.00083043469299 -0.00019811513362 
0.00075578255267 0.00084417553259 0.00011862023247 0.00037384794832 0.0010305448862 0.00080892069539 9.5885902784e-05 -0.00013725626193 0.00010066266018 
-6.6493604632e-06 -0.00038324837038 7.3587635274e-05 0.00025942624 3.8004611996e-05 -0.00012609335561 2.0003996344e-05 0.00067024650839 0.000156226635 
0.00036458835192 0.00071233661652 -0.00015597862742 0.0005667764356 -0.00060087219405 -0.00047089984173 -0.00051759685126 -0.00025441682034 -0.00064237020887 
-0.00031584843417 0.00071811806253 0.0003168567418 0.00019420707865 0.0001904015323 0.0015341667222 -0.00014608911339 0.0007660815586 0.00037882148252 
0.00063702690489 -0.00038318777188 1.996640231e-05 -0.00025319008283 2.6910389576e-05 -3.8287254235e-05 0.00036321426985 -0.00039771808815 0.00040065001663 
-0.00058079175596 0.00022121878842 -0.00018166700365 -8.789267468e-05 -8.6932801276e-05 -0.00021436682251 0.00021738878496 0.00054124687101 0.00035281376253 
0.00019828977606 0.00090586288436 -2.1274905334e-05 7.5869427714e-05 -1.6757419683e-05 -0.00014423974828 -0.00031533588055 0.00012130950551 -0.00013459925971 
-0.00059793663847 0.00010014202037 0.00020706939162 0.00071636293865 -4.0830479126e-05 -0.00060378711759 0.00010794028548 3.6213154516e-05 1.4116775221e-05 
-2.5198838265e-05 -0.00022202265981 -8.1726253352e-05 -7.045456628e-05 -0.00011245415953 -5.8151055219e-05 -0.00010549366526 8.4523103484e-06 -3.2517185994e-05 
-8.068084325e-05 0.00025354418963 0.00013735977622 2.202453957e-05 -7.5435591543e-05 -0.00021087458721 -0.0001104139 -0.00011798726954 -0.00024657281672 
3.0752298125e-05 0.00022373460645 9.8902113578e-06 -0.00060683724684 0.00032945157114 0.00014755554181 -0.00019368917216 4.4556289849e-05 -8.1170551898e-05 
-0.00035234070382 3.743701983e-05 0.00018925301459 -0.0004300266456 4.4891235069e-05 2.9424624116e-05 -2.3404542452e-05 -0.00030886002208 0.00014950484062 
-0.00022021297313 0.0001068578442 -6.4662353291e-05 
