# vtk DataFile Version 4.2
Generated by LIGGGHTS
ASCII
DATASET POLYDATA
POINTS 70 float
-0.000325231 -0.0261434 0.0352279 -0.0149832 0.0210799 0.0479632 0.0191306 -0.0193362 0.0600075 
0.000336902 0.00592149 0.0588072 -0.00782656 -0.00741408 0.0627211 -0.0336155 0.00525217 0.069375 
0.0363398 0.0111615 0.0650465 0.0112574 0.0171885 0.0652814 -0.00877451 0.0280523 0.070081 
-0.0109787 -0.0235554 0.0715503 0.0225994 -0.0115983 0.0747615 -0.00835717 0.0273492 0.0820522 
-0.00691218 -0.0183296 0.0871472 0.00155133 -0.00149741 0.082627 -0.0234411 0.00765287 0.104139 
-0.0013197 0.00827606 0.0974302 0.0140649 0.018808 0.102101 -0.0279034 -0.0137173 0.104714 
-0.00278738 -0.0181624 0.120627 0.0229092 -0.0124254 0.124624 0.0380003 -0.0153173 0.125006 
-0.0131374 -0.00108706 0.119279 0.0272687 0.0180533 0.123831 -0.0138654 0.0285688 0.1171 
-0.0130022 -0.0380835 0.136341 0.00643654 -0.0312524 0.136671 0.0125366 -0.0103299 0.135557 
0.0314931 -0.00176728 0.135776 -0.0181999 -0.0283872 0.143802 -0.00866905 -0.0238964 0.13806 
0.0131371 -0.0339237 0.146259 0.0149352 0.00686162 0.145702 0.0257956 0.00759857 0.140657 
-0.007764 0.0249631 0.138661 -0.027094 -0.0263823 0.153246 0.00201312 -0.032154 0.158114 
-0.00353122 -0.0191512 0.157666 0.0175449 -0.00848716 0.157562 -0.0329996 0.00882666 0.153443 
-0.0151206 0.0033143 0.149071 0.0322416 0.00279729 0.150679 -0.0193759 0.0210962 0.14994 
0.00820401 0.0282124 0.159188 -0.000538916 0.0363134 0.157811 0.0096945 0.039844 0.150697 
-0.00886041 -0.0343435 0.16341 0.0104172 -0.0267315 0.164742 -0.0342152 -0.0050154 0.16362 
-0.000137058 -0.00141219 0.164741 0.0288715 -0.0109924 0.167247 -0.0353291 0.00684723 0.165044 
-0.0162839 0.00196268 0.16469 0.0195281 0.00240505 0.164309 0.000815907 0.0153321 0.170021 
0.0150599 0.0166938 0.168369 -0.0138121 0.0240943 0.160138 -0.00834191 -0.0285983 0.181 
-0.000516113 -0.0190545 0.181113 0.0110638 -0.0191157 0.177529 -0.0344979 -0.00700297 0.177638 
-0.0132936 -0.0112 0.175587 0.0163968 -0.00185081 0.175083 0.02814 -0.000499111 0.173018 
-0.0295486 0.00390027 0.178963 -0.000902614 0.00662032 0.181454 -0.00341137 0.020928 0.179758 
0.0243139 0.0144186 0.177785 0.00839905 0.0303749 0.176351 0.0322982 0.000532064 0.184226 
0.00684984 0.0156418 0.183035 
VERTICES 70 140
1 0 
1 1 
1 2 
1 3 
1 4 
1 5 
1 6 
1 7 
1 8 
1 9 
1 10 
1 11 
1 12 
1 13 
1 14 
1 15 
1 16 
1 17 
1 18 
1 19 
1 20 
1 21 
1 22 
1 23 
1 24 
1 25 
1 26 
1 27 
1 28 
1 29 
1 30 
1 31 
1 32 
1 33 
1 34 
1 35 
1 36 
1 37 
1 38 
1 39 
1 40 
1 41 
1 42 
1 43 
1 44 
1 45 
1 46 
1 47 
1 48 
1 49 
1 50 
1 51 
1 52 
1 53 
1 54 
1 55 
1 56 
1 57 
1 58 
1 59 
1 60 
1 61 
1 62 
1 63 
1 64 
1 65 
1 66 
1 67 
1 68 
1 69 

POINT_DATA 70
FIELD FieldData 7
id 1 70 int
44 208 510 598 557 411 372 458 587 
506 366 612 723 485 1047 875 972 835 
1168 1262 1563 1140 1063 894 1642 1274 1445 
1242 1483 1602 1884 1645 1687 1328 1519 2214 
2099 2118 2005 1335 1808 1875 1873 1747 1781 
1900 1990 2253 2175 2254 2200 2171 2147 2152 
2278 1946 2455 2457 2463 2412 2322 2430 2345 
2364 2460 2424 2304 2379 2461 2474 
type 1 70 int
2 2 2 2 2 2 2 2 2 
2 2 2 2 2 2 2 2 2 
2 2 2 2 2 2 2 2 2 
2 2 2 2 2 2 2 2 2 
2 2 2 2 2 2 2 2 2 
2 2 2 2 2 2 2 2 2 
2 2 2 2 2 2 2 2 2 
2 2 2 2 2 2 2 
i 3 70 int
0 0 0 0 0 0 0 0 0 
0 0 0 0 0 0 0 0 0 
0 0 0 0 0 0 0 0 0 
0 0 0 0 0 0 0 0 0 
0 0 0 0 0 0 0 0 0 
0 0 0 0 0 0 0 0 0 
0 0 0 0 0 0 0 0 0 
0 0 0 0 0 0 0 0 0 
0 0 0 0 0 0 0 0 0 
0 0 0 0 0 0 0 0 0 
0 0 0 0 0 0 0 0 0 
0 0 0 0 0 0 0 0 0 
0 0 0 0 0 0 0 0 0 
0 0 0 0 0 0 0 0 0 
0 0 0 0 0 0 0 0 0 
0 0 0 0 0 0 0 0 0 
0 0 0 0 0 0 0 0 0 
0 0 0 0 0 0 0 0 0 
0 0 0 0 0 0 0 0 0 
0 0 0 0 0 0 0 0 0 
0 0 0 0 0 0 0 0 0 
0 0 0 0 0 0 0 0 0 
0 0 0 0 0 0 0 0 0 
0 0 0 
v 3 70 double
5.0680621891e-06 2.187254444e-06 -5.6140850845e-06 -1.2311307358e-07 -2.0451649553e-07 3.13720411e-06 -3.8598616601e-06 -3.4445546667e-06 6.6871613854e-06 
-3.6464466688e-06 -2.4484369012e-06 -5.1886489168e-06 -3.8618526467e-07 -1.3314587602e-06 6.3995830715e-07 -1.7287552155e-06 -5.3000671605e-08 -4.2369063241e-06 
-3.7738573239e-07 -4.7719398312e-06 -1.0795946822e-06 -2.2726133782e-07 -2.6347003136e-06 2.0495125076e-06 1.1585150599e-06 3.6983809976e-07 4.3867710483e-07 
-2.2591664187e-06 3.4297154802e-06 -4.8378747112e-06 4.2498529023e-06 1.4939410447e-06 -2.4859933079e-06 3.2096640156e-07 -4.1186548681e-07 -2.4548922227e-07 
-7.9544844342e-07 -1.4541340421e-06 -1.0588344202e-06 1.0012043746e-06 -1.8101337314e-06 1.4096848382e-06 -8.3834335948e-07 1.4547277978e-06 4.0647121539e-07 
9.7190028069e-07 6.8141355835e-07 -1.6218421266e-06 -3.5702617612e-06 1.4522586869e-07 -3.4623488399e-06 2.4027211157e-06 -7.3814369729e-07 -7.1525181566e-07 
1.8122231857e-06 2.1609852045e-06 2.3517168584e-06 3.1571218444e-07 2.948266153e-07 -1.1238189286e-07 -9.6099192434e-07 6.244260138e-07 2.4940750194e-07 
1.9305150459e-06 4.480567301e-07 1.6382011276e-06 -5.0806619895e-06 2.4622147916e-06 2.8384035029e-06 -2.3156624896e-06 -1.2980506903e-06 -5.2772751587e-06 
6.0794105807e-07 -1.8494361518e-06 -4.2846977852e-07 1.8222014558e-07 9.9096330462e-07 1.4282452673e-06 8.8629043241e-07 -1.6031629008e-06 -1.0584975137e-06 
-2.6368853485e-06 -1.2053396241e-06 3.4553782574e-07 1.201651174e-06 7.0972469794e-07 -1.0594562087e-06 1.3430942271e-07 -1.138001527e-06 1.7280905506e-06 
5.5224292823e-07 5.6756111208e-07 5.2651514843e-07 -6.9492569933e-07 5.9750028199e-07 -1.4633662069e-06 4.6200177052e-07 2.8410834819e-06 -4.1592851627e-06 
1.0562050091e-06 3.1649391266e-06 1.88925219e-06 2.1214103322e-06 -2.2577005962e-06 7.7614588458e-07 1.7934889906e-07 -6.9241423264e-07 1.4824034655e-06 
1.9667204451e-07 -2.9564985343e-07 1.90483777e-06 7.9866364874e-07 -2.2819859239e-06 4.9624312204e-07 -1.1007333704e-07 1.1557345122e-06 -2.4670414018e-07 
-1.6439870762e-06 2.193083024e-06 -2.2405397775e-06 -9.645140025e-07 -1.8130969622e-06 1.1093185383e-06 -8.6634349183e-07 -2.1054491374e-08 -1.0457828059e-06 
-3.0467930863e-07 -2.7679730207e-06 1.6956094865e-07 -2.498033275e-06 4.3420592948e-06 -4.7506832212e-06 -2.2243107967e-06 -2.7384207348e-07 -1.6155550808e-06 
-1.5406449315e-06 -1.5139740559e-07 -2.8675650121e-07 -1.3693845686e-07 1.3632455298e-06 6.8899886079e-07 -3.0472350493e-06 -3.8466327093e-07 7.8206292828e-07 
1.6660704918e-06 -5.0331758727e-07 -1.1295304327e-06 5.3677703719e-08 -7.8890461906e-07 1.0079389493e-06 5.8483202401e-07 -2.1366610696e-06 2.1502269601e-07 
-8.8347299757e-07 -1.1002441267e-07 -3.4190577728e-09 -1.9572839347e-07 -1.7739180913e-06 -5.3655964452e-07 -3.6539405469e-07 7.4362552646e-07 6.5331378771e-07 
-1.4179375413e-06 -3.0305047045e-07 2.609508281e-06 1.9402147768e-06 4.7019993393e-07 3.5576861383e-06 -6.1342556526e-08 -6.0150942848e-07 -1.3956975492e-08 
9.3771209579e-07 -5.0204036585e-07 2.1565702597e-07 9.0946873146e-07 1.9730488916e-07 7.6329463169e-07 4.7285341074e-07 4.4211639063e-07 8.3334919911e-07 
-1.3113276363e-08 -1.3780174126e-07 1.1139460172e-06 1.31543035e-06 2.1056597154e-07 1.041990422e-07 -1.841819497e-07 -1.7888359801e-07 8.1274797987e-07 
5.9046191676e-07 -5.0147276883e-07 5.5447005691e-07 7.9822090579e-07 -1.6506112742e-06 -6.6272280046e-08 3.3653574394e-07 5.408579009e-07 -1.1906702145e-06 
6.7502496122e-07 -3.8456107117e-07 9.6951668024e-07 -1.2835760881e-06 6.0641699216e-07 -8.7896933988e-07 -5.4622284173e-07 -5.3797010786e-07 -7.2123294616e-08 
-9.9445641237e-08 2.8956018376e-07 -1.8881482384e-06 
f 3 70 double
-4.5643665421e-06 -0.00054698970612 -0.00049789643096 0.0009750104224 0.00011590757095 -0.00031377115543 0.0015733197302 -0.00022403450661 0.00047055448261 
-0.00029664177181 0.00016804965815 -7.2763771718e-05 0.00037203237762 0.00061786169808 4.4800508163e-05 7.9900482167e-05 -0.00033189087267 -6.0614238494e-05 
-0.00086430097893 0.00028307388882 -0.0001457809488 0.00044652095875 -0.00047312579473 0.00077875658976 -0.00023209601249 -5.6465918259e-05 0.00058577761516 
-1.6259000888e-06 0.0003649732605 -4.3308150823e-05 3.5305050714e-05 0.00018849876958 -0.00027019980139 0.00035875288329 -0.00017547528951 -0.00029497699008 
-0.00041544265146 -3.9837719072e-05 -0.00023480698386 -0.00014344632416 9.9058875566e-06 9.8112898333e-05 -0.00012970375864 9.0632427355e-05 0.00024811168043 
-0.00011855626425 0.00049396834882 -0.00026351240832 -0.00022728865499 0.00022641623901 -0.00010110550577 0.00040663584488 -0.00042440653232 -0.00023795326973 
0.00012148939793 -6.0574622271e-05 -0.00012057751475 0.00029273141148 0.00017601771251 0.00014458067506 -0.00030947958882 -7.9252566217e-05 -0.00011942427003 
-0.00013083783415 0.00017421276806 3.975944132e-05 -7.3171668984e-05 0.00027471978629 -0.00025038832912 0.00024074883533 4.255973489e-06 0.00021526778881 
0.00027954628441 6.1786389576e-05 0.00011161275739 0.00011473234466 -0.00020990008375 0.00026516500118 0.00010766334569 -5.6987870332e-05 0.000268232834 
9.1376269083e-05 -0.00025008315453 3.7129314599e-05 4.5030150324e-05 6.693461706e-05 -0.00038873470418 -2.9699172353e-05 -0.00016034880625 9.3624524718e-05 
3.2916937805e-05 0.00017101174077 -0.0001296160291 -0.00014660865885 -0.00089588235286 6.171254893e-05 0.00029655839749 0.00042413936952 3.3888529026e-05 
0.00022681882287 -4.7771245403e-05 0.00040743989733 9.9297078299e-05 5.3184894521e-05 -7.1321065952e-05 -0.00023267132337 -0.00030693586627 0.00016492459311 
-2.8840721048e-05 -6.1643659252e-05 -2.7285442827e-05 1.1178897434e-05 -2.1975040782e-06 5.1605278928e-05 0.0002021005471 -7.4672721235e-05 -1.2841970343e-05 
-0.00016028361384 -9.7883606438e-05 -5.9772797811e-05 0.000235182279 8.4769899228e-06 0.00016590331552 7.7125417665e-05 -0.00024158205963 -1.9605991145e-05 
0.00022120973406 0.00026927077053 0.00053281172866 -7.5201010898e-05 1.7380173701e-05 -1.8147251452e-05 -0.00018725438955 -0.00019158729645 -1.1787931645e-05 
-0.00031382799051 -0.00011854795709 -4.6247452191e-05 4.5411960511e-07 -0.00011352208605 -4.8537104133e-06 -9.5191516153e-05 -0.00017323836487 -0.00017740417491 
1.0486556753e-05 1.876797358e-05 -0.00023931829845 -1.2896028372e-05 -9.4185405137e-05 -1.0000672878e-05 -0.00013903211307 7.6070427281e-05 9.1020006226e-05 
0.00010614437388 2.4613397488e-05 -0.00014806521501 9.4018363471e-05 1.4098845434e-06 -8.201836159e-05 -4.2304942731e-05 2.5193093789e-05 3.4489485323e-05 
-0.00011418798905 -6.8005890022e-05 -0.00012290383923 -5.3516829299e-05 3.6413597284e-05 2.2699613307e-05 1.0099633676e-07 -6.0467066194e-06 -1.3247679117e-05 
-2.4847729101e-05 2.6659005887e-05 -1.2446902321e-05 -5.9271381718e-05 1.051051039e-05 -3.4715733499e-05 0.0001164303117 2.7038929966e-05 -6.7186183001e-05 
0.0001148796285 -5.9959514603e-05 -6.6329748089e-05 1.0499302677e-05 0.00010744121915 -9.8609002853e-05 -5.6080030755e-05 0.00011982614492 0.00010600073019 
4.5626949182e-05 0.00010962640294 -8.9869659881e-05 1.0808540909e-05 -1.7602989818e-05 4.3321140594e-05 1.8530895052e-05 -2.4165523169e-05 -2.72357436e-05 
-3.2976122509e-05 8.474711662e-06 7.7383373757e-05 9.3734375016e-05 -0.00011781752683 9.730593374e-05 -2.6394242155e-05 1.7362958749e-05 2.6804957227e-06 
2.0752692025e-06 2.2805368516e-05 -3.6986358378e-05 
radius 1 70 double
0.006 0.006 0.006 0.006 0.006 0.006 0.006 0.006 0.006 
0.006 0.006 0.006 0.006 0.006 0.006 0.006 0.006 0.006 
0.006 0.006 0.006 0.006 0.006 0.006 0.006 0.006 0.006 
0.006 0.006 0.006 0.006 0.006 0.006 0.006 0.006 0.006 
0.006 0.006 0.006 0.006 0.006 0.006 0.006 0.006 0.006 
0.006 0.006 0.006 0.006 0.006 0.006 0.006 0.006 0.006 
0.006 0.006 0.006 0.006 0.006 0.006 0.006 0.006 0.006 
0.006 0.006 0.006 0.006 0.006 0.006 0.006 
omega 3 70 double
-0.00062768831667 -0.0008725362069 -6.0602474364e-05 0.0025205056106 0.00082570278902 0.0021385903781 -0.0013625424119 -0.0007442904854 0.0011308238539 
-0.0019488183991 -0.00040413979057 -0.0013372537843 -0.00090177806621 0.001204458239 0.00046788715853 0.0012441810631 -0.00089530620413 0.0012989613017 
0.00013235480762 0.00097945634315 -0.00080242709936 -0.00070505433745 0.0002901742869 -0.00051904019991 -0.00094545953705 0.0013188937705 4.1879111781e-05 
6.0879941533e-05 -0.0012920479655 0.00019290130066 -0.0007242736158 -0.0016265823423 0.00069140510001 -0.00043446418806 -0.00028847629432 -0.00021642204218 
0.0003622383486 0.00048880757248 0.0006056497438 -0.00021244002966 5.4474892802e-05 -8.6690508256e-06 -0.0015582099424 0.00024538769003 -0.00054329466743 
0.00014455871088 -7.5520232895e-06 -0.0010696338437 -0.0015118558183 -8.3373632501e-05 -0.00056651430512 -0.00046198543368 0.00042459019508 -0.00021497098692 
-0.00054397017062 -2.3936735367e-05 -0.00049919155761 -0.00027985003844 -0.00012428338866 -0.0001610967746 -4.1660661256e-05 0.00047190273699 0.00010196339434 
-0.00018775616305 0.00045566184283 0.0002227942324 6.7024518531e-05 -0.0030933662025 -0.00043040722988 0.00052875450357 -0.00026900516454 1.5001090678e-05 
0.00048817696425 -1.7006486089e-05 -0.00017933542742 0.00039005293325 -0.00015123454935 -0.00029023813775 -0.00031895908496 -0.00017340522464 -0.00030942930376 
-0.00021537320264 0.00077241233928 0.0009277351091 0.00020254100194 0.00045650135579 0.00017006355767 7.7055678695e-05 0.00025243468455 8.5824047904e-05 
9.8640507315e-05 -5.2578421339e-05 -0.00079864226609 0.00012307515267 -0.0011248472879 -0.00026348985082 -0.0010574752071 2.4045264051e-05 -3.4927279009e-06 
0.0010889350852 0.00045625318457 -0.00011641845788 -8.0392096116e-05 -0.00029047437238 -0.00039865995755 -0.00030941068063 0.00059206931904 1.0329307204e-05 
7.9834072206e-05 -0.00043247609095 0.00052605378465 0.00013803967318 0.00018211747251 0.00017746655989 0.0014613769038 0.00035599685855 -9.0545581476e-05 
0.0005823257261 -0.00051320698865 0.00011923487338 -8.6640575733e-05 -0.00023785702371 0.00072448703994 0.00082315292663 -0.00050039128841 -0.00036767400655 
0.00016189931415 0.00048056730458 0.00074212419412 -5.3244146656e-05 0.00075959829923 0.0014796112061 -0.00052796575034 0.00084779921516 0.0002451022072 
-0.0010428682453 0.00079058558777 -0.00051763439355 6.7684576218e-05 -0.00010588798892 -0.00023763171502 -0.00068588174201 0.0007452055482 4.3239291781e-05 
-0.00042376970098 -4.9115794401e-06 4.7401868025e-05 -3.9706936617e-05 0.00016255463585 0.00066478835521 -0.00031008698705 0.00035267218468 8.7634491379e-05 
3.7097970237e-05 -1.7768392584e-05 -9.2826560136e-06 0.00034292525754 0.00038615531312 0.00026224911299 -0.00026273498453 6.0500640192e-05 -0.00022541173339 
0.0001400442516 -0.0008030331465 -0.00023334380442 -7.4239048583e-05 -0.0001917459327 -0.00032114404008 -0.00020620189384 3.4079486178e-05 0.00013528702222 
-0.00017708022731 -6.6654402655e-05 5.8456230634e-05 4.9131855084e-05 0.00010661929402 -0.00031823411768 -0.00016462430507 -0.00012143319978 1.082436975e-05 
0.00019762362345 1.1891021416e-05 -0.00021082099368 -1.1098992785e-05 0.00015781037925 -2.8961891133e-05 0.00019033286041 0.00025833188988 -0.00021392818134 
-0.00015839294419 0.00026301534991 -0.00024749098078 -0.00040222758535 -3.5059472109e-05 7.9549669721e-05 -0.0002824956539 0.00011002676713 -0.00021597185369 
0.00013347383184 -0.00094673542055 8.0671134602e-05 0.00026242543265 0.00024805002526 7.2219287779e-06 0.00035557134325 7.1496476703e-05 -8.7758478298e-05 
2.1154404482e-05 -6.0047302086e-05 -5.4705308257e-05 
