# vtk DataFile Version 4.2
Generated by LIGGGHTS
ASCII
DATASET POLYDATA
POINTS 70 float
-0.000325273 -0.0261434 0.0352279 -0.0149832 0.0210799 0.0479632 0.0191306 -0.0193362 0.0600075 
0.000336919 0.00592149 0.0588072 -0.00782658 -0.00741406 0.0627211 -0.0336155 0.00525224 0.069375 
0.0363398 0.0111615 0.0650465 0.0112575 0.0171885 0.0652814 -0.00877446 0.0280523 0.070081 
-0.0109787 -0.0235554 0.0715503 0.0225993 -0.0115983 0.0747615 -0.00835712 0.0273492 0.0820522 
-0.00691221 -0.0183295 0.0871472 0.00155132 -0.00149741 0.082627 -0.023441 0.00765293 0.104139 
-0.00131969 0.00827607 0.0974302 0.014065 0.018808 0.102101 -0.0279034 -0.0137172 0.104714 
-0.0027874 -0.0181624 0.120627 0.0229092 -0.0124254 0.124624 0.0380003 -0.0153174 0.125006 
-0.0131374 -0.001087 0.119279 0.0272688 0.0180533 0.123832 -0.0138653 0.0285688 0.1171 
-0.0130023 -0.0380834 0.136342 0.00643652 -0.0312524 0.136671 0.0125366 -0.0103299 0.135557 
0.0314931 -0.00176736 0.135776 -0.0181999 -0.0283871 0.143802 -0.00866911 -0.0238964 0.13806 
0.0131371 -0.0339237 0.146259 0.0149353 0.0068616 0.145702 0.0257957 0.00759851 0.140657 
-0.00776391 0.0249631 0.138661 -0.027094 -0.0263822 0.153246 0.00201309 -0.0321541 0.158114 
-0.00353123 -0.0191512 0.157666 0.0175449 -0.00848718 0.157562 -0.0329996 0.00882678 0.153443 
-0.0151205 0.00331432 0.149071 0.0322416 0.00279723 0.15068 -0.0193758 0.0210962 0.14994 
0.00820411 0.0282123 0.159188 -0.00053875 0.0363134 0.157811 0.00969463 0.039844 0.150697 
-0.00886045 -0.0343435 0.16341 0.0104172 -0.0267315 0.164742 -0.0342152 -0.00501536 0.16362 
-0.000137042 -0.00141216 0.164741 0.0288715 -0.0109924 0.167247 -0.0353291 0.00684724 0.165045 
-0.0162837 0.00196274 0.16469 0.0195281 0.00240506 0.164309 0.000815887 0.0153321 0.170021 
0.01506 0.0166937 0.168369 -0.0138119 0.0240944 0.160138 -0.00834192 -0.0285983 0.181 
-0.000516132 -0.0190545 0.181113 0.0110637 -0.0191157 0.177529 -0.0344981 -0.0070033 0.177638 
-0.0132937 -0.0112001 0.175587 0.0163968 -0.0018508 0.175083 0.0281399 -0.000499137 0.173018 
-0.0295496 0.00389926 0.178963 -0.000902637 0.00662025 0.181454 -0.00341304 0.0209261 0.179758 
0.0243137 0.0144186 0.177785 0.00839936 0.0303746 0.176351 0.032298 0.000532075 0.184226 
0.0068495 0.0156419 0.183035 
VERTICES 70 140
1 0 
1 1 
1 2 
1 3 
1 4 
1 5 
1 6 
1 7 
1 8 
1 9 
1 10 
1 11 
1 12 
1 13 
1 14 
1 15 
1 16 
1 17 
1 18 
1 19 
1 20 
1 21 
1 22 
1 23 
1 24 
1 25 
1 26 
1 27 
1 28 
1 29 
1 30 
1 31 
1 32 
1 33 
1 34 
1 35 
1 36 
1 37 
1 38 
1 39 
1 40 
1 41 
1 42 
1 43 
1 44 
1 45 
1 46 
1 47 
1 48 
1 49 
1 50 
1 51 
1 52 
1 53 
1 54 
1 55 
1 56 
1 57 
1 58 
1 59 
1 60 
1 61 
1 62 
1 63 
1 64 
1 65 
1 66 
1 67 
1 68 
1 69 

POINT_DATA 70
FIELD FieldData 7
id 1 70 int
44 208 510 598 557 411 372 458 587 
506 366 612 723 485 1047 875 972 835 
1168 1262 1563 1140 1063 894 1642 1274 1445 
1242 1483 1602 1884 1645 1687 1328 1519 2214 
2099 2118 2005 1335 1808 1875 1873 1747 1781 
1900 1990 2253 2175 2254 2200 2171 2147 2152 
2278 1946 2455 2457 2463 2412 2322 2430 2345 
2364 2460 2424 2304 2379 2461 2474 
type 1 70 int
2 2 2 2 2 2 2 2 2 
2 2 2 2 2 2 2 2 2 
2 2 2 2 2 2 2 2 2 
2 2 2 2 2 2 2 2 2 
2 2 2 2 2 2 2 2 2 
2 2 2 2 2 2 2 2 2 
2 2 2 2 2 2 2 2 2 
2 2 2 2 2 2 2 
i 3 70 int
0 0 0 0 0 0 0 0 0 
0 0 0 0 0 0 0 0 0 
0 0 0 0 0 0 0 0 0 
0 0 0 0 0 0 0 0 0 
0 0 0 0 0 0 0 0 0 
0 0 0 0 0 0 0 0 0 
0 0 0 0 0 0 0 0 0 
0 0 0 0 0 0 0 0 0 
0 0 0 0 0 0 0 0 0 
0 0 0 0 0 0 0 0 0 
0 0 0 0 0 0 0 0 0 
0 0 0 0 0 0 0 0 0 
0 0 0 0 0 0 0 0 0 
0 0 0 0 0 0 0 0 0 
0 0 0 0 0 0 0 0 0 
0 0 0 0 0 0 0 0 0 
0 0 0 0 0 0 0 0 0 
0 0 0 0 0 0 0 0 0 
0 0 0 0 0 0 0 0 0 
0 0 0 0 0 0 0 0 0 
0 0 0 0 0 0 0 0 0 
0 0 0 0 0 0 0 0 0 
0 0 0 0 0 0 0 0 0 
0 0 0 
v 3 70 double
-3.1209426235e-06 -1.7702647882e-06 3.3636305881e-06 9.8946909797e-06 -2.9112296206e-06 -3.4848257452e-06 -5.2895109715e-06 2.9861950297e-06 -1.4501035073e-05 
3.5830949322e-06 1.8053450192e-07 -7.0601025399e-06 2.1418932649e-06 3.6064946523e-06 -2.2434049562e-06 2.1757821045e-06 3.5509525428e-07 2.4952647774e-06 
2.0332721495e-06 2.2142321604e-06 -3.2319079013e-07 1.7701004267e-06 -4.5047618726e-07 1.099223325e-06 1.9713347905e-06 2.8971323852e-06 2.6525104694e-07 
-8.5725028825e-07 -3.0273379762e-06 3.2690481967e-07 2.1287008094e-06 -1.0669319157e-06 3.2794375494e-06 1.3744200741e-06 1.0718648514e-06 2.1795207412e-06 
-1.7410968033e-06 1.9555294382e-06 -3.1978908652e-06 -2.5101277626e-06 1.4210305274e-06 1.682519787e-06 9.7770148658e-07 2.4730724786e-06 -3.0371138067e-06 
2.9792811693e-07 -1.4950742434e-06 -1.6127957558e-06 -4.1403760884e-06 1.3515528782e-06 -7.8166943879e-07 -5.7460116682e-07 -1.5277986871e-06 -2.3658100028e-06 
1.3087165944e-06 -1.1365645554e-06 -1.7189340091e-06 1.2004984392e-06 -2.5186387699e-07 -4.3611984091e-07 -2.1373181703e-06 -1.507568035e-06 -1.2234686808e-06 
-1.1861041553e-06 2.2896808639e-06 -2.9276269205e-06 -3.3336701714e-07 1.4707996651e-06 3.3332584874e-06 1.1107122852e-06 1.4604243688e-06 1.6452433793e-06 
8.0226509832e-07 -1.7243296571e-06 5.5670992392e-08 7.6285421427e-07 2.5387299384e-07 -5.0125624354e-07 -5.0123904539e-07 -9.6229620232e-07 -4.9707877366e-07 
3.6902321766e-06 -5.2188249753e-07 -9.6389606504e-07 3.4043347958e-06 -8.8769559207e-08 -3.9691001064e-06 -5.6580518351e-07 -9.8606656989e-07 9.6490878405e-07 
1.1415183416e-06 3.566656648e-06 -6.6283814193e-07 -3.5821255609e-06 6.9532237455e-07 -2.9302013156e-07 4.0378315962e-07 4.7056992248e-06 -1.2735870798e-06 
-4.4098441048e-06 -6.8822993869e-07 -3.1199738782e-06 5.6301573552e-07 2.7235702044e-07 9.8327381486e-07 -4.4840990314e-08 -2.0186509607e-06 1.1512347592e-06 
-1.5691351267e-07 -1.2390783677e-06 -7.5740430122e-07 9.2208115143e-07 -7.4241628607e-07 -1.3119237408e-06 -6.4396435063e-07 3.4850100793e-06 2.2298594214e-07 
-8.5951445702e-07 5.4861647117e-07 -8.614169532e-07 -1.5458807498e-06 -4.8364175028e-07 -5.0216623118e-07 -3.7316327997e-07 2.0017642083e-06 -1.7358561686e-06 
1.4492906374e-06 2.2557882742e-06 -3.228349002e-06 1.0842487644e-06 -4.4628574035e-06 4.8081009566e-06 6.8631628756e-07 1.2098267797e-06 -1.249679439e-06 
-1.5800554889e-06 -6.8964913679e-07 -1.8061752024e-06 -3.6030105745e-07 -1.0911656895e-07 2.4295344021e-07 1.1491813897e-06 -6.1862348637e-07 1.9615229415e-07 
-9.9022295964e-07 -1.7279539979e-06 1.1484804719e-06 -1.2096674354e-06 4.6142803077e-07 -4.1222831948e-08 -1.2462775615e-07 -1.1059624142e-06 -1.3948014191e-06 
5.0028446821e-07 -1.769289562e-07 -1.338997175e-06 1.3201985742e-06 -1.8884372649e-06 1.3955372597e-06 4.6597145302e-07 -2.0041934394e-06 -1.1198004338e-06 
-1.6439165941e-06 -8.6746779375e-07 -2.2193216646e-06 -1.1786313646e-08 -6.385855213e-07 -7.6742776681e-07 6.9994054979e-07 -4.1207941829e-07 -2.7060944892e-07 
7.8800289044e-07 1.1446110376e-06 -4.0715171589e-07 3.8459358175e-07 7.8025101599e-07 -6.2371752498e-07 1.6961854286e-06 -1.13208294e-06 -1.3790942763e-06 
3.5418463325e-07 -4.9858191686e-07 -3.9128024137e-07 6.4859056285e-07 1.7639832964e-06 -4.801045852e-07 -4.5591334096e-07 5.7301852532e-08 -2.5145600338e-08 
7.7060150089e-07 -1.4549271289e-07 9.5214312426e-07 9.101641086e-07 2.0393161518e-07 -8.4169148768e-07 -3.7117218382e-07 -8.1432201356e-07 -1.2748184059e-06 
-8.6614130901e-07 5.8087565388e-07 3.107221902e-07 -1.916780362e-07 -1.6329631607e-07 -2.4033486739e-07 2.6343764132e-07 1.3107658405e-06 1.4665318448e-06 
2.8323712203e-07 -4.8323182651e-08 -7.1893368327e-08 
f 3 70 double
-0.00059067503541 1.9472141283e-05 0.00026434006729 0.00019988852288 0.00018618676825 7.388654625e-05 0.00023211057337 0.00050520317323 -0.00034369571899 
0.00054349530139 0.00048921252014 0.0001048740437 0.00028791458126 -0.00033447224877 -0.00022699633401 -0.00052024382279 -0.00041467746349 2.2923464681e-05 
1.9887014436e-05 -0.00022943901062 0.00011675666821 6.6393495569e-05 -0.00015495667797 0.0010982850732 0.00060724809828 0.00046891225292 -0.00033007790128 
-0.00026264756578 0.00020357592852 0.00048588028982 0.0005339446459 0.00022876557747 -0.00038705936984 -0.0001434670694 4.1562195176e-05 -0.00016804727157 
0.0005109020524 -9.9033664192e-06 0.00042502101393 7.9888110478e-05 0.00017622400103 8.4823827064e-05 -0.00035436057364 2.0739005276e-05 -0.00011107709642 
-0.00011250841119 0.00015547594515 0.00017791335644 7.3464009279e-05 -1.3086026466e-05 0.00026677212273 0.00019396527442 7.6647733514e-05 0.00037426335786 
-0.00016089865746 -6.7580532952e-05 0.00016485850703 0.00023022407073 0.00020977937421 -0.00010111670781 0.00018599786175 -1.9604059865e-05 1.3448393954e-05 
-2.8351455139e-06 0.00013958088396 0.00019309763723 -9.860903708e-05 -7.5508758039e-05 -1.1890390322e-05 0.00030296162975 -0.00031191946543 -0.00048430227539 
-2.3171183651e-06 0.00026494349837 0.00011873801308 0.00028880725809 -0.00032723801073 0.00033934433977 0.00025314699038 -8.651195047e-05 7.2388663548e-05 
0.00019570779651 -0.00013273867111 3.8909368198e-05 2.4197702849e-05 -0.00024061919663 -0.00042609093417 -0.00013099607331 0.00029811739255 5.7949529571e-05 
-0.00032707883668 -0.00023377335477 -0.00028858978822 -0.00011248706666 -0.00078133318001 0.00029256815676 -8.3120360756e-05 -0.00012536716815 -0.00014455426541 
0.00018369768282 -1.5178118115e-05 -3.2314847599e-05 0.00016572605019 -5.1830510937e-05 -0.00022215934623 -2.2595249994e-05 -8.8113886401e-07 -9.43863505e-05 
0.00017284615287 0.00012353910782 5.71000308e-05 -3.9389175535e-05 0.00016577317249 0.00014844960474 7.6112164922e-05 0.00042719822861 0.00027115516705 
-0.00010230342322 0.00010480194645 4.6113194272e-05 0.00041535463786 0.00037294222916 4.9871455505e-05 -1.4309491575e-05 0.00015793904827 1.8398872753e-05 
8.2343769957e-05 3.0418873228e-05 6.7072717194e-05 0.00020027411713 5.9617507597e-06 -0.00021075384459 0.00010210142165 0.00032221511359 0.00010689351595 
6.9795629962e-05 -1.9746515425e-05 -1.6472506955e-05 -1.0639489627e-05 -8.9477736076e-06 2.2363517292e-05 -0.00018231995977 -0.00021586809751 -0.00017685063714 
-2.7714017131e-05 -0.00014987310864 0.0001520269786 -6.1725487878e-05 2.9696248514e-05 -7.1433635702e-05 -9.5890874501e-05 6.5084297703e-05 3.9896015417e-05 
7.2488416044e-05 5.8706381202e-05 -0.00017260742057 0.0001273376924 -4.5230491302e-05 -0.00018489601577 1.0839931461e-05 6.4158028424e-05 -0.00037893285494 
-9.567981906e-05 1.5314355701e-05 -9.9160879068e-05 -1.0326034765e-05 -2.9343102773e-05 7.4950563212e-05 7.4068847546e-06 -2.0801056936e-05 -3.1474833793e-05 
-5.5272263393e-05 -3.0749407881e-05 -3.0551043592e-05 -3.8249660289e-05 -5.6325000618e-07 -3.6338171987e-05 4.0746005516e-05 1.7287246826e-05 7.4353671447e-05 
3.6660996283e-05 3.1588264663e-05 1.3062228578e-06 1.3206364651e-05 2.659661699e-06 -1.366689528e-05 -5.0546329849e-07 1.5571839032e-05 -5.71656301e-06 
4.9520290728e-05 8.9775697034e-05 -4.254702306e-05 6.3835621509e-05 0.00028739999823 -3.177081694e-06 5.1761902425e-06 7.0592696684e-06 3.88540191e-05 
-0.0001078444638 -3.8383837199e-05 -7.3922688143e-05 4.9769425472e-06 -4.1695366554e-06 9.2136992296e-06 -1.2966483666e-05 -5.9234641841e-06 -7.1021476173e-06 
2.4926440409e-05 -3.5077188026e-05 2.2596882958e-05 
radius 1 70 double
0.006 0.006 0.006 0.006 0.006 0.006 0.006 0.006 0.006 
0.006 0.006 0.006 0.006 0.006 0.006 0.006 0.006 0.006 
0.006 0.006 0.006 0.006 0.006 0.006 0.006 0.006 0.006 
0.006 0.006 0.006 0.006 0.006 0.006 0.006 0.006 0.006 
0.006 0.006 0.006 0.006 0.006 0.006 0.006 0.006 0.006 
0.006 0.006 0.006 0.006 0.006 0.006 0.006 0.006 0.006 
0.006 0.006 0.006 0.006 0.006 0.006 0.006 0.006 0.006 
0.006 0.006 0.006 0.006 0.006 0.006 0.006 
omega 3 70 double
0.00074952996328 -0.0024575529722 -0.00078672282652 0.00068754126426 0.00025219869315 -0.00066815183839 0.002965171766 0.004074379586 0.0012996061518 
0.00023386313153 0.00066836487821 0.0014625239841 0.00035012246836 0.00048188785445 0.00049207161254 -0.00022534076585 0.00039880664914 3.0920163062e-05 
0.001104251797 -0.00071756737748 0.00049939219665 -0.00082863422296 -0.00016385618509 -0.00045280171664 0.00025127944465 0.0008147053037 -0.0012022246615 
-0.00039160081272 -0.00037876212536 0.00013320158539 -0.00012087029332 0.0010855717616 0.00040082175458 0.00017692204391 0.00084379125631 -0.00057132716708 
-0.00026465880494 0.0001804595735 -0.00066637246487 0.00035019691509 0.00021183872715 -0.00023088164995 -0.0014781545753 0.0011912766416 -0.0022457047482 
0.00085905689162 -0.00038758286534 -0.00099165096375 -0.0011450593079 -0.00043622196463 -0.00058454233408 8.0576120475e-05 -0.00035571229281 0.00026778529523 
-0.00058873718836 0.00039356989482 -2.0588690229e-06 5.393916181e-05 0.00021763753805 0.00047944051919 0.00032868666124 0.0003529785352 3.5378497255e-05 
0.00093040470964 0.0001602995958 -0.00049799176371 0.0016011653118 0.0021584601986 0.00024433253425 -0.00054961166485 0.00015585119885 -0.00058448120685 
9.2217437494e-05 0.0001337463507 0.00011612255689 -0.00036133746208 0.00025452944169 0.00034312050552 -0.00071951322108 0.00045917726014 -0.00031717902506 
0.00094188565879 0.00066849026629 0.0011169602881 -2.755125162e-05 0.00011791123682 0.00062291417649 -0.00041597885998 0.00025795632107 0.00077362206621 
-0.00037246969501 -0.0001348037959 -0.00036077003352 0.00041397059148 -0.00074781715471 -0.00010543759458 -0.00057299502468 0.0004086505003 4.5729346817e-05 
-0.00017345163092 -0.00013205327705 -0.00016220738961 0.00016357448669 -0.00011747703549 -6.5956675077e-05 -0.00069850516474 0.00092822772318 0.00016395776267 
7.6879563335e-05 1.0513499362e-05 -0.0002099519961 0.00011395730738 0.00058548802633 5.2838659284e-05 2.9351000176e-05 -0.0007281279093 0.00016585106799 
0.00055867642972 -0.00092671465855 0.00048538766866 -0.00030166751141 -0.00022825366379 0.00061069747179 0.00027223781674 -0.00026283833266 0.00075717939207 
-0.00016014557569 -0.00044741168741 -0.0011717142599 0.00036157886143 -0.00095832282372 -0.0018400164095 0.00084476619174 -0.00085379713636 -0.0015084341082 
-0.00023074181952 0.00072240956013 -0.00031354559235 -0.00025243263212 7.2165987974e-05 4.2312071168e-05 -0.00022641622563 0.0004955214454 5.7831522265e-05 
0.00035201323312 0.00045674312065 -0.00012947809662 -0.00017061142568 0.00014084605683 5.6809784328e-05 -6.3568779839e-05 -0.00069790536375 -0.00015225877016 
9.6665518035e-05 -0.00043179685851 -2.0268811801e-05 5.9820939033e-05 2.6231585266e-05 -9.2330065641e-05 0.00019223702682 1.5440908242e-05 0.00033456147722 
-0.00034557164797 -9.0131863133e-06 4.8780526094e-05 -0.00063763825971 -0.00037281287543 0.0010574298144 0.00018635939624 -0.00026862811206 2.7254770203e-06 
-0.00028887365717 -0.00042221556314 2.966852188e-05 -0.000101476306 -0.00010244308417 -8.0294589807e-05 9.1553947283e-06 -0.00060408352398 -6.6677942942e-05 
-0.00011696827024 -2.0559512119e-05 -2.5456176067e-05 -0.00010956134557 -5.4652306291e-05 7.7677309554e-05 -8.9865195464e-05 0.00025013346716 -0.00012928052123 
0.0001814470975 4.6743941099e-05 -1.7906733419e-05 0.00036070765006 -6.3005965798e-05 -2.1801740262e-05 0.00011073624935 4.4425907635e-05 1.4490468196e-05 
-6.3493362683e-05 0.00022332093889 -0.00010097017799 2.9295529335e-05 -0.00069591987893 0.00019097437381 -2.7309493016e-05 0.00017601336001 6.6812644317e-05 
0.00011324800316 2.666874771e-05 1.117975187e-05 
