# vtk DataFile Version 4.2
Generated by LIGGGHTS
ASCII
DATASET POLYDATA
POINTS 70 float
-0.000325239 -0.0261434 0.0352279 -0.0149832 0.0210799 0.0479632 0.0191306 -0.0193362 0.0600075 
0.000336903 0.00592149 0.0588072 -0.00782657 -0.00741408 0.0627211 -0.0336155 0.00525219 0.069375 
0.0363398 0.0111615 0.0650465 0.0112574 0.0171885 0.0652814 -0.0087745 0.0280523 0.070081 
-0.0109787 -0.0235554 0.0715503 0.0225994 -0.0115983 0.0747615 -0.00835716 0.0273492 0.0820522 
-0.00691218 -0.0183295 0.0871472 0.00155133 -0.00149741 0.082627 -0.023441 0.00765289 0.104139 
-0.0013197 0.00827607 0.0974302 0.0140649 0.018808 0.102101 -0.0279034 -0.0137172 0.104714 
-0.00278737 -0.0181624 0.120627 0.0229092 -0.0124254 0.124624 0.0380003 -0.0153173 0.125006 
-0.0131374 -0.00108703 0.119279 0.0272687 0.0180533 0.123831 -0.0138654 0.0285688 0.1171 
-0.0130023 -0.0380835 0.136342 0.00643656 -0.0312524 0.136671 0.0125366 -0.0103299 0.135557 
0.0314931 -0.0017673 0.135776 -0.0181999 -0.0283872 0.143802 -0.00866907 -0.0238964 0.13806 
0.0131371 -0.0339237 0.146259 0.0149352 0.00686162 0.145702 0.0257956 0.00759856 0.140657 
-0.00776398 0.0249631 0.138661 -0.027094 -0.0263823 0.153246 0.00201311 -0.0321541 0.158114 
-0.00353122 -0.0191512 0.157666 0.0175449 -0.00848716 0.157562 -0.0329996 0.00882671 0.153443 
-0.0151206 0.00331431 0.149071 0.0322416 0.00279728 0.150679 -0.0193759 0.0210962 0.14994 
0.00820402 0.0282124 0.159188 -0.000538883 0.0363134 0.157811 0.00969453 0.039844 0.150697 
-0.00886042 -0.0343435 0.16341 0.0104172 -0.0267315 0.164742 -0.0342152 -0.00501539 0.16362 
-0.000137059 -0.00141221 0.164741 0.0288715 -0.0109924 0.167247 -0.0353291 0.00684718 0.165044 
-0.0162838 0.00196268 0.16469 0.0195281 0.00240505 0.164309 0.000815919 0.0153321 0.170021 
0.01506 0.0166938 0.168369 -0.013812 0.0240943 0.160138 -0.00834191 -0.0285983 0.181 
-0.000516117 -0.0190545 0.181113 0.0110638 -0.0191157 0.177529 -0.0344979 -0.00700301 0.177638 
-0.0132936 -0.0112 0.175587 0.0163968 -0.00185082 0.175083 0.02814 -0.000499117 0.173018 
-0.0295487 0.00390004 0.178963 -0.000902599 0.00662035 0.181454 -0.00341136 0.020928 0.179758 
0.0243139 0.0144186 0.177785 0.00839905 0.0303749 0.176351 0.0322981 0.000532048 0.184226 
0.00684985 0.0156418 0.183035 
VERTICES 70 140
1 0 
1 1 
1 2 
1 3 
1 4 
1 5 
1 6 
1 7 
1 8 
1 9 
1 10 
1 11 
1 12 
1 13 
1 14 
1 15 
1 16 
1 17 
1 18 
1 19 
1 20 
1 21 
1 22 
1 23 
1 24 
1 25 
1 26 
1 27 
1 28 
1 29 
1 30 
1 31 
1 32 
1 33 
1 34 
1 35 
1 36 
1 37 
1 38 
1 39 
1 40 
1 41 
1 42 
1 43 
1 44 
1 45 
1 46 
1 47 
1 48 
1 49 
1 50 
1 51 
1 52 
1 53 
1 54 
1 55 
1 56 
1 57 
1 58 
1 59 
1 60 
1 61 
1 62 
1 63 
1 64 
1 65 
1 66 
1 67 
1 68 
1 69 

POINT_DATA 70
FIELD FieldData 7
id 1 70 int
44 208 510 598 557 411 372 458 587 
506 366 612 723 485 1047 875 972 835 
1168 1262 1563 1140 1063 894 1642 1274 1445 
1242 1483 1602 1884 1645 1687 1328 1519 2214 
2099 2118 2005 1335 1808 1875 1873 1747 1781 
1900 1990 2253 2175 2254 2200 2171 2147 2152 
2278 1946 2455 2457 2463 2412 2322 2430 2345 
2364 2460 2424 2304 2379 2461 2474 
type 1 70 int
2 2 2 2 2 2 2 2 2 
2 2 2 2 2 2 2 2 2 
2 2 2 2 2 2 2 2 2 
2 2 2 2 2 2 2 2 2 
2 2 2 2 2 2 2 2 2 
2 2 2 2 2 2 2 2 2 
2 2 2 2 2 2 2 2 2 
2 2 2 2 2 2 2 
i 3 70 int
0 0 0 0 0 0 0 0 0 
0 0 0 0 0 0 0 0 0 
0 0 0 0 0 0 0 0 0 
0 0 0 0 0 0 0 0 0 
0 0 0 0 0 0 0 0 0 
0 0 0 0 0 0 0 0 0 
0 0 0 0 0 0 0 0 0 
0 0 0 0 0 0 0 0 0 
0 0 0 0 0 0 0 0 0 
0 0 0 0 0 0 0 0 0 
0 0 0 0 0 0 0 0 0 
0 0 0 0 0 0 0 0 0 
0 0 0 0 0 0 0 0 0 
0 0 0 0 0 0 0 0 0 
0 0 0 0 0 0 0 0 0 
0 0 0 0 0 0 0 0 0 
0 0 0 0 0 0 0 0 0 
0 0 0 0 0 0 0 0 0 
0 0 0 0 0 0 0 0 0 
0 0 0 0 0 0 0 0 0 
0 0 0 0 0 0 0 0 0 
0 0 0 0 0 0 0 0 0 
0 0 0 0 0 0 0 0 0 
0 0 0 
v 3 70 double
1.0606812841e-06 -5.7256028423e-07 -8.0360959288e-06 2.5250263219e-06 -2.6263453038e-06 4.7403202811e-06 1.5175030524e-06 -4.8322588636e-07 4.5734063623e-06 
1.6137314506e-06 -7.9023080912e-07 -1.172894119e-07 8.7633337702e-07 -4.2551061086e-06 3.6079987858e-07 -1.3439309696e-06 1.457243935e-06 -2.1166940579e-06 
2.6963031863e-06 7.8976913353e-07 -2.7852175342e-06 3.5502637315e-06 -6.6286464938e-07 -7.3782276934e-07 2.4074783586e-06 3.0128049703e-06 1.2487359986e-06 
-5.5924709445e-08 4.0777792105e-06 -2.3919228178e-06 3.4896223816e-07 -3.0314475705e-06 -1.8228449139e-06 7.6630156751e-07 1.020520661e-07 -1.1839238071e-06 
2.5415020407e-06 -1.7870885735e-06 2.295009143e-06 1.9487447698e-06 -1.4504727426e-06 -7.9711831273e-07 1.5592526229e-06 -2.786107576e-06 2.1677148338e-06 
1.7879165177e-06 -1.6737500223e-06 -1.9341712008e-06 -1.4807752063e-06 -1.8552299764e-06 -4.415459905e-07 -4.6727750008e-06 2.4471739987e-06 4.5624803591e-06 
-4.9680193857e-07 6.6504965439e-07 1.0990013603e-06 -1.5166648603e-06 3.3254099872e-08 6.9113765608e-07 -9.7554335552e-07 1.5836327759e-06 -6.390910577e-07 
6.1539783415e-08 6.5291069818e-07 4.4153864538e-07 3.583955005e-06 3.5630788731e-06 -1.3934942273e-06 1.7062593746e-06 1.0866938866e-06 2.2109496456e-06 
-1.6042166838e-06 -1.4416619556e-06 -9.6034198537e-08 -2.0574458531e-06 3.023055486e-06 -3.0783568069e-06 -9.5197689438e-08 3.4415536564e-07 2.9492826409e-06 
2.5019965476e-06 -1.103917477e-06 1.1004875765e-09 -1.8437585477e-07 -2.9076324818e-07 2.8524981727e-06 -1.5951700592e-06 8.0155811452e-08 5.1802642253e-07 
6.1975375225e-09 -8.3181451298e-07 2.8928397161e-06 -1.2555639129e-06 -4.4725238202e-06 -4.238138895e-06 3.3406008959e-06 1.2367761865e-06 6.145323586e-07 
-6.2800033673e-07 1.1962354123e-06 1.4067586943e-07 1.7426777174e-06 6.3090831726e-07 9.6280577687e-07 1.1392614868e-06 -4.5324079057e-07 -9.8263583206e-07 
-1.5896423261e-07 -1.0826202264e-06 -6.1229601075e-07 4.2803956568e-10 -5.9896436442e-07 6.4318439669e-07 -1.9639618328e-06 5.7743282611e-06 1.8752617461e-06 
-1.1335403029e-06 6.3862044748e-07 -1.5448502373e-06 -8.3493759082e-07 -6.6352390123e-07 -6.9728130643e-07 1.0482772901e-06 1.9405444668e-06 -1.589756951e-06 
9.3763100027e-07 6.9627314854e-07 -6.3358602097e-07 -6.7328242372e-07 -2.9359872817e-06 4.9113804459e-06 1.5380372037e-06 -4.7779734941e-08 2.1667099909e-07 
9.301882944e-07 9.5785694606e-07 4.5621657568e-07 -9.7602321862e-07 2.3300965703e-07 5.1129438569e-07 8.9596297258e-07 -7.9212277312e-07 1.3527914812e-06 
-2.6695546224e-06 -1.4622528737e-06 -5.5537923605e-08 2.7459587145e-07 -1.3982058018e-06 1.0728759048e-07 -2.7799685733e-07 3.0214800075e-07 -2.0160569826e-07 
2.6821590312e-07 4.0335148354e-07 -1.6710940791e-06 -5.5977051793e-07 -1.7721333607e-07 -2.8748521756e-07 1.9430914071e-06 -1.151279259e-06 -3.744479197e-08 
9.1951839083e-07 4.0933956422e-07 -1.7216822214e-06 6.7672634767e-07 8.6632316159e-07 3.256437243e-07 -1.0683755882e-06 3.962192543e-07 1.8460126982e-07 
-1.6909837399e-06 -2.7333992999e-07 4.9599775e-07 -9.5021718839e-07 -8.2585318433e-07 2.4985312301e-07 3.3036809256e-07 -6.6644104794e-08 7.3723185858e-07 
-4.3328228721e-08 1.7559609969e-07 -6.045227361e-07 5.3092075215e-07 1.884117646e-07 -1.1117432221e-06 -2.0816551855e-08 -4.755054955e-07 4.2721082522e-07 
8.7331726731e-07 1.17068155e-06 -5.2172104927e-07 4.4298784054e-07 1.9644164527e-06 6.5123556984e-07 3.896017585e-07 -6.3513641285e-07 -2.8903897738e-08 
7.9427052305e-07 -2.0919518172e-08 5.0265121153e-07 -7.4312575357e-07 -9.877734649e-07 4.7550595701e-07 -4.3167134211e-07 -1.9711749145e-06 3.6065878247e-07 
1.6548869745e-07 -1.1159632487e-08 2.2926048552e-07 
f 3 70 double
0.0001503341518 0.00064911577172 -0.0010019454078 4.8896286658e-05 0.00017882958167 -0.00064150205063 0.0025069865149 -0.0006935024793 0.00145635579 
0.00018528315076 0.00038599640875 -0.00049089370889 0.00036242470347 -0.0001749166113 -0.00019489365819 0.00046475513216 0.00015636856239 0.00067126929642 
-0.00072200445027 2.6930197399e-05 9.4167991277e-05 -0.00010903800602 0.00015765204071 0.00074681191201 -0.00015700796977 0.00078503553371 -0.0005107281144 
-0.00042248546933 8.7176038394e-05 -0.00020107160142 -7.015430156e-05 0.00025082761676 -0.00034644342033 0.00022197983011 -1.2462582785e-05 -0.00028307413016 
-0.00049458958438 -1.244100772e-05 -0.0003486050693 -0.00021598981647 -0.00023489293475 0.00027168283411 -0.00032982637336 -0.0010903256392 0.00035318563228 
0.00017759816866 0.00015166093669 2.0161376811e-05 0.00011622876897 -0.00020208162936 0.00024756307672 -7.7000190078e-05 -0.00024462769793 0.00016036090756 
-0.0001839570617 0.00011040767727 0.00028652743138 0.00040497400933 -0.00033170573873 -0.00022836274494 0.00025688634999 0.0002628333354 -0.00021363507367 
0.00024431209285 -0.00017912759925 -7.1552950169e-05 0.00011100843703 -7.8809179733e-05 -0.00017176426052 -0.00012022023353 1.3672356544e-05 -0.00011054680874 
-8.0056557331e-05 -0.00023222046616 -7.4041128782e-05 1.3944382173e-05 0.0002594380591 -0.00023017998789 -0.00028964777091 -0.00020967861262 5.6366268645e-05 
-0.00028785844175 0.00016075458691 0.00010430742937 0.00037107946271 0.00019458551777 -0.00043634370338 -0.00010603655139 -0.00010004658062 8.5163039935e-05 
-4.595260312e-05 0.00021883272943 -4.4079943901e-05 7.9952419395e-05 0.00056073913957 -0.00014927421899 -3.6043804627e-05 -6.2598455196e-05 0.00043871559338 
0.00034017955739 -0.00011185531345 -0.00018311168464 4.4114139362e-05 2.4379983575e-05 -1.5426754253e-05 -6.9176677932e-05 -0.00020733400346 0.00020806525236 
-9.3326033242e-06 0.00010510532862 -9.7409814953e-05 -8.0116483385e-05 -0.00010840409169 3.2699477963e-05 -0.00012365721273 0.00042192494951 -0.00010576409317 
-2.7847078258e-06 -0.00010370025656 0.00010529592041 -3.5157560556e-06 8.8559863785e-05 -0.00012717415338 8.9542817591e-06 2.5294163736e-05 1.277216454e-05 
-9.7368092013e-05 8.6767738004e-05 -2.4921400845e-05 9.0766679257e-05 -4.2699052766e-05 0.00011047948902 0.00010763472183 0.00015555659703 9.0356090368e-05 
-0.00029632911521 -0.00014148059363 -0.00019823352707 4.5638449851e-05 -4.054956669e-05 -5.9344133819e-05 -9.5701828484e-05 2.3296416644e-05 0.00013472039959 
0.00010799019283 -0.00015422783237 0.00027501605158 -5.8877639206e-05 0.0001262114479 -9.8198503111e-05 -6.3816342688e-05 3.1812907855e-05 9.2976342185e-05 
-5.1486606431e-05 4.7623147873e-05 -0.00012808531257 2.3290080717e-07 -0.00013824450073 -1.0601075977e-05 5.6862307531e-05 0.00010441058113 -0.00015883554517 
6.5584331682e-05 4.2857890343e-05 -0.00038730877191 -5.3436818572e-05 -0.00017789922157 4.7632683122e-05 -4.7757477461e-06 2.3082424189e-05 -2.4002850549e-05 
8.1336085912e-06 1.3850493663e-05 1.9863781709e-05 2.5433138934e-05 -7.6639050499e-05 -8.3038026811e-05 4.9266059932e-05 4.7943662418e-05 1.1373448413e-06 
-4.6250663759e-05 1.9661594108e-05 7.4976133815e-05 -3.3429552653e-05 -4.4100793613e-05 5.6030799548e-05 -1.3103763165e-06 9.7772841517e-05 -4.4666899315e-05 
5.5442756849e-05 5.4574522757e-05 -0.00010354930146 2.2869918184e-05 0.00014958537835 -4.0566762604e-05 6.0075160325e-05 -5.210500893e-05 -1.4573200428e-05 
-9.6770044193e-05 4.6022985277e-05 -2.0726722778e-05 0.00013787682399 -9.5452310198e-05 0.00010413496966 8.1114319536e-06 1.0563691852e-05 1.5303123846e-05 
3.9083971736e-05 3.9218906157e-05 1.3675896439e-05 
radius 1 70 double
0.006 0.006 0.006 0.006 0.006 0.006 0.006 0.006 0.006 
0.006 0.006 0.006 0.006 0.006 0.006 0.006 0.006 0.006 
0.006 0.006 0.006 0.006 0.006 0.006 0.006 0.006 0.006 
0.006 0.006 0.006 0.006 0.006 0.006 0.006 0.006 0.006 
0.006 0.006 0.006 0.006 0.006 0.006 0.006 0.006 0.006 
0.006 0.006 0.006 0.006 0.006 0.006 0.006 0.006 0.006 
0.006 0.006 0.006 0.006 0.006 0.006 0.006 0.006 0.006 
0.006 0.006 0.006 0.006 0.006 0.006 0.006 
omega 3 70 double
-5.0824749086e-05 -1.6979424275e-05 0.00058923065194 0.00092878559436 -0.00056009015686 0.00086976954249 0.00059732463773 5.5252667931e-05 0.0021781877089 
-0.0001866732768 0.00045199610816 0.0013757561121 -0.0004563797777 0.00072793122364 0.0007700382506 0.0005266379285 0.00028426629092 -0.00019558901609 
0.00013328775789 -0.00034614624906 0.00022595499764 -4.5193536258e-05 -0.00027604033704 0.00075564590879 0.00023503494941 0.0023019773673 -8.0546166326e-05 
-0.00074864504996 -0.00026827326727 0.0015846506381 0.00030145367294 0.00016744891931 -0.00021305456252 0.00058905123721 0.00062986382968 -0.00027807796075 
6.64452976e-05 1.0905735829e-05 0.0005539360395 -0.00012424155793 0.00049037224593 0.0001492896262 8.5797411323e-05 -0.00022906619682 0.00016456233203 
-0.00053335241433 0.00024656765713 -0.00079849842289 0.00013840744353 0.00015499976979 -0.00066600499831 0.0012555212456 -0.00085187636293 -0.00056968122941 
-0.00082282102718 -0.0006505999531 -0.00018090300636 0.00044437324699 6.1010456609e-05 -0.00033152566663 -0.00057539942431 0.00023490469306 -0.00010824997979 
-1.3120492862e-05 -0.00059402178118 0.0002133071454 -0.00068540507173 -0.00030451973495 -0.0012413876133 -0.00022974961388 0.00016500337236 0.00039560463379 
0.00031699947519 -0.00087076489593 -0.0004581917195 0.00052360939416 6.0847065461e-05 0.00038932301397 1.980312151e-05 -7.2893245167e-05 0.00043001211384 
-0.00010589873728 -0.00042819551959 -0.0015777689461 0.00072106140997 0.00030155215719 -0.00103921137 0.00011628708598 -0.00039948268394 -0.00054744911242 
0.00034781921329 -2.5163033508e-05 3.7886167127e-05 -0.00019792814413 0.00058645438824 0.0002083965368 -0.00021248043238 0.00027591851998 0.00019230238024 
-0.00052142289577 -0.00031309195287 0.0003867595084 -0.00017093283288 -0.00020980379465 2.3102213562e-05 0.0006759507509 -0.0007959764722 -0.00052997447076 
0.00053052648889 -6.3617264548e-05 0.00032965800581 -0.0002507173502 -0.00051527907138 -0.00020078801976 0.0019186658457 -0.00071055840855 -0.00057423358567 
-0.00021842760456 -0.00061211826231 0.0004137542868 -0.0010474362551 0.00031432321694 -0.00062760312671 0.00037864343587 -5.2521343333e-05 -0.00050006075583 
-0.00015508200668 -0.0010195420816 -0.00080662248703 -0.00028024196857 -0.0008176844072 -0.0021472493847 0.0010925238603 -0.001349810628 -0.00049303976117 
-0.00010463096487 -0.00075738885357 0.00010447174128 4.7000869217e-05 0.00016029462922 -0.00016135115409 0.00090665837542 -0.0010950699378 -0.00039939681864 
0.00048257319139 -0.0001402018115 -0.00010439143676 -6.0265644767e-05 4.2566861348e-05 -0.00014979610711 -0.00022780747258 -0.0006814864106 -0.00019362907977 
-0.00010398720083 -0.00033698610959 0.00018932149767 -0.00024205284473 -0.00019059254872 -0.00015642537741 0.00056158512403 -0.00031429637561 -0.00013341698994 
7.6366830536e-05 -0.00011626725283 -0.00047949665747 -9.4859902882e-06 8.7688084703e-05 -4.8243835199e-06 9.2571359731e-05 9.9425002529e-05 -0.00010913953003 
3.4536872259e-05 8.4301404655e-05 3.5086347506e-05 7.7529513219e-05 8.5937259339e-05 4.0568733605e-06 0.00019360830671 0.00034401538064 -5.6918147356e-05 
9.6685120062e-07 -0.00015036724636 7.1121887399e-06 3.7887631595e-05 -0.00013537919419 0.00011904114754 -0.00010595942333 1.8412278769e-07 0.00013895499624 
5.1835625154e-05 -0.00040073864525 3.3094751523e-05 6.7991490998e-05 -8.8967625155e-05 0.00025878135344 0.000199666477 -2.6993921762e-05 0.00017467977047 
0.00020565925702 -5.0641023809e-06 0.0001870391471 -0.00014472092984 -0.00021988359141 0.00029352963947 -0.00012807723841 9.8859873067e-05 2.1013839891e-05 
0.00035816758928 2.1644673636e-05 0.00014938063388 
