# vtk DataFile Version 4.2
Generated by LIGGGHTS
ASCII
DATASET POLYDATA
POINTS 70 float
-0.000327193 -0.0261433 0.0352287 -0.0149815 0.0210811 0.0479644 0.0191288 -0.0193375 0.0600093 
0.00033767 0.00592128 0.0588088 -0.00782747 -0.0074133 0.0627226 -0.0336148 0.00525483 0.0693763 
0.0363406 0.0111584 0.0650487 0.011259 0.0171875 0.0652834 -0.00877173 0.0280531 0.0700833 
-0.0109805 -0.0235543 0.0715524 0.0225986 -0.0116 0.0747637 -0.0083548 0.0273493 0.0820543 
-0.00691278 -0.0183285 0.08715 0.00155135 -0.0014991 0.0826301 -0.0234405 0.00765528 0.104141 
-0.00131851 0.00827589 0.0974329 0.0140672 0.0188066 0.102105 -0.0279048 -0.0137148 0.104717 
-0.00278923 -0.0181615 0.12063 0.0229098 -0.0124337 0.124627 0.037998 -0.0153232 0.125012 
-0.0131377 -0.00108494 0.119281 0.0272703 0.0180482 0.123838 -0.0138623 0.0285701 0.117102 
-0.0130052 -0.0380829 0.136346 0.00643031 -0.031255 0.136675 0.0125355 -0.0103322 0.135562 
0.0314914 -0.00177182 0.13578 -0.0181995 -0.0283853 0.143807 -0.00866955 -0.0238966 0.138062 
0.0131289 -0.0339368 0.146261 0.0149307 0.0068573 0.145717 0.0257881 0.00758827 0.140662 
-0.00776447 0.0249599 0.138664 -0.0270935 -0.0263768 0.153252 0.00194866 -0.0321756 0.158195 
-0.00350881 -0.019215 0.157747 0.0175349 -0.00852189 0.157574 -0.0330017 0.00881999 0.153455 
-0.015107 0.00331429 0.149082 0.0322266 0.0027978 0.150678 -0.0193767 0.0210958 0.14994 
0.00818346 0.0281963 0.159202 -0.000556483 0.0362979 0.157813 0.0096927 0.0398449 0.150709 
-0.00852908 -0.0345684 0.163643 0.0103274 -0.0266918 0.164805 -0.03422 -0.00500882 0.16363 
-0.000115108 -0.00153134 0.164809 0.0288322 -0.0110966 0.167368 -0.0353365 0.00685208 0.165058 
-0.0162708 0.00203393 0.164727 0.0195353 0.00252503 0.16432 0.000773444 0.015296 0.170064 
0.0151211 0.0170135 0.16838 -0.0138286 0.0240591 0.160157 0.0127118 -0.0181107 0.179489 
-0.0298947 -0.00786877 0.180872 -0.0132011 -0.0114999 0.175545 0.0168704 -0.00203232 0.175405 
0.0287565 -0.000504114 0.173001 -0.0271104 0.00775428 0.180541 0.000147528 0.00773656 0.18127 
-0.00472279 0.0210591 0.180629 0.0250307 0.0139789 0.177844 0.00815787 0.0300766 0.17705 
-0.0104572 -0.0388179 0.186791 -0.000311874 -0.0173962 0.182263 0.0260139 0.00110976 0.191447 
0.011351 0.0149541 0.187333 
VERTICES 70 140
1 0 
1 1 
1 2 
1 3 
1 4 
1 5 
1 6 
1 7 
1 8 
1 9 
1 10 
1 11 
1 12 
1 13 
1 14 
1 15 
1 16 
1 17 
1 18 
1 19 
1 20 
1 21 
1 22 
1 23 
1 24 
1 25 
1 26 
1 27 
1 28 
1 29 
1 30 
1 31 
1 32 
1 33 
1 34 
1 35 
1 36 
1 37 
1 38 
1 39 
1 40 
1 41 
1 42 
1 43 
1 44 
1 45 
1 46 
1 47 
1 48 
1 49 
1 50 
1 51 
1 52 
1 53 
1 54 
1 55 
1 56 
1 57 
1 58 
1 59 
1 60 
1 61 
1 62 
1 63 
1 64 
1 65 
1 66 
1 67 
1 68 
1 69 

POINT_DATA 70
FIELD FieldData 7
id 1 70 int
44 208 510 598 557 411 372 458 587 
506 366 612 723 485 1047 875 972 835 
1168 1262 1563 1140 1063 894 1642 1274 1445 
1242 1483 1602 1884 1645 1687 1328 1519 2214 
2099 2118 2005 1335 1808 1875 1873 1747 1781 
1900 1990 2253 2175 2254 2200 2171 2147 2152 
2278 1946 2463 2412 2322 2430 2345 2364 2460 
2424 2304 2379 2455 2457 2461 2474 
type 1 70 int
2 2 2 2 2 2 2 2 2 
2 2 2 2 2 2 2 2 2 
2 2 2 2 2 2 2 2 2 
2 2 2 2 2 2 2 2 2 
2 2 2 2 2 2 2 2 2 
2 2 2 2 2 2 2 2 2 
2 2 2 2 2 2 2 2 2 
2 2 2 2 2 2 2 
i 3 70 int
0 0 0 0 0 0 0 0 0 
0 0 0 0 0 0 0 0 0 
0 0 0 0 0 0 0 0 0 
0 0 0 0 0 0 0 0 0 
0 0 0 0 0 0 0 0 0 
0 0 0 0 0 0 0 0 0 
0 0 0 0 0 0 0 0 0 
0 0 0 0 0 0 0 0 0 
0 0 0 0 0 0 0 0 0 
0 0 0 0 0 0 0 0 0 
0 0 0 0 0 0 0 0 0 
0 0 0 0 0 0 0 0 0 
0 0 0 0 0 0 0 0 0 
0 0 0 0 0 0 0 0 0 
0 0 0 0 0 0 0 0 0 
0 0 0 0 0 0 0 0 0 
0 0 0 0 0 0 0 0 0 
0 0 0 0 0 0 0 0 0 
0 0 0 0 0 0 0 0 0 
0 0 0 0 0 0 0 0 0 
0 0 0 0 0 0 0 0 0 
0 0 0 0 0 0 0 0 0 
0 0 0 0 0 0 0 0 0 
0 0 0 
v 3 70 double
-0.00022682759932 -0.0002895246622 -0.00084265742617 -3.6481779317e-05 -0.00045015933031 -0.0013265940498 -0.00026330977244 -0.00061266996821 -0.0017368202425 
1.7801437123e-05 -0.00040782749575 -0.0016308762397 2.8636604912e-05 -0.00057490117356 -0.0018726073156 -7.3873730685e-05 -0.00045807373798 -0.0020991379167 
0.00030825352934 -0.00091483394571 -0.0015541838807 0.00012489924791 -0.000454297298 -0.001683936531 -0.00016873139648 -0.00016769738118 -0.002062691044 
-0.00038559581787 -0.00037163501621 -0.0022432448706 -0.00026795180766 -0.00037556958313 -0.0022861914799 -0.00011343827897 -4.3635858766e-05 -0.0026299787872 
-0.00056934958255 -0.00011633557687 -0.0029644794914 -0.00032510275516 -2.9373205019e-05 -0.0024085401859 -7.0451989924e-05 -0.00052144226343 -0.0034384299828 
-6.2710904725e-05 -0.00014467605074 -0.0034136516457 -4.7475115986e-05 -9.1219752963e-05 -0.003315204003 -0.00017222072666 -0.00047514954088 -0.0035351350352 
-0.0011412710766 -5.6341440441e-05 -0.0045386085996 -2.109413975e-05 0.00024687895122 -0.0029491130224 -5.4501225021e-05 -0.00055704789193 -0.0034201799098 
-0.00095806931035 -0.00074726269801 -0.003825358842 -5.6878631726e-05 -0.00017708525687 -0.0047252983043 -0.0009838100168 0.00012355222474 -0.0036600552028 
-0.0018411228504 -0.00083221953469 -0.0031318485033 -0.00026741477771 -0.00079927480333 -0.0057751073674 -0.0021505669739 -0.00046545507336 -0.0025330371602 
0.00013109714425 -0.0015580469005 -0.004321666758 -0.00094328883122 0.00073890000681 -0.0032183109112 -0.00025514071663 -0.00065122127614 -0.0040541690778 
0.00063059387055 -0.00078473597408 -0.0043103939645 -0.00010441895523 -7.2827669562e-06 -0.0030368293871 -0.0012361001422 -0.0015441108178 -0.0032064826767 
-2.6243977378e-05 0.00026929574574 -0.0046434310601 0.00064788363025 0.00019604332141 -0.0032040206877 0.00012450514797 -0.0014749240062 -0.010719156725 
-6.0063699549e-05 -0.00062228455031 -0.0059353669605 0.00024475064248 -0.0030274260463 -0.00019422112293 -0.0016260699757 -0.00084751605347 -0.0023527631879 
-0.00038390999074 -0.00028795243863 -0.004047212024 -1.1950662814e-05 -0.00085540635129 -0.0040343895902 -0.00056893651229 0.0019864326234 -0.00036593591743 
-0.00075537114677 0.0042481953172 -0.0037155262215 -0.00032913821156 0.003157921297 -0.0030730129453 -0.0001520214827 -0.0024572956198 -0.0016921939414 
0.0065883990516 0.011283283205 -0.0067568041031 -0.0024861771502 0.0012818177735 -0.0048305080202 -0.0002273208278 -0.00073583053903 -0.005838699284 
-0.00013220974072 -0.0018367971039 0.00087695887797 0.0040789422826 -0.0041603722986 -0.0039652645929 -0.00037002258303 -0.0028492911174 -0.0050313605655 
0.0022567751896 0.0056576113427 -0.0056123643376 -0.0018216481506 0.0094239274004 -0.0071552757406 0.0036633215181 -0.0063185952179 -0.0081008595463 
-0.002896941611 -0.014996801149 -0.018654115204 0.0016879717294 -0.00097868941699 -0.0037141360267 -0.026217499504 -0.033752386633 -0.075834460659 
-0.086430407719 0.075003016991 -0.064906250516 -0.0038437143789 -0.01281498856 0.001900607746 -0.035234313672 0.071536838258 -0.059121904376 
-0.0049108027862 0.00061818486257 0.0057490950623 0.008116335885 -0.0417839129 -0.014728161194 -0.08794437213 -0.018252810159 0.0024969015691 
-0.023889264625 -0.066708777538 -0.011087620157 -0.0098328720304 -0.0058632415055 -0.00098080512082 0.016396373495 0.057872648379 -0.029965025443 
-0.14042912381 -0.43560235282 -0.23717356069 0.013449299921 -0.072339425442 -0.0719104635 0.16921501637 0.065327795049 0.039453219735 
0.046183535119 -0.10284979026 -0.032488248992 
f 3 70 double
0.0032735617212 0.0023291726143 -0.0037850598879 0.0039214917497 0.0028213431815 0.001295068317 -0.0026110015678 0.0034441027001 -0.0048450793222 
-0.0020733863598 0.0030401344005 0.0049208983183 -0.0033380398143 0.0049383759318 0.0049554552613 -0.0050099351508 -0.0029332618232 0.0028144559491 
-0.0035985085983 0.0051152246385 -0.0028444405459 -0.0027877258541 0.0027229184223 -0.0013318602978 -0.0015912783379 0.0026857876407 -0.00432705663 
-0.0079833982384 0.0080590812729 -0.0044153022575 -0.0040608599223 0.0091667605755 -0.0071086664123 0.010440737684 -0.00017942948917 -0.0054579839854 
-0.0076323229445 0.0048764818984 -0.0070902373195 -0.0060627455501 0.0067203706753 0.0045253188421 -0.0049435937423 -0.012065564604 0.0070530269027 
0.011415449307 -0.0079806472406 -0.010658957611 0.0040093512538 0.00032953444903 -0.011812832796 -0.0059260258566 0.0084873841239 0.011289436369 
0.021813560599 -0.00977913266 -0.0093611206824 0.0099653921007 -0.029724074171 -0.00061266779773 0.00017584021146 -0.024916838576 -0.00427806925 
-0.020749596208 0.019472732951 0.025706299815 0.00063092137725 0.0073280395257 -0.017596193087 -0.027155544547 -0.0040997118248 0.026712205664 
-0.0043390306512 0.014082790701 -0.0054340670968 0.047856157188 -0.038352500489 0.063832117749 0.013704154561 -0.010862952183 0.034460306942 
0.024055896111 -0.029636160319 6.103453294e-05 0.009550003075 0.028741206171 -0.035369634898 0.010395977263 -0.01003761917 0.0038849151155 
0.02275484165 -0.029274558087 -0.028245003296 0.051362857463 0.082331183617 -0.018546402123 -0.0046107548232 0.037301883763 0.017997119191 
-0.01204433241 -0.011960629926 0.0023594374975 -0.0059239029984 -0.16516283916 0.11308612043 -0.078347795459 -0.021997676278 0.020911466599 
-0.036065999361 0.045867755326 0.047636719824 -0.046587938307 0.025202785159 -0.086770550238 0.075550166066 0.07750768976 -0.058442267437 
0.0035739111613 -0.015252726289 0.06334477212 -0.022675253427 0.016544582749 0.039083613433 -0.036352346919 -0.10893352649 -0.04363311797 
0.015556140299 -0.0088589994291 0.016213113274 -0.015443984019 0.025963976325 -0.023072628569 -0.0042093037867 0.05789128931 0.040175699119 
-0.024453754214 -0.022508214459 0.039457528478 -0.022052164142 -0.0048254503847 0.033497507564 0.016783434201 0.042315405331 -0.01538416315 
0.019928915289 -0.021736039496 -0.063265081087 0.03933319289 0.015458590153 0.091879345989 0.0090103291733 0.007479384632 0.070376737351 
-0.011189671523 -0.026485761598 0.014198692631 -0.012197150564 -0.029178315521 0.10367827346 -0.049298577647 0.046882070982 -0.037787275466 
-0.1841175167 -0.0078147129266 0.33170651395 0.03485391558 -0.056872010821 -0.035531976956 0.01167736665 -0.10539353451 0.15411800497 
0.0069776398015 0.012899568043 -0.028244464859 -0.005193637145 -0.041925657778 -0.031823970088 -0.0024467473521 0.002875296629 -0.043786055833 
0.033310388774 -0.007032321102 -0.0095505254895 0.038278932116 -0.036516308457 0.036754974509 0.015005347923 0.0032173923477 -0.047593842243 
-0.00046788863467 -3.3415358421e-05 -0.058842902226 -0.0030789001628 0.0039890205469 -0.058112827089 0.058184764426 -0.088931192717 0.0074574576411 
0 0 -0.068344267471 0 0 -0.068344267471 0 0 -0.068344267471 
0 0 -0.068344267471 
radius 1 70 double
0.006 0.006 0.006 0.006 0.006 0.006 0.006 0.006 0.006 
0.006 0.006 0.006 0.006 0.006 0.006 0.006 0.006 0.006 
0.006 0.006 0.006 0.006 0.006 0.006 0.006 0.006 0.006 
0.006 0.006 0.006 0.006 0.006 0.006 0.006 0.006 0.006 
0.006 0.006 0.006 0.006 0.006 0.006 0.006 0.006 0.006 
0.006 0.006 0.006 0.006 0.006 0.006 0.006 0.006 0.006 
0.006 0.006 0.006 0.006 0.006 0.006 0.006 0.006 0.006 
0.006 0.006 0.006 0.006 0.006 0.006 0.006 
omega 3 70 double
0.011293196687 -0.019380167288 -0.015037456964 -0.00055199503693 -0.021172220156 0.023362216906 0.0048417919994 -0.01074050717 -0.020139660259 
0.017832614281 -0.011113316578 -0.0029225936727 0.0077922578036 -0.0061001547337 0.0084698353533 -0.019841580089 -0.019806610329 0.0082233779399 
0.0074848158046 -0.017668220956 -0.028584061769 -0.011679646037 -0.0019875675355 -0.01278303168 -0.026712610382 -0.014823203256 -0.0093036829069 
0.019451438543 -0.010530937311 -0.01333581224 -0.025879840708 -0.0056462495025 -0.017308769073 0.039493132573 0.0097302446425 0.012316257651 
-0.024615947563 -0.035082596137 -0.01418967035 -0.024820823349 -0.022939022298 -0.011526579212 -0.0034273323658 -0.025634113712 -0.013727594394 
-0.00079620098758 -0.017586756631 -0.017007752836 0.019064883004 -0.030616201835 -0.0080276316171 -0.013622174945 0.021168604803 -0.0028767188761 
0.036949763522 -0.026040968014 0.047163933522 0.009316104067 0.017592913137 -0.067523223098 -0.0074110238943 0.0066365477681 0.0010834657677 
0.042711282266 0.009002936317 0.021876414351 0.06087166015 0.13692158794 0.06871106804 -0.01105935543 -0.053393940386 0.018461142593 
0.14363535755 -0.12077397602 -0.16507891173 -0.0052421031026 -0.096032412601 -0.044782867786 0.059085175429 -0.35171970089 -0.13146396951 
0.0067441161255 0.061640683459 0.091275761792 -0.034514660161 0.019098927184 0.00034890270195 -0.071637761242 0.11615561505 -0.009008749981 
-0.06212562913 -0.2129751071 -0.01838732979 0.18495374162 0.049778522222 -0.012540129821 0.070618131515 -0.1428397797 0.0019795374739 
-0.22307160989 0.11728890677 -0.005392260945 -0.057435394767 -0.23153905978 0.8384199472 0.0077631990719 -0.67060991048 -0.40106520911 
-0.40601508973 -0.0071550185064 -0.2885943498 0.40316870875 0.41467565505 0.27598330198 0.25617450941 -0.16497269741 -0.2768957854 
0.093105428655 -0.078515392399 -0.089391258162 -0.22582617615 -0.036117845493 0.19676010001 0.10701964286 0.46290909992 0.13889420524 
-0.38015092751 0.22165834668 0.36784527187 0.52304807711 -0.39920268272 0.14349929076 -0.28036341841 0.8116787553 0.16876704261 
-3.9878674503 -0.71145363337 -1.8283929047 -1.7624329007 -0.91674656327 -0.71104990203 -0.081214444499 -0.49959238832 0.39532570404 
-0.037090432169 0.31817025259 -0.0093504314334 0.58284188184 -1.2339035122 -2.5492996916 -0.29712075599 0.33191744084 -0.43838312792 
-1.0033936966 0.52403033143 -0.27120943198 0.22231112831 -0.10257947962 -0.56971252164 0.01597983072 0.24278761467 -0.98618312816 
9.6234859383 -2.6809155595 1.9535291144 0.32341178781 0.23989624372 0.30562551613 -9.8726382409 15.116334646 7.1778873127 
-7.9544975831 -7.2748380112 6.2292239527 -2.8007414477 -0.43631349308 -0.79319128226 -10.137752002 -11.995084424 -6.012907243 
0.15393701164 -4.7064184508 -0.60272849812 3.274823209 -0.44915461577 -2.9787384491 4.3480105667 -3.068613666 -6.3673068676 
16.794426585 -5.3757615747 -10.568318692 2.3613341607 -1.1438975468 1.1709469792 -6.2559988535 11.781513782 0.52985713093 
30.455670758 16.782397417 -2.3221301228 21.451574541 0.91327409581 16.809558534 -32.33436921 9.6781399212 13.368435889 
10.334486544 -2.4825930563 -6.6690421862 
