# vtk DataFile Version 4.2
Generated by LIGGGHTS
ASCII
DATASET POLYDATA
POINTS 70 float
-0.000325239 -0.0261434 0.0352279 -0.0149832 0.0210799 0.0479632 0.0191306 -0.0193362 0.0600075 
0.000336903 0.00592149 0.0588072 -0.00782656 -0.00741408 0.0627211 -0.0336155 0.00525219 0.069375 
0.0363398 0.0111615 0.0650465 0.0112574 0.0171885 0.0652814 -0.0087745 0.0280523 0.070081 
-0.0109787 -0.0235554 0.0715503 0.0225994 -0.0115983 0.0747615 -0.00835716 0.0273492 0.0820522 
-0.00691218 -0.0183295 0.0871472 0.00155133 -0.00149741 0.082627 -0.023441 0.00765289 0.104139 
-0.00131969 0.00827607 0.0974302 0.0140649 0.018808 0.102101 -0.0279034 -0.0137172 0.104714 
-0.00278737 -0.0181624 0.120627 0.0229092 -0.0124254 0.124624 0.0380003 -0.0153173 0.125006 
-0.0131374 -0.00108703 0.119279 0.0272687 0.0180533 0.123831 -0.0138654 0.0285688 0.1171 
-0.0130023 -0.0380835 0.136342 0.00643656 -0.0312524 0.136671 0.0125366 -0.0103299 0.135557 
0.0314931 -0.0017673 0.135776 -0.0181999 -0.0283872 0.143802 -0.00866907 -0.0238964 0.13806 
0.0131371 -0.0339237 0.146259 0.0149352 0.00686162 0.145702 0.0257956 0.00759856 0.140657 
-0.00776397 0.0249631 0.138661 -0.027094 -0.0263823 0.153246 0.00201311 -0.0321541 0.158114 
-0.00353122 -0.0191512 0.157666 0.0175449 -0.00848717 0.157562 -0.0329996 0.00882671 0.153443 
-0.0151206 0.00331431 0.149071 0.0322416 0.00279728 0.150679 -0.0193759 0.0210962 0.14994 
0.00820403 0.0282124 0.159188 -0.000538879 0.0363134 0.157811 0.00969453 0.039844 0.150697 
-0.00886042 -0.0343435 0.16341 0.0104172 -0.0267315 0.164742 -0.0342152 -0.0050154 0.16362 
-0.000137058 -0.00141221 0.164741 0.0288715 -0.0109924 0.167247 -0.0353291 0.00684718 0.165044 
-0.0162838 0.00196267 0.16469 0.0195281 0.00240505 0.164309 0.000815921 0.0153321 0.170021 
0.01506 0.0166937 0.168369 -0.013812 0.0240943 0.160138 -0.00834191 -0.0285983 0.181 
-0.000516119 -0.0190545 0.181113 0.0110638 -0.0191157 0.177529 -0.0344979 -0.00700299 0.177638 
-0.0132936 -0.0112 0.175587 0.0163968 -0.00185082 0.175083 0.02814 -0.000499119 0.173018 
-0.0295487 0.00390005 0.178963 -0.000902601 0.00662035 0.181454 -0.00341135 0.020928 0.179758 
0.0243139 0.0144186 0.177785 0.00839907 0.0303749 0.176351 0.0322981 0.000532044 0.184226 
0.00684985 0.0156418 0.183035 
VERTICES 70 140
1 0 
1 1 
1 2 
1 3 
1 4 
1 5 
1 6 
1 7 
1 8 
1 9 
1 10 
1 11 
1 12 
1 13 
1 14 
1 15 
1 16 
1 17 
1 18 
1 19 
1 20 
1 21 
1 22 
1 23 
1 24 
1 25 
1 26 
1 27 
1 28 
1 29 
1 30 
1 31 
1 32 
1 33 
1 34 
1 35 
1 36 
1 37 
1 38 
1 39 
1 40 
1 41 
1 42 
1 43 
1 44 
1 45 
1 46 
1 47 
1 48 
1 49 
1 50 
1 51 
1 52 
1 53 
1 54 
1 55 
1 56 
1 57 
1 58 
1 59 
1 60 
1 61 
1 62 
1 63 
1 64 
1 65 
1 66 
1 67 
1 68 
1 69 

POINT_DATA 70
FIELD FieldData 7
id 1 70 int
44 208 510 598 557 411 372 458 587 
506 366 612 723 485 1047 875 972 835 
1168 1262 1563 1140 1063 894 1642 1274 1445 
1242 1483 1602 1884 1645 1687 1328 1519 2214 
2099 2118 2005 1335 1808 1875 1873 1747 1781 
1900 1990 2253 2175 2254 2200 2171 2147 2152 
2278 1946 2455 2457 2463 2412 2322 2430 2345 
2364 2460 2424 2304 2379 2461 2474 
type 1 70 int
2 2 2 2 2 2 2 2 2 
2 2 2 2 2 2 2 2 2 
2 2 2 2 2 2 2 2 2 
2 2 2 2 2 2 2 2 2 
2 2 2 2 2 2 2 2 2 
2 2 2 2 2 2 2 2 2 
2 2 2 2 2 2 2 2 2 
2 2 2 2 2 2 2 
i 3 70 int
0 0 0 0 0 0 0 0 0 
0 0 0 0 0 0 0 0 0 
0 0 0 0 0 0 0 0 0 
0 0 0 0 0 0 0 0 0 
0 0 0 0 0 0 0 0 0 
0 0 0 0 0 0 0 0 0 
0 0 0 0 0 0 0 0 0 
0 0 0 0 0 0 0 0 0 
0 0 0 0 0 0 0 0 0 
0 0 0 0 0 0 0 0 0 
0 0 0 0 0 0 0 0 0 
0 0 0 0 0 0 0 0 0 
0 0 0 0 0 0 0 0 0 
0 0 0 0 0 0 0 0 0 
0 0 0 0 0 0 0 0 0 
0 0 0 0 0 0 0 0 0 
0 0 0 0 0 0 0 0 0 
0 0 0 0 0 0 0 0 0 
0 0 0 0 0 0 0 0 0 
0 0 0 0 0 0 0 0 0 
0 0 0 0 0 0 0 0 0 
0 0 0 0 0 0 0 0 0 
0 0 0 0 0 0 0 0 0 
0 0 0 
v 3 70 double
1.4096418039e-06 -2.9068727349e-06 1.1903501141e-05 -1.1326817683e-06 3.4942060317e-06 2.1391106353e-06 -6.9656365805e-06 7.93873277e-07 -2.4264024473e-06 
-3.565669013e-06 -3.0570513514e-06 7.687661416e-07 -3.8363759822e-06 -1.7670932642e-06 -3.4733163329e-07 -2.776624582e-07 -1.6436754113e-06 -5.2027669342e-06 
5.456418395e-07 -9.0307022209e-07 -2.2919042072e-06 -3.5234283205e-07 -2.673262357e-06 -4.2148914288e-06 2.160523174e-06 4.6284574057e-06 5.5121356134e-06 
3.6197408597e-06 9.4153691094e-07 -3.0048849505e-06 1.5057432064e-06 -3.5794132189e-06 3.9132130259e-07 1.226652962e-06 1.0976944422e-06 -2.1798535304e-06 
-6.4358329333e-07 -3.3178036431e-07 1.5481244536e-07 1.1291189259e-06 -2.2432685147e-06 -1.7783938898e-06 1.9096572682e-06 -2.941901381e-06 1.6103012115e-06 
2.5661041762e-07 3.4105124511e-08 7.7445840418e-07 3.4869546832e-08 7.0309458377e-07 -3.5458076717e-06 -8.7355243957e-07 3.3503984805e-07 -2.6482642362e-07 
1.4334439163e-06 2.1433693856e-07 4.7312395688e-07 1.842487302e-06 -2.0055889105e-06 -1.1000093287e-06 7.5386322216e-07 -1.1593589468e-06 8.3775525087e-07 
1.6369292498e-07 3.1015387208e-07 -6.6084488636e-07 -2.3219507153e-06 2.414982158e-06 3.6818501076e-06 2.2042723342e-06 6.2975435914e-07 7.7275360526e-07 
1.5126582341e-06 -4.5933823134e-07 -8.8577919513e-08 -1.1391560796e-06 -3.8621908452e-07 -9.7178790151e-07 -4.5262053628e-07 -9.6711240073e-07 2.8392786674e-06 
-4.0601053443e-06 -3.9049910841e-07 5.8768891698e-07 3.8743420786e-07 7.3083766636e-07 -3.0473724288e-06 -3.4263362533e-07 -8.4787028424e-08 7.2430316557e-07 
3.2798464796e-07 1.8533240891e-07 -4.8987816207e-07 -2.4769572788e-06 5.7775559961e-08 2.0427342519e-06 2.4881742647e-06 2.5378421397e-06 -3.4186476199e-06 
-6.3270300901e-07 6.2757479476e-07 1.4062362706e-07 1.1660763545e-06 4.1578493257e-07 -2.1599098163e-07 -1.3489778324e-06 -9.969084747e-07 1.9938174688e-06 
-1.5652178761e-06 -4.2651814448e-07 -1.2073401481e-06 -6.5424534682e-07 -1.1619598325e-06 -1.7861926879e-06 -4.7361882349e-07 9.423175862e-07 7.9152459598e-07 
-9.0700641992e-07 -3.3465624455e-07 1.8277691213e-06 -9.4509967884e-07 -8.898478414e-07 -6.3932762594e-07 5.2723154011e-07 1.7749222604e-06 -4.7075266684e-07 
1.6402195803e-06 3.2363154058e-06 -2.3596774578e-06 1.5698843037e-06 -4.9060979145e-06 5.4203826983e-06 2.5044049587e-08 1.9642006571e-06 4.3587718288e-07 
-2.2660278758e-06 1.7568291608e-09 -1.956434506e-07 -3.5657885027e-07 -1.0848556707e-06 -6.2531309272e-07 3.1326151317e-07 -4.9193479836e-07 -5.2900565027e-08 
-1.4079293781e-06 8.1890539573e-07 -1.2248539698e-06 -1.0178717321e-06 -1.2059476993e-06 6.9200156314e-07 -1.3793111839e-06 2.5413409471e-06 6.1725457764e-07 
-1.388277594e-07 1.3238030691e-07 -9.3791335903e-07 6.3012310499e-07 -2.8331509683e-06 7.5764182582e-07 -1.1082303412e-06 -8.0248661808e-07 -4.2060153018e-07 
-1.1136468027e-06 -8.8688188126e-08 -2.0615821979e-06 -1.3198908906e-07 -4.9628438027e-07 3.9676152954e-07 -7.761099079e-07 -2.9633655364e-07 1.5276329357e-06 
-4.6942533929e-07 5.495621772e-07 3.7805531555e-07 -8.7454319627e-08 4.4131149332e-07 8.1880252661e-07 -4.0753761062e-07 1.7585307975e-07 -1.2500980537e-07 
-1.7507780584e-07 4.2703497663e-08 1.2575674181e-06 9.5880068811e-07 -1.2092258891e-06 -9.7515509751e-08 -1.9962675983e-06 -3.6249752941e-08 4.4776109639e-08 
1.391746352e-06 1.5985370479e-06 -8.0336281475e-07 -3.598325961e-07 1.5232203477e-06 1.4057045697e-06 6.3657986407e-07 7.3891617804e-07 -3.5540835656e-08 
-1.2535579005e-07 -6.3686591357e-07 2.8024844547e-07 -2.5877102709e-07 -5.985408595e-07 3.9926853389e-07 -5.3350003795e-07 -6.7619789967e-07 -1.0167891142e-06 
-1.9074391987e-07 -8.132599829e-08 -3.1096810851e-07 
f 3 70 double
-0.00021436445119 -0.00017354511905 -0.00089416052726 0.00062715123875 0.00020445965979 3.7221051045e-05 0.0016223735779 -0.00085603697766 0.0018079783796 
8.6716234625e-05 0.00058368158092 0.00024396718566 0.00044157541851 2.3223043019e-05 -0.0002872105181 0.00027649758622 -0.00060965935587 -0.00038539178689 
-0.00074823151907 -0.00015635326317 -3.3051306705e-05 0.00040775272266 0.00029984130015 0.00061741880295 -0.00079059029447 -0.00043776109938 0.00044310653692 
-0.00076710043593 -0.00049013744979 -0.00022774770601 -5.2747688984e-05 0.00030969835037 -0.00019601225293 -1.9765710285e-05 2.3283379306e-05 -3.1128676679e-05 
-0.00034076358366 0.00018620300175 -0.0002508903042 -0.00019534663967 7.2650208035e-05 2.0147052319e-05 0.0002282149299 -0.00014251183197 1.6617428302e-05 
-0.00035557873693 0.00046004375721 -0.0002324706505 -5.7669539233e-06 0.00013865789894 0.00020767544966 -0.00011179732973 -0.00023826651731 3.9713564166e-06 
-0.00016423433828 9.5254656367e-05 0.00020134007355 0.00028175583887 0.00014058400576 -3.8691430185e-05 -0.00024155598427 0.0001506156206 -4.8197461808e-05 
-0.00020780889985 0.0002996879311 0.00020751550136 8.1989607088e-05 6.4548825799e-05 0.00012935643408 -3.3215124259e-05 0.00017150917518 -0.00012587413853 
9.6367813377e-05 0.00043724864529 0.00015193324976 0.00025116014864 -0.00040014361938 0.00037947971368 0.00027641597065 0.00054972102641 9.0744140364e-05 
0.00026644999148 2.3784371061e-05 -5.7036585663e-05 7.9823009104e-05 0.00016116821053 4.1793470695e-05 -3.7135125302e-05 0.00015549576356 -3.3652823935e-05 
-6.5271997345e-05 -6.4033542092e-05 -0.00013326504818 -0.00024382196573 0.00050236631534 -0.00045511971774 6.8317035948e-05 0.00028992325438 -4.054787528e-05 
-0.0001679845977 1.1904865409e-05 -0.00020409078292 -0.00019991387861 1.9712195547e-05 -0.0001041983115 0.00018534132095 1.4496071068e-06 -0.00018777432394 
0.00013630660997 -0.00015936385348 -3.2995446804e-05 -2.4919823857e-05 0.00025370351169 4.1349526262e-05 -0.00025195298349 0.00022421137418 -7.7958611282e-05 
0.00015206796627 -8.0663871104e-05 0.00012208433607 -0.00013583591259 6.5102277309e-05 -3.2305857766e-05 -8.2991609747e-05 5.7455271112e-05 -6.8845399294e-05 
-0.00010751129045 -4.7510088598e-05 -0.00022023849548 -4.4397573338e-05 -0.00016566916624 6.199955782e-05 0.00019537474102 0.00024780227811 3.7367263217e-06 
0.00017818291071 5.2704870166e-05 0.00015498013179 -6.8286614128e-05 -1.4145771389e-05 -1.895494736e-05 0.00013107238186 6.697061563e-05 9.6217570213e-05 
-0.00039462110555 0.00030801115432 -0.00028373687856 -8.6671985981e-05 -1.1496290654e-05 -0.0001088498218 0.0001939948786 4.5130039798e-05 -7.1073252007e-06 
-9.7846198039e-05 -4.7104118563e-05 0.00021556316532 7.3227986457e-05 -4.4922830301e-05 -0.00011720267109 0.00012993340206 2.6227117439e-05 0.00048571338003 
0.00011813660508 0.000136512453 -0.00020605251103 -4.2675979572e-05 -0.00018118772057 -0.00016303866023 -1.5023001163e-06 -1.4892777443e-05 2.611176397e-05 
-2.4976708295e-05 -3.5659929761e-06 -4.3669382561e-05 2.7277193809e-05 3.6936485378e-05 1.1004883118e-05 -8.6886170128e-05 -1.7624219299e-05 1.2352578209e-05 
-2.3321564838e-05 6.1358157943e-05 -1.2816678393e-05 3.3508113375e-05 4.696308809e-05 -8.8133212114e-05 -2.61203772e-05 -3.7688284664e-05 4.6165113585e-05 
-6.4996492151e-05 -8.3656233822e-05 -4.5193550253e-06 -6.9801785432e-05 -0.00037712010772 4.9574945021e-05 2.3691612581e-05 -1.5850588438e-05 3.3215712743e-05 
-5.7943448161e-05 -1.5128431756e-05 -8.8354064553e-05 -5.1987184394e-05 5.1166961037e-05 -9.8305468054e-05 1.3368589246e-05 2.682580896e-05 5.5744140949e-05 
6.4224427528e-05 -5.9906142019e-05 6.9766002724e-05 
radius 1 70 double
0.006 0.006 0.006 0.006 0.006 0.006 0.006 0.006 0.006 
0.006 0.006 0.006 0.006 0.006 0.006 0.006 0.006 0.006 
0.006 0.006 0.006 0.006 0.006 0.006 0.006 0.006 0.006 
0.006 0.006 0.006 0.006 0.006 0.006 0.006 0.006 0.006 
0.006 0.006 0.006 0.006 0.006 0.006 0.006 0.006 0.006 
0.006 0.006 0.006 0.006 0.006 0.006 0.006 0.006 0.006 
0.006 0.006 0.006 0.006 0.006 0.006 0.006 0.006 0.006 
0.006 0.006 0.006 0.006 0.006 0.006 0.006 
omega 3 70 double
-0.00028516308858 -0.00024084510795 0.00043452846429 0.0015648771419 -0.00049078403346 0.001346310472 7.1793616666e-06 0.0026197245738 -0.00075061281077 
-0.0026964401377 -0.0016060080564 -8.0824565483e-05 -0.00075888465635 -0.00069286922688 -0.00049807254543 0.00067060407055 -0.00080792748103 -3.2374451516e-06 
0.00041472449177 -0.00027500785501 -0.00039639879529 -0.00068955249646 -0.00016201150912 0.00013252192705 0.00087379915855 0.0020749267242 0.00012216600198 
-0.00038246779627 -0.0029097689153 -0.0011184872673 0.00073473753795 -0.00024767133017 -0.0013495644608 0.00080164021068 0.00042775738458 -0.00023932338309 
-0.00019371500588 -9.7741364091e-05 0.00025477159953 -0.00039474932788 0.00016293089207 -0.00010221924208 0.0042247364451 -0.00088233546283 0.0032920946902 
4.6785958781e-05 0.000816251697 0.00090366698206 -0.00067730087704 -0.00018808292668 -0.00037351475101 -0.0001989320554 -0.0010618303178 -0.00043921087337 
-0.00093745919963 0.00067897867329 0.00024165632905 0.00026129609142 0.00020362011911 -0.00045221086958 0.0004764590052 0.00038193994811 7.6734221171e-05 
3.7530918638e-05 -0.00041945366445 -0.00011226294253 0.00054100351838 -0.0021947417125 -0.0014484400987 -0.00012234940102 0.00019939033656 2.3485666795e-05 
0.00048798381176 -0.00024349858381 0.00065600255621 -0.00076132248347 0.0008988730213 -0.00072289864612 0.00018075864797 0.0002173308947 0.00045833364794 
-0.00038302060981 0.001037484481 -0.00032876427407 9.5530712692e-05 0.00050204924198 0.00044863412689 -0.00015403602461 -0.00077111209419 0.00082399202536 
-0.00014106327585 -0.00035695782393 -0.00067466887014 -0.00055039011053 0.00051994061523 -0.00032432349149 -0.00060381112695 0.00044151226019 -0.00034720222338 
-0.00037692122277 0.00052231993309 0.00018196712338 -0.00029880305581 7.0650309115e-05 0.00098024399367 -0.00084706522842 0.00090246715781 0.0002260892522 
-0.00074396744875 0.00017434374548 -0.00043064304011 -7.3325836546e-05 7.8745141381e-05 -9.2905558873e-06 -0.000543221224 -0.00061024191252 1.2957293921e-05 
-0.00019559547934 0.00011211975087 -0.00015517115817 -0.0011771251588 -0.00030482923766 3.1042647976e-05 -2.1212247831e-05 0.00068262388397 1.3809553888e-05 
-0.00018373829986 -0.00051305191245 -0.0010170044374 -8.1142202611e-05 -0.00062304161862 -0.0010097393305 0.0010646027246 -0.0014234995938 -0.0004773791805 
-0.00016628278698 0.00082247525165 -4.8296957609e-05 -4.2319421238e-05 4.098680905e-05 9.7560886043e-05 0.00024092921885 -0.00018421003885 -0.00016801769939 
-0.00065726804315 0.00064983281002 3.4251077304e-05 0.00017938865542 -4.0569733638e-05 0.00010572332107 0.00054955793069 -0.00069794800985 -0.00019338183277 
0.00014881006727 -0.00039568319425 0.00017285889519 -3.5627112533e-05 0.00016277724033 -0.0001967904089 9.3207651871e-05 0.00050683543703 -0.00023456618171 
-0.00028648612472 0.00086556493678 -6.6247241791e-05 0.00020873788153 0.00071852986575 0.0004323960658 8.9814179566e-05 2.0332016751e-05 -2.9043863222e-05 
1.6497093903e-05 -1.3449988765e-05 0.00016880778382 -0.00011124349734 1.975504709e-05 1.8723060419e-05 -0.00024146967955 0.00019232316415 -0.00014446440495 
0.00018540426257 -8.3291367529e-05 3.662791602e-05 -0.00021247408918 1.567743421e-06 -6.1138078149e-05 0.00017197155752 -3.6327005198e-05 0.00011590806442 
0.00036465939823 4.4310374695e-05 0.00015326268707 7.9367028002e-05 0.00010473789906 -1.1303381695e-05 0.00021614706921 -2.8980012184e-05 -3.403552693e-05 
0.00015733241035 0.00015083898688 -5.2361099342e-05 -8.0125536652e-05 -0.00028165457568 3.8626740869e-05 3.1420579508e-05 0.00017265674621 -9.3457152014e-05 
0.00017467749327 -1.6071417105e-05 -6.1233769191e-05 
