# vtk DataFile Version 4.2
Generated by LIGGGHTS
ASCII
DATASET POLYDATA
POINTS 70 float
-0.000325245 -0.0261434 0.0352279 -0.0149832 0.0210799 0.0479632 0.0191306 -0.0193362 0.0600075 
0.000336905 0.00592148 0.0588072 -0.00782657 -0.00741408 0.0627211 -0.0336155 0.00525218 0.069375 
0.0363398 0.0111615 0.0650465 0.0112574 0.0171885 0.0652814 -0.0087745 0.0280523 0.070081 
-0.0109787 -0.0235554 0.0715503 0.0225994 -0.0115983 0.0747615 -0.00835716 0.0273492 0.0820522 
-0.00691221 -0.0183295 0.0871472 0.00155135 -0.00149742 0.082627 -0.0234411 0.00765287 0.104139 
-0.00131971 0.00827607 0.0974302 0.0140649 0.018808 0.102101 -0.0279034 -0.0137173 0.104714 
-0.0027874 -0.0181624 0.120627 0.0229092 -0.0124254 0.124624 0.0380003 -0.0153173 0.125006 
-0.0131374 -0.00108706 0.119279 0.0272687 0.0180533 0.123831 -0.0138654 0.0285688 0.1171 
-0.0130022 -0.0380836 0.136341 0.00643649 -0.0312524 0.136671 0.0125366 -0.0103299 0.135557 
0.0314931 -0.00176729 0.135776 -0.0181999 -0.0283872 0.143802 -0.00866905 -0.0238964 0.13806 
0.0131371 -0.0339237 0.146259 0.0149352 0.00686162 0.145702 0.0257956 0.00759857 0.140657 
-0.007764 0.0249631 0.138661 -0.027094 -0.0263823 0.153246 0.00201312 -0.032154 0.158114 
-0.00353122 -0.0191512 0.157666 0.0175448 -0.00848716 0.157562 -0.0329996 0.00882666 0.153443 
-0.0151206 0.0033143 0.149071 0.0322415 0.00279728 0.150679 -0.0193759 0.0210962 0.14994 
0.00820401 0.0282124 0.159188 -0.000538916 0.0363134 0.157811 0.0096945 0.039844 0.150697 
-0.00886041 -0.0343435 0.16341 0.0104172 -0.0267315 0.164742 -0.0342153 -0.0050154 0.16362 
-0.000137058 -0.00141219 0.16474 0.0288715 -0.0109924 0.167247 -0.0353291 0.00684723 0.165044 
-0.0162839 0.00196268 0.16469 0.0195281 0.00240506 0.164309 0.000815909 0.0153321 0.170021 
0.0150599 0.0166938 0.168369 -0.0138121 0.0240943 0.160138 -0.00834191 -0.0285983 0.181 
-0.000516111 -0.0190544 0.181113 0.0110638 -0.0191157 0.177529 -0.0344979 -0.00700297 0.177638 
-0.0132936 -0.0112 0.175587 0.0163968 -0.00185082 0.175083 0.02814 -0.000499119 0.173018 
-0.0295486 0.00390026 0.178963 -0.000902615 0.00662032 0.181454 -0.00341137 0.020928 0.179758 
0.0243139 0.0144186 0.177785 0.00839904 0.0303749 0.176351 0.0322982 0.000532072 0.184226 
0.00684984 0.0156417 0.183035 
VERTICES 70 140
1 0 
1 1 
1 2 
1 3 
1 4 
1 5 
1 6 
1 7 
1 8 
1 9 
1 10 
1 11 
1 12 
1 13 
1 14 
1 15 
1 16 
1 17 
1 18 
1 19 
1 20 
1 21 
1 22 
1 23 
1 24 
1 25 
1 26 
1 27 
1 28 
1 29 
1 30 
1 31 
1 32 
1 33 
1 34 
1 35 
1 36 
1 37 
1 38 
1 39 
1 40 
1 41 
1 42 
1 43 
1 44 
1 45 
1 46 
1 47 
1 48 
1 49 
1 50 
1 51 
1 52 
1 53 
1 54 
1 55 
1 56 
1 57 
1 58 
1 59 
1 60 
1 61 
1 62 
1 63 
1 64 
1 65 
1 66 
1 67 
1 68 
1 69 

POINT_DATA 70
FIELD FieldData 7
id 1 70 int
44 208 510 598 557 411 372 458 587 
506 366 612 723 485 1047 875 972 835 
1168 1262 1563 1140 1063 894 1642 1274 1445 
1242 1483 1602 1884 1645 1687 1328 1519 2214 
2099 2118 2005 1335 1808 1875 1873 1747 1781 
1900 1990 2253 2175 2254 2200 2171 2147 2152 
2278 1946 2455 2457 2463 2412 2322 2430 2345 
2364 2460 2424 2304 2379 2461 2474 
type 1 70 int
2 2 2 2 2 2 2 2 2 
2 2 2 2 2 2 2 2 2 
2 2 2 2 2 2 2 2 2 
2 2 2 2 2 2 2 2 2 
2 2 2 2 2 2 2 2 2 
2 2 2 2 2 2 2 2 2 
2 2 2 2 2 2 2 2 2 
2 2 2 2 2 2 2 
i 3 70 int
0 0 0 0 0 0 0 0 0 
0 0 0 0 0 0 0 0 0 
0 0 0 0 0 0 0 0 0 
0 0 0 0 0 0 0 0 0 
0 0 0 0 0 0 0 0 0 
0 0 0 0 0 0 0 0 0 
0 0 0 0 0 0 0 0 0 
0 0 0 0 0 0 0 0 0 
0 0 0 0 0 0 0 0 0 
0 0 0 0 0 0 0 0 0 
0 0 0 0 0 0 0 0 0 
0 0 0 0 0 0 0 0 0 
0 0 0 0 0 0 0 0 0 
0 0 0 0 0 0 0 0 0 
0 0 0 0 0 0 0 0 0 
0 0 0 0 0 0 0 0 0 
0 0 0 0 0 0 0 0 0 
0 0 0 0 0 0 0 0 0 
0 0 0 0 0 0 0 0 0 
0 0 0 0 0 0 0 0 0 
0 0 0 0 0 0 0 0 0 
0 0 0 0 0 0 0 0 0 
0 0 0 0 0 0 0 0 0 
0 0 0 
v 3 70 double
1.3317275691e-06 3.0711925766e-06 3.8486971224e-07 3.4135518185e-07 9.223539855e-07 -2.9645482651e-06 -1.9599054075e-06 -8.2466956381e-06 -8.5254120653e-06 
2.8383494715e-06 1.6238973785e-06 2.0447021559e-06 2.5213037858e-06 7.6743562416e-07 -4.9887755837e-06 -4.9542504099e-07 6.1481436245e-07 6.4175426495e-07 
9.4049442427e-06 -5.512902384e-06 4.5110231505e-06 -2.5900057445e-09 2.1304659636e-06 -2.9527511078e-06 -3.4281433184e-08 3.5894890104e-06 -9.2124845538e-06 
-1.8558249568e-07 3.0031097921e-06 8.285319832e-07 -1.2256665536e-06 5.4326455876e-07 -3.4075157987e-06 5.1173740493e-07 -4.6349633595e-06 5.1926607373e-07 
-2.8685134752e-06 -1.8985046873e-06 5.0339957057e-06 7.4678054751e-07 3.0267481245e-06 5.5543429623e-06 5.812298833e-07 2.6472933511e-06 -3.3248371664e-06 
1.5159132566e-07 2.2319706732e-06 -1.2660852769e-06 -2.3230254398e-06 -1.4059309292e-06 2.1441870654e-06 -1.8013241621e-06 -1.1128168562e-06 -2.0370196645e-06 
-2.0064171696e-06 -8.0933211568e-08 -6.0607173663e-07 -1.701895554e-06 9.8390724344e-07 1.6724242401e-06 -4.2150042038e-06 -2.1412358167e-06 2.7680693748e-06 
2.6418194815e-07 8.1224683639e-07 -1.2046639269e-06 1.720040776e-06 1.4437186856e-06 5.2552180698e-06 -2.6928492829e-07 -2.226330428e-06 -1.5930171299e-06 
-4.7206016797e-07 3.9851154931e-06 1.8637118362e-06 7.4524642387e-07 7.0044460224e-07 4.3012011433e-06 1.7357237396e-06 -3.175832808e-06 1.8669801326e-07 
-1.6725768729e-06 1.2771740214e-06 3.9711608609e-06 -1.266359324e-07 -7.8866121898e-07 6.3906905912e-07 1.0187866583e-06 -1.2113556779e-06 -1.3573834298e-07 
-1.8377441583e-06 -3.7915744076e-06 -2.0373884338e-06 8.3276305324e-07 1.7303187329e-06 7.9946591168e-07 1.112410984e-06 -1.1021344566e-06 -2.5158106242e-06 
-1.2830493803e-06 2.0369049158e-06 -2.4113655577e-06 -1.5264518201e-06 -9.4480067617e-07 -1.8472108711e-08 -2.1268071331e-07 3.684770605e-07 6.5163034362e-07 
-1.2918565446e-06 6.3784959371e-07 1.8728489085e-06 5.5656475099e-07 6.2444577075e-07 -6.7039553285e-07 -2.1683500602e-07 -7.122390986e-07 1.2084440828e-06 
-1.1240188322e-06 7.7339987077e-07 -7.2136804076e-07 -2.1537805725e-07 -4.4025509288e-07 3.1984302509e-07 -8.7439892555e-08 1.4029955258e-07 4.3745568234e-07 
1.4960379802e-06 1.3387625021e-06 -2.3852547349e-07 -1.6642881501e-06 -4.9332296629e-06 -5.0819690723e-07 -5.0919190714e-07 -6.1114835065e-06 -1.3222450466e-06 
1.2276524738e-06 -4.7155190604e-07 -1.1218022827e-06 1.9234442304e-07 6.1325353748e-07 -5.4798912277e-07 1.905498861e-06 3.7328335345e-07 -3.478787355e-06 
2.767419238e-06 -3.9877438388e-06 1.7629112514e-06 -7.0982301395e-07 1.1280502287e-06 -1.228387961e-06 -1.1224056503e-06 1.4413052009e-07 9.4877923372e-07 
-3.7958233616e-07 5.1523064736e-07 -8.2069048941e-07 2.5790915324e-07 -9.4784756986e-07 3.2698524421e-08 -3.0813547557e-06 2.000897505e-06 -3.2251083462e-06 
-1.7203957282e-06 -7.0401698265e-07 -1.0653804444e-06 1.848237484e-06 1.4467310698e-06 1.3484091057e-06 -3.5389744504e-07 3.3188674469e-07 4.7693919325e-07 
-4.0187851735e-07 3.8752126763e-07 -1.2587770233e-06 -8.0795438129e-07 2.138158118e-07 -6.9566070622e-07 -6.0198272534e-08 -7.7873622121e-07 1.4909981884e-06 
5.9137555793e-07 -1.2710183738e-07 -2.0433734797e-08 6.0415002616e-07 9.9832852809e-08 -1.1771016953e-06 -2.7744380207e-07 1.8709229357e-08 -9.8098888971e-07 
-2.5835907652e-07 2.9342835084e-07 1.0066610168e-06 -6.9833434265e-07 -1.8191349413e-06 3.0104946463e-07 -7.1963354936e-07 1.3135269289e-06 1.51219616e-06 
-9.5151736988e-07 -1.5809343194e-06 9.9601676589e-07 1.6145832185e-07 5.9725255874e-07 2.660853407e-06 -1.4413977364e-08 -1.7690669706e-07 -2.5439085607e-07 
1.7599999894e-06 2.2247136973e-06 -7.5353833704e-07 
f 3 70 double
0.00010330131741 8.3095463759e-06 -0.00052015615011 -0.00038312013095 0.00052553191159 -0.00025527828102 -0.00070018191738 0.00059809610547 -0.0010445630965 
-0.00029398459984 0.00048824049225 -0.00016918084598 -0.00036151957504 7.1798152971e-05 -6.3751932365e-05 -0.00014092321173 -7.3494395e-05 0.00049625458588 
0.00069365346309 0.00025331721248 -5.2167240051e-05 0.00042809668068 -0.00051038666385 -0.00023066796861 0.00060032924925 0.0010160720051 -0.0011722389509 
0.00039539752142 -0.00042479979093 -0.00054513252353 0.00013641915943 0.00013943073977 -0.00066588229304 -0.00012435228628 -0.00025271035698 -0.00045339960364 
-0.00019366783763 -0.00027379458396 9.3573023652e-05 9.1006325566e-05 0.00025314877507 -1.8318414605e-05 -0.00039344130054 0.00033730470665 -0.0011324407546 
-0.000414653309 -0.00041479706913 0.00046596668432 -0.00012718912403 0.00039734763958 0.00039290084873 -0.00043558151519 1.1674199685e-05 -5.5068557632e-05 
1.6973491418e-05 0.00015919211114 -0.00013117260086 -0.00049853994162 0.00065242800399 0.00043920984462 -8.117172614e-05 -0.00057842063886 -0.00020541321112 
-8.7012844338e-05 2.4176832768e-05 -8.7301663536e-05 0.00031936589878 0.00010895415439 -7.0944235458e-05 -0.00027287681366 -0.00046102275044 -2.8358263571e-05 
-0.00028162035895 -0.00014920569099 -8.3039606856e-05 0.00026013109455 0.00022679227585 -0.00024297282432 0.00012186692721 0.00020124544414 -0.00041240314412 
0.00031599940148 -7.5910975027e-05 3.6637452984e-05 -0.00045619525114 -0.00017922237291 0.00048371439923 4.1696789134e-05 -2.7078424002e-05 -1.2870780693e-05 
2.4603380538e-05 8.8464242529e-06 -3.3471107195e-06 0.00015516137992 0.0011415178656 -0.00044574083399 -4.8877822767e-05 -0.00013389448187 6.9332005702e-05 
4.222271454e-05 0.00015825445251 0.00018556578771 -2.9347033018e-05 -7.1314710651e-05 0.00015713709099 0.00014721524797 0.00028396009088 -0.00030859212088 
7.4916525163e-05 8.7594295216e-05 1.4995744934e-05 3.3078534404e-05 -0.00011972475232 3.2803250324e-05 0.00011187560842 0.00014921588381 8.2706383764e-05 
-0.00022143695999 -6.6659396971e-05 -0.0001088815257 6.889809054e-05 4.0240832715e-05 -1.7841928906e-05 8.4374409103e-05 -0.00018434544612 -0.00035719001903 
9.4832036557e-05 -0.00022861645887 -0.00010040178652 6.0909233545e-05 0.00020920537893 0.00019728892216 -6.5186863392e-05 -0.00017904212975 -0.00012660043858 
0.00052502703608 0.00018246379315 0.00017732626595 -1.6362540602e-05 3.826674001e-05 -1.4377651996e-05 -4.4937319183e-05 5.9934879349e-05 6.6986049198e-05 
-0.00010878837077 -5.334267489e-05 0.00035251661053 4.6005404241e-05 -6.7810429834e-05 4.6022661996e-05 0.00010044899866 7.3227620393e-05 0.00010938567904 
0.0002090082466 3.2195472349e-05 -8.2108879389e-05 0.00017706248674 -0.00016660461023 -1.6258412013e-05 0.00016690371565 5.0730736249e-05 -0.000203699842 
-2.961337855e-05 3.9156976246e-05 -0.00011322593288 -1.8828866741e-05 1.2653578752e-05 0.00022252395691 -5.0309358873e-05 -3.2872493705e-05 -3.8397186876e-05 
-8.0616607265e-06 -7.5090324262e-06 -6.2601141669e-06 8.8102982493e-06 1.5548020364e-06 1.8981162669e-05 -3.3239634105e-05 -5.1002576709e-05 -2.3674367973e-05 
3.8133122937e-05 2.0928557867e-05 -1.6867968618e-05 -1.3555914265e-05 -3.4031358054e-05 -5.3089475318e-05 -2.0816273585e-05 -5.5120105076e-05 -0.00014855203883 
5.5208353303e-05 0.00010057392508 -5.6552999934e-05 7.8044686143e-05 0.00019527869716 5.639812215e-06 -2.5466731414e-06 7.3033548813e-06 -7.5271620573e-05 
-0.00017509626181 7.9460959415e-05 -6.0786076909e-05 -2.4854422244e-05 7.2408159336e-05 1.1624661504e-07 -3.8150384367e-05 2.0335324703e-05 -3.4812027977e-05 
-2.8759964663e-05 -5.2806965026e-05 5.8910232307e-05 
radius 1 70 double
0.006 0.006 0.006 0.006 0.006 0.006 0.006 0.006 0.006 
0.006 0.006 0.006 0.006 0.006 0.006 0.006 0.006 0.006 
0.006 0.006 0.006 0.006 0.006 0.006 0.006 0.006 0.006 
0.006 0.006 0.006 0.006 0.006 0.006 0.006 0.006 0.006 
0.006 0.006 0.006 0.006 0.006 0.006 0.006 0.006 0.006 
0.006 0.006 0.006 0.006 0.006 0.006 0.006 0.006 0.006 
0.006 0.006 0.006 0.006 0.006 0.006 0.006 0.006 0.006 
0.006 0.006 0.006 0.006 0.006 0.006 0.006 
omega 3 70 double
-5.3706437772e-05 3.224439326e-05 0.00022658404772 -0.00021303208727 0.00033784523537 0.00041333533959 -0.00057883903195 -0.0041218382253 0.0025365720686 
-9.1722353884e-05 0.00103348423 -0.00019627889283 0.00055284023298 0.00071037099697 0.00064619052891 -0.00031133271477 -0.00093902668889 0.001565700234 
0.0021853820126 0.0013462028103 9.9151132038e-05 0.00032647833448 2.8968698798e-05 -0.00043888841256 -0.001502305186 -0.0029802211572 -9.3379206529e-05 
0.00057572873017 0.0010882618318 -0.00022411835617 -0.00026755312952 0.00017959429327 0.0012359677865 -0.0014701950339 -3.065650594e-05 0.0001842891675 
0.00025347834672 -0.00021171420267 -0.00039201473853 0.00052369456049 0.00037232871622 0.00017183231576 0.00083001267631 0.0021425089316 0.00035205669725 
-0.00051256545789 -0.0011721044297 -0.001708429179 -0.00087824159854 -0.00020489668115 -0.00099740649642 -0.00024131775415 -0.00051937180861 -0.00056447194761 
4.4975009143e-05 0.0006323196277 0.00026575414331 -0.0003420499975 -3.751789229e-05 0.00020157971011 -0.00019456979316 0.0010588270764 0.0012076590624 
0.00063526587771 0.001156408119 -0.0003402234533 0.00013751039374 -0.00013365600501 3.5071124924e-05 0.0019905608919 -0.00035332888378 0.00016862770616 
-0.00040729140901 -6.936001414e-06 0.00030170438302 -0.00028222860559 0.00030773530271 0.00034433012947 0.0005220887607 9.4491676758e-05 -0.00011301897076 
0.00013922314291 -0.0011220418467 -0.00031599646978 -0.00080613173664 -0.00059769010603 0.00014692824919 -0.00047379791666 0.00018548735846 0.00032384162439 
0.000300230474 0.00068474735532 0.00012359977346 0.00063619741715 -6.986604576e-05 -0.00048745891852 -0.00014188578684 0.00036667263435 0.00017418248918 
-7.3280956367e-05 -0.00029648856216 -0.0001790062537 -2.137847295e-05 0.00016588961231 0.00013177342694 0.0003497530025 -0.0002586296974 -0.00014735059811 
7.1731739186e-05 -1.4376380501e-05 0.00070755851832 0.00014268853338 0.00012844431082 9.6379345713e-05 9.9677010322e-05 -0.00044756679274 -0.00021712051301 
-0.00068443808462 -0.00044398529798 7.4561099164e-05 -0.00057707411633 0.00011056200843 0.00019689978261 0.00030212736152 0.00010134663511 -0.00049853170825 
-0.00062386888401 0.00025353486023 0.0013476085416 -0.0027947689101 0.0004874566776 0.0010311197133 -0.00068990699245 -0.00084102414266 0.00042043694506 
0.00085946031476 -0.00025590640619 0.00017738396531 0.00016932842253 3.9891050442e-05 4.2439413373e-05 0.00023207937851 -0.0001078150195 9.4568437841e-05 
-0.00042075058969 -5.9195366985e-05 0.00037823029815 2.8409384948e-05 -0.00032531274117 -9.6243700239e-05 -4.4253966478e-05 -0.00041853183828 3.9712808574e-06 
-7.1004283766e-05 -0.00019556728376 5.8503534427e-05 -1.4925146575e-05 -0.00026235758954 -0.00042506213796 -0.00029045716801 0.0010786924394 0.0005151582668 
0.00026221642205 0.0012043414167 9.2685301831e-05 -0.00010167347782 -0.00019396662199 0.00058193440786 -7.8830738004e-05 0.00012718824531 8.1200204829e-05 
0.0001809513344 -0.00017617449 -1.9391509687e-05 -5.3624796085e-06 -0.00016090403608 6.4583403794e-05 0.00014964787886 0.00035825487182 -0.00047760662076 
-0.00034199785414 7.7850013862e-05 0.00032192218693 -7.1892708708e-05 0.00016245774789 -4.5107574336e-05 -0.00010295586309 0.00020852440829 0.00017999149668 
-3.1042153248e-05 -1.7395954223e-05 -6.9671537702e-05 -1.5709743652e-05 8.9310209114e-05 -3.888260303e-05 -0.00037475106735 -4.6511919413e-05 -0.00010780125456 
0.0002550258937 0.00028198546686 -9.1097667896e-05 0.00062590419079 7.2360270961e-05 0.00038165847898 -0.00014496542804 0.00018562153301 -0.00015535480636 
-0.0001799530199 -0.00025622876923 -1.8847005957e-05 
