# vtk DataFile Version 4.2
Generated by LIGGGHTS
ASCII
DATASET POLYDATA
POINTS 70 float
-0.00032531 -0.0261434 0.0352279 -0.0149832 0.0210799 0.0479632 0.0191305 -0.0193362 0.0600076 
0.000336915 0.0059215 0.0588072 -0.00782666 -0.007414 0.0627211 -0.0336155 0.00525226 0.069375 
0.0363398 0.0111614 0.0650465 0.0112575 0.0171885 0.0652815 -0.00877447 0.0280523 0.0700811 
-0.0109788 -0.0235553 0.0715504 0.0225993 -0.0115983 0.0747616 -0.00835719 0.0273492 0.0820523 
-0.00691222 -0.0183295 0.0871473 0.00155124 -0.00149748 0.0826272 -0.0234411 0.00765295 0.104139 
-0.00131971 0.00827605 0.0974303 0.0140649 0.018808 0.102101 -0.0279035 -0.0137171 0.104715 
-0.00278743 -0.0181624 0.120627 0.0229092 -0.0124254 0.124624 0.0380003 -0.0153174 0.125006 
-0.0131374 -0.00108695 0.119279 0.0272688 0.0180533 0.123832 -0.0138653 0.0285688 0.1171 
-0.0130023 -0.0380834 0.136342 0.00643656 -0.0312524 0.136671 0.0125366 -0.0103299 0.135557 
0.0314931 -0.00176738 0.135776 -0.0181999 -0.0283872 0.143802 -0.0086691 -0.0238965 0.13806 
0.0131371 -0.0339237 0.146259 0.0149353 0.00686157 0.145702 0.0257957 0.00759847 0.140657 
-0.00776396 0.024963 0.138661 -0.027094 -0.0263825 0.153246 0.00201321 -0.0321541 0.158114 
-0.00353109 -0.0191513 0.157666 0.0175449 -0.00848721 0.157562 -0.0329997 0.00882569 0.153444 
-0.0151202 0.00331419 0.149071 0.0322416 0.00279719 0.15068 -0.019376 0.021096 0.14994 
0.0082041 0.028212 0.159188 -0.000538591 0.0363132 0.157811 0.00969461 0.039844 0.150697 
-0.00886034 -0.0343435 0.16341 0.0104173 -0.0267316 0.164742 -0.0342148 -0.00501608 0.16362 
-0.000136891 -0.00141228 0.164741 0.0288715 -0.0109924 0.167247 -0.0353328 0.00684558 0.165046 
-0.016283 0.001963 0.16469 0.0195282 0.002405 0.164309 0.000815902 0.0153319 0.170022 
0.01506 0.0166935 0.168369 -0.0138117 0.0240945 0.160138 -0.00834192 -0.0285982 0.181 
-0.00051642 -0.0190543 0.181113 0.0110639 -0.0191158 0.177529 -0.0345013 -0.00700897 0.177639 
-0.0132949 -0.0111995 0.175587 0.0163968 -0.00185083 0.175083 0.0281399 -0.000499149 0.173018 
-0.0295733 0.00388786 0.178969 -0.000901169 0.00661901 0.181455 -0.0034148 0.0209228 0.17976 
0.0243137 0.0144185 0.177785 0.00840065 0.0303732 0.176353 0.0322975 0.000532321 0.184227 
0.00684962 0.0156416 0.183036 
VERTICES 70 140
1 0 
1 1 
1 2 
1 3 
1 4 
1 5 
1 6 
1 7 
1 8 
1 9 
1 10 
1 11 
1 12 
1 13 
1 14 
1 15 
1 16 
1 17 
1 18 
1 19 
1 20 
1 21 
1 22 
1 23 
1 24 
1 25 
1 26 
1 27 
1 28 
1 29 
1 30 
1 31 
1 32 
1 33 
1 34 
1 35 
1 36 
1 37 
1 38 
1 39 
1 40 
1 41 
1 42 
1 43 
1 44 
1 45 
1 46 
1 47 
1 48 
1 49 
1 50 
1 51 
1 52 
1 53 
1 54 
1 55 
1 56 
1 57 
1 58 
1 59 
1 60 
1 61 
1 62 
1 63 
1 64 
1 65 
1 66 
1 67 
1 68 
1 69 

POINT_DATA 70
FIELD FieldData 7
id 1 70 int
44 208 510 598 557 411 372 458 587 
506 366 612 723 485 1047 875 972 835 
1168 1262 1563 1140 1063 894 1642 1274 1445 
1242 1483 1602 1884 1645 1687 1328 1519 2214 
2099 2118 2005 1335 1808 1875 1873 1747 1781 
1900 1990 2253 2175 2254 2200 2171 2147 2152 
2278 1946 2455 2457 2463 2412 2322 2430 2345 
2364 2460 2424 2304 2379 2461 2474 
type 1 70 int
2 2 2 2 2 2 2 2 2 
2 2 2 2 2 2 2 2 2 
2 2 2 2 2 2 2 2 2 
2 2 2 2 2 2 2 2 2 
2 2 2 2 2 2 2 2 2 
2 2 2 2 2 2 2 2 2 
2 2 2 2 2 2 2 2 2 
2 2 2 2 2 2 2 
i 3 70 int
0 0 0 0 0 0 0 0 0 
0 0 0 0 0 0 0 0 0 
0 0 0 0 0 0 0 0 0 
0 0 0 0 0 0 0 0 0 
0 0 0 0 0 0 0 0 0 
0 0 0 0 0 0 0 0 0 
0 0 0 0 0 0 0 0 0 
0 0 0 0 0 0 0 0 0 
0 0 0 0 0 0 0 0 0 
0 0 0 0 0 0 0 0 0 
0 0 0 0 0 0 0 0 0 
0 0 0 0 0 0 0 0 0 
0 0 0 0 0 0 0 0 0 
0 0 0 0 0 0 0 0 0 
0 0 0 0 0 0 0 0 0 
0 0 0 0 0 0 0 0 0 
0 0 0 0 0 0 0 0 0 
0 0 0 0 0 0 0 0 0 
0 0 0 0 0 0 0 0 0 
0 0 0 0 0 0 0 0 0 
0 0 0 0 0 0 0 0 0 
0 0 0 0 0 0 0 0 0 
0 0 0 0 0 0 0 0 0 
0 0 0 
v 3 70 double
9.5489504212e-07 -1.4086643299e-06 -2.5691428721e-06 -6.1951465182e-07 -6.4292721723e-06 7.9752659886e-07 -3.0209968134e-06 -4.194993017e-06 2.6569432606e-06 
5.0212902809e-07 -1.5153722322e-06 -8.4105382193e-07 -2.0191024797e-07 1.9683789005e-06 1.5329693476e-06 6.7742523569e-07 4.3376701157e-06 2.7184949032e-06 
2.0507508499e-06 -2.0640412739e-06 -4.4997694648e-07 2.9170775837e-07 -5.9247005783e-06 -3.1235739328e-06 4.2865626178e-06 -1.8493642063e-06 -2.6988928843e-06 
-1.7360990215e-06 3.2444804771e-06 1.260159773e-06 1.8517417088e-06 -1.2144218379e-06 1.3905784134e-06 -1.5237897335e-06 -3.6300298109e-07 3.2427332518e-06 
1.3035867413e-06 -4.0908175904e-07 6.545091263e-07 -1.7008115765e-06 -2.1230825026e-06 2.1336151597e-06 -1.8969580262e-06 -5.4810528818e-07 1.2603105007e-06 
4.9516402861e-06 7.7302235079e-07 2.6878793781e-06 2.9694659928e-06 5.6276444118e-07 -1.4126284774e-06 -5.043396174e-07 -1.5959564818e-08 4.5965787368e-06 
1.7068105553e-06 -1.4509031887e-07 4.2562692369e-07 -3.4806536802e-06 3.568986443e-06 2.8235537303e-06 -1.2910903624e-06 2.0503165689e-06 -2.880458373e-06 
4.171203441e-06 -1.6300161936e-08 4.4480252876e-07 2.5101301331e-06 -2.8429547977e-06 8.79017008e-07 8.7445722685e-07 3.2513627637e-07 2.767177101e-06 
1.4553929666e-06 6.7861587213e-07 9.3914996928e-07 7.8464875932e-07 -1.8080285599e-06 6.8862714825e-07 -2.4683096652e-06 1.801194029e-06 2.01023237e-06 
3.7227658586e-06 4.6942774353e-07 3.2593453274e-06 7.9971602656e-07 1.1038961101e-06 1.8943858281e-06 -2.6049784314e-07 8.5660034826e-07 2.6397651102e-06 
-2.3755761699e-06 6.2746413625e-07 3.6291897015e-06 2.6975396995e-06 2.3531704583e-06 7.7421344316e-07 -1.3856698327e-07 -2.0647747373e-06 5.1579395642e-06 
2.5208548672e-07 -6.7461471866e-07 1.0354811748e-06 1.0177757023e-06 4.4340366233e-07 2.3602193106e-06 7.9598167186e-07 1.1359946455e-06 2.1923525233e-06 
1.8512616773e-06 1.7675930979e-06 1.0603159159e-06 -5.8101130057e-07 -1.1112307222e-06 2.9080793037e-06 -5.9463132092e-07 1.812132236e-06 4.0697337008e-06 
1.3562977146e-06 1.4088614435e-06 3.4697542728e-06 4.3701570419e-07 3.1744251531e-06 1.5705539294e-06 2.5469592576e-07 -3.8079977949e-08 2.1524123446e-06 
5.6246260092e-07 6.4773833372e-07 4.3765380821e-06 1.0870961686e-06 -1.8008535747e-08 2.252904112e-06 1.2887538342e-06 -8.4523322422e-07 1.5804684442e-06 
-3.4641310366e-07 -1.3723445954e-06 2.6871934338e-06 -1.8794822856e-06 6.5713101189e-07 3.0614960467e-06 2.2001185098e-07 6.423927194e-07 1.405928848e-06 
2.8204150813e-07 -1.2484447628e-06 3.4018908765e-06 -2.2563704058e-07 -3.9156452861e-07 3.9595231013e-06 4.1994794161e-07 -9.0276269012e-07 3.0955108845e-06 
-7.6389927091e-07 -1.576259557e-07 2.3246693038e-06 -2.366160616e-07 -2.5520244219e-07 1.1781050171e-06 -6.7974823555e-07 3.0328338198e-07 2.9112674888e-06 
-5.6912295084e-07 2.9352228894e-07 2.8117541296e-06 4.320660168e-07 1.0612339687e-08 2.6916644847e-06 -1.0260688701e-08 -6.5103574737e-07 3.3937332512e-06 
-4.130500938e-07 1.5555599004e-07 3.7536171132e-06 7.126310272e-07 7.4411105996e-08 2.2510594183e-06 2.6391305763e-08 -3.3254476059e-07 1.4113256515e-06 
-1.50886403e-06 -1.7662896158e-07 3.0051238631e-06 4.1262336657e-07 -3.0247620349e-08 3.2314656089e-06 3.1882248804e-07 -1.1937551775e-06 2.2441729942e-06 
2.0058600731e-07 4.6276281288e-07 1.8817405618e-06 -1.3542466689e-06 -2.2691640112e-07 2.580749578e-06 -2.2398463889e-06 -2.0649201278e-07 2.9436458001e-06 
5.8319557488e-08 -2.9571203861e-07 1.4544503392e-07 -8.7882876571e-07 5.8523155561e-07 1.1182579202e-06 8.1781201001e-07 1.2963969705e-07 1.1345083998e-06 
-4.3919540167e-07 9.1620541022e-07 3.8433078981e-06 
f 3 70 double
0.00026373178806 0.00034950876273 -8.2649800137e-05 -0.00020840552949 0.00063295563874 0.00044431129414 -0.0014759781497 0.00040489277655 -0.0005207796382 
-0.00042458695001 -0.00028191427305 0.0003721565969 0.00024311452701 0.00023773580994 -0.00045660456155 0.00045857222796 -0.00018333407881 -0.00041373135361 
-0.00098544360402 0.00070967374857 -8.7823139926e-05 0.00055210083159 -0.00036803944259 -0.0012563518391 -0.00049355859735 -0.00047515580406 -0.00061014197733 
0.00012271844583 -0.00042982848356 0.00024861498735 -3.8457676933e-05 8.5892971481e-05 -0.00043520470693 -3.2673796324e-05 3.0067618118e-05 0.00032893282613 
-0.00027079737909 0.00023598513322 -0.00045308444789 3.2523666442e-05 0.00019267668128 -0.00023286707018 -0.00011604716924 -0.0010377660092 0.00032644536739 
-0.00052492521363 0.0001736448079 0.00048223854027 0.00022634517503 -0.00033609745382 0.00029627409424 0.00045259537592 -0.00036073785581 1.7156344281e-07 
0.00015292881535 6.3384183142e-05 -0.0008774147187 -0.00018712831576 8.5002441506e-05 7.417916891e-05 0.00019205873357 -0.00022660584811 5.083035929e-05 
0.00025316290308 3.001470725e-05 -0.00015336095427 -0.0001781597622 1.1233094461e-05 5.6878347129e-05 0.00030653670505 5.2930172586e-05 -0.00026700017107 
8.4291597634e-05 -1.0109875146e-05 9.3499961905e-06 0.00020353697046 -0.00047312120664 -0.0002429306513 0.00032679475472 -2.2349942405e-06 2.0410205674e-05 
-0.0002855039861 -1.0039468949e-05 9.4236705235e-05 7.4942440727e-05 -0.00027138281582 -0.00014794415645 -4.8727207048e-05 0.00020431624237 -0.00015475662901 
2.1036971329e-05 -2.6921536927e-05 0.00011134044266 -5.8527217185e-05 -0.00028554371655 0.00017547967925 -0.00017365928643 -8.9937905391e-05 0.00012381364878 
8.2933243725e-05 4.1872433677e-05 0.00015725097409 -0.00014959692808 0.00013451809635 5.5662254946e-05 -4.6041316656e-05 -2.191487416e-05 8.2477458589e-05 
-0.00024884114836 -2.2497423004e-05 5.3761560152e-05 0.00011256574124 -0.00019736810944 -2.8121129089e-05 -8.2444470649e-05 8.0132960745e-05 0.00012112583886 
-0.00012580153322 8.3642447545e-05 0.00011390620248 -0.00038677276679 4.7130793792e-05 -0.00038090567866 -6.3130539156e-05 -9.3585185594e-05 -0.00016863560071 
0.00013837464608 0.0001062136709 7.9956723325e-05 -5.6829571949e-05 -2.8297655615e-05 2.6709747047e-05 -0.00010047918 0.00015655987416 0.0001839922792 
-0.00022650544073 -7.2327811008e-05 -6.4916723336e-05 1.061184164e-05 -8.3109471076e-06 -4.1583880575e-05 1.6069002593e-05 3.3551198613e-05 0.00035899964471 
-7.9043246452e-05 -5.2094642687e-05 0.00012907680332 0.00020357818835 -9.9634655647e-05 0.00017591735276 6.3961555588e-05 -9.5985818191e-05 5.7109053695e-05 
0.00010294113249 9.6053120634e-05 -7.8249309012e-05 7.5701931007e-05 -6.0796949041e-05 -0.00011833704553 -3.4184658933e-05 -2.7070381532e-05 -0.0001971699474 
-4.9627201127e-05 -8.6499216278e-05 -0.00018809305188 -0.00014298029262 6.8795351249e-05 -0.00020161175225 5.7165583361e-05 -1.2633235832e-05 7.1092351936e-05 
1.5189405469e-05 1.8700284979e-05 -1.9760433231e-05 1.032734843e-05 -2.4330400964e-05 -1.2547371816e-05 -8.6291796979e-05 -6.5370066487e-06 -3.9159925055e-05 
5.780299369e-05 -9.5099125083e-05 -6.7345150042e-05 3.0471133263e-06 1.2212936707e-05 -1.0013115256e-06 3.3649645642e-05 -6.1224072195e-05 -7.5077483479e-05 
1.1401895097e-06 -1.0627921122e-05 -3.7341564897e-06 5.5095951122e-05 0.00021022591927 1.8424782214e-06 -2.2605275459e-05 -4.1885005651e-06 2.5258039391e-05 
-0.0001361112133 2.2652530158e-05 1.6712824001e-05 4.6400772968e-05 4.6083676395e-05 4.7159512144e-05 -9.1962993182e-06 -1.1324476092e-06 -2.8028435961e-05 
-5.2539938923e-05 0.00010590934658 -3.220025307e-05 
radius 1 70 double
0.006 0.006 0.006 0.006 0.006 0.006 0.006 0.006 0.006 
0.006 0.006 0.006 0.006 0.006 0.006 0.006 0.006 0.006 
0.006 0.006 0.006 0.006 0.006 0.006 0.006 0.006 0.006 
0.006 0.006 0.006 0.006 0.006 0.006 0.006 0.006 0.006 
0.006 0.006 0.006 0.006 0.006 0.006 0.006 0.006 0.006 
0.006 0.006 0.006 0.006 0.006 0.006 0.006 0.006 0.006 
0.006 0.006 0.006 0.006 0.006 0.006 0.006 0.006 0.006 
0.006 0.006 0.006 0.006 0.006 0.006 0.006 
omega 3 70 double
0.001296670997 -0.00098756292119 -0.00035576828447 -0.00099400336679 -0.00095763267705 0.00086055089312 -0.00020487121763 -0.0013307214463 0.0013359665548 
-0.0008259419478 -0.0016937541479 0.0013262609124 -0.00056455131462 -0.00028254072781 0.00060666839053 2.2619037228e-05 0.00010555073759 0.0002602676117 
0.00074147751036 0.0015977079145 7.2024777282e-05 0.0019765197655 0.0017449457545 -0.00030230503359 -0.0016432695272 -0.00036502713706 -0.00053112486948 
-0.00048669955098 -0.0013653145347 0.00052208941576 -0.00089332123825 -0.00022568215609 -0.0011367851789 -0.00088391174615 -0.00089780970354 -0.00024285344766 
-0.00031350504402 0.00049674387983 -1.9650915803e-05 0.0014907456877 0.00012246822954 0.00011903813111 0.00057270978846 0.00066944548979 0.00016582282646 
0.00026176878871 -0.00036283734309 0.00063126878511 0.00095680727973 -1.226825044e-05 -0.00037771708149 -0.0011751187076 -0.00028683017587 0.0011359635749 
0.00060790555914 -0.00041360719362 -0.00031103652087 8.24969726e-05 -0.00029469450584 0.00062007027206 -0.00037804877687 0.0001250873342 5.5977195828e-06 
0.00028851787294 -8.8162414944e-05 -0.00033511758164 -0.00078002433802 0.0016075282661 0.00043886480375 0.00087962360553 -0.00053422255701 -0.0014427149417 
-0.0005206392871 0.00044142705494 0.00043999589543 -0.0010066115692 0.00084681266553 9.0921141483e-05 0.00016640415606 -0.00045854475694 0.00020266642364 
0.00052964212008 -0.0010863036692 0.00027706195436 0.00031223302336 0.0002124669588 -0.00012360698202 -0.00030281858219 7.7728488206e-06 1.021813981e-05 
0.00076931624376 -6.1898789813e-05 0.00068222972235 0.00084475857046 -0.0012904835452 0.00039375011076 0.0013557084853 -0.0012559619256 -2.694809732e-05 
0.00091803723927 0.00062057826174 6.8660760682e-05 0.00020968104088 -0.00030381517628 -0.00077484646667 0.00041852706416 -2.5576973628e-05 0.00017554694029 
-0.0007821419568 -9.0755113376e-05 -0.00038566827021 7.2193579794e-05 0.00039547081725 -8.4549123562e-05 0.00034232584332 0.00015245116945 3.9247374836e-05 
-0.00017209841733 -0.0002676573198 0.00010836777874 0.00056635370404 0.0002479737277 -0.00014527438908 -7.8296455913e-06 0.00043015949946 0.00052726729377 
0.00011107632786 0.00024299766177 1.7633720409e-05 0.00024710772836 0.00026049396595 0.0001005329403 -1.606020461e-05 0.00012032563417 -0.00029135317384 
-0.00021991033575 0.00021505548889 -0.00021704174187 -7.4491400467e-05 -6.6428340549e-05 0.00033750330102 -3.1754135959e-05 -6.6599098823e-05 2.2742510796e-05 
0.00024618830772 -0.0001340676765 0.00022827837952 -2.2430059097e-05 0.00016928501228 9.1330329746e-05 -0.00012708958676 -0.00029364343885 -2.5072421327e-05 
0.00015454146164 -0.0002228078619 0.00010736026634 0.00021359934337 0.00014340999962 -0.00022545661395 0.00044620062091 2.8555742282e-05 8.8499746539e-05 
0.00025916159491 0.00067336420775 4.1232658302e-05 -9.5259962463e-05 0.0005552687962 7.3983584238e-05 9.4530689e-05 -2.3644135809e-05 7.194756257e-05 
-0.0003224296329 7.3906367538e-06 -7.5518199891e-05 -0.00014758974296 -8.3329001485e-05 0.00012160673643 -0.00021570415451 -0.00025030836099 0.00026523786936 
-2.6011140931e-05 0.00016403800771 2.4935615693e-05 -9.9503219633e-05 0.00019210231058 -9.7389565276e-06 0.00013784742879 -9.060932409e-05 0.00030897622881 
-0.00010500435933 -7.7580957056e-05 6.3724543622e-05 0.00022371772985 -0.00018018234266 -7.8348309531e-05 -9.7941506255e-05 0.00021630563261 4.1179243231e-05 
-0.00044011146465 0.00020912319366 -9.0966101813e-05 0.00021275691563 0.00019846017761 -0.00022683745663 -0.0001561659538 5.1008565877e-05 0.00029568357817 
5.8107742495e-05 -0.00010880237545 -3.2380090329e-05 
