# vtk DataFile Version 4.2
Generated by LIGGGHTS
ASCII
DATASET POLYDATA
POINTS 70 float
-0.000325238 -0.0261434 0.0352279 -0.0149832 0.0210799 0.0479632 0.0191306 -0.0193362 0.0600075 
0.000336903 0.00592149 0.0588072 -0.00782656 -0.00741408 0.0627211 -0.0336155 0.00525218 0.069375 
0.0363398 0.0111615 0.0650465 0.0112574 0.0171885 0.0652814 -0.0087745 0.0280523 0.070081 
-0.0109787 -0.0235554 0.0715503 0.0225994 -0.0115983 0.0747615 -0.00835716 0.0273492 0.0820522 
-0.00691218 -0.0183295 0.0871472 0.00155133 -0.00149741 0.082627 -0.023441 0.00765289 0.104139 
-0.0013197 0.00827607 0.0974302 0.0140649 0.018808 0.102101 -0.0279034 -0.0137172 0.104714 
-0.00278737 -0.0181624 0.120627 0.0229092 -0.0124254 0.124624 0.0380003 -0.0153173 0.125006 
-0.0131374 -0.00108703 0.119279 0.0272687 0.0180533 0.123831 -0.0138654 0.0285688 0.1171 
-0.0130023 -0.0380835 0.136342 0.00643656 -0.0312524 0.136671 0.0125366 -0.0103299 0.135557 
0.0314931 -0.00176729 0.135776 -0.0181999 -0.0283872 0.143802 -0.00866907 -0.0238964 0.13806 
0.0131371 -0.0339237 0.146259 0.0149352 0.00686162 0.145702 0.0257956 0.00759856 0.140657 
-0.00776398 0.0249631 0.138661 -0.027094 -0.0263823 0.153246 0.00201312 -0.0321541 0.158114 
-0.00353122 -0.0191512 0.157666 0.0175449 -0.00848716 0.157562 -0.0329996 0.00882671 0.153443 
-0.0151206 0.00331431 0.149071 0.0322416 0.00279728 0.150679 -0.0193759 0.0210962 0.14994 
0.00820402 0.0282124 0.159188 -0.000538888 0.0363134 0.157811 0.00969452 0.039844 0.150697 
-0.00886042 -0.0343435 0.16341 0.0104172 -0.0267315 0.164742 -0.0342152 -0.00501539 0.16362 
-0.00013706 -0.00141221 0.164741 0.0288715 -0.0109924 0.167247 -0.0353291 0.00684719 0.165044 
-0.0162838 0.00196268 0.16469 0.0195281 0.00240505 0.164309 0.000815917 0.0153321 0.170021 
0.01506 0.0166938 0.168369 -0.013812 0.0240943 0.160138 -0.00834191 -0.0285983 0.181 
-0.000516114 -0.0190545 0.181113 0.0110638 -0.0191157 0.177529 -0.0344979 -0.00700302 0.177638 
-0.0132936 -0.0112 0.175587 0.0163968 -0.00185082 0.175083 0.02814 -0.000499114 0.173018 
-0.0295487 0.00390003 0.178963 -0.000902595 0.00662035 0.181454 -0.00341136 0.020928 0.179758 
0.0243139 0.0144186 0.177785 0.00839904 0.0303749 0.176351 0.0322981 0.000532051 0.184226 
0.00684985 0.0156418 0.183035 
VERTICES 70 140
1 0 
1 1 
1 2 
1 3 
1 4 
1 5 
1 6 
1 7 
1 8 
1 9 
1 10 
1 11 
1 12 
1 13 
1 14 
1 15 
1 16 
1 17 
1 18 
1 19 
1 20 
1 21 
1 22 
1 23 
1 24 
1 25 
1 26 
1 27 
1 28 
1 29 
1 30 
1 31 
1 32 
1 33 
1 34 
1 35 
1 36 
1 37 
1 38 
1 39 
1 40 
1 41 
1 42 
1 43 
1 44 
1 45 
1 46 
1 47 
1 48 
1 49 
1 50 
1 51 
1 52 
1 53 
1 54 
1 55 
1 56 
1 57 
1 58 
1 59 
1 60 
1 61 
1 62 
1 63 
1 64 
1 65 
1 66 
1 67 
1 68 
1 69 

POINT_DATA 70
FIELD FieldData 7
id 1 70 int
44 208 510 598 557 411 372 458 587 
506 366 612 723 485 1047 875 972 835 
1168 1262 1563 1140 1063 894 1642 1274 1445 
1242 1483 1602 1884 1645 1687 1328 1519 2214 
2099 2118 2005 1335 1808 1875 1873 1747 1781 
1900 1990 2253 2175 2254 2200 2171 2147 2152 
2278 1946 2455 2457 2463 2412 2322 2430 2345 
2364 2460 2424 2304 2379 2461 2474 
type 1 70 int
2 2 2 2 2 2 2 2 2 
2 2 2 2 2 2 2 2 2 
2 2 2 2 2 2 2 2 2 
2 2 2 2 2 2 2 2 2 
2 2 2 2 2 2 2 2 2 
2 2 2 2 2 2 2 2 2 
2 2 2 2 2 2 2 2 2 
2 2 2 2 2 2 2 
i 3 70 int
0 0 0 0 0 0 0 0 0 
0 0 0 0 0 0 0 0 0 
0 0 0 0 0 0 0 0 0 
0 0 0 0 0 0 0 0 0 
0 0 0 0 0 0 0 0 0 
0 0 0 0 0 0 0 0 0 
0 0 0 0 0 0 0 0 0 
0 0 0 0 0 0 0 0 0 
0 0 0 0 0 0 0 0 0 
0 0 0 0 0 0 0 0 0 
0 0 0 0 0 0 0 0 0 
0 0 0 0 0 0 0 0 0 
0 0 0 0 0 0 0 0 0 
0 0 0 0 0 0 0 0 0 
0 0 0 0 0 0 0 0 0 
0 0 0 0 0 0 0 0 0 
0 0 0 0 0 0 0 0 0 
0 0 0 0 0 0 0 0 0 
0 0 0 0 0 0 0 0 0 
0 0 0 0 0 0 0 0 0 
0 0 0 0 0 0 0 0 0 
0 0 0 0 0 0 0 0 0 
0 0 0 0 0 0 0 0 0 
0 0 0 
v 3 70 double
-1.5942022059e-06 7.5712633362e-07 5.2875596783e-06 -3.8299348627e-06 3.5233536424e-06 1.6183528717e-06 -2.2344952161e-06 2.9717547272e-06 -3.8553249512e-06 
-1.1167808114e-06 2.1686926617e-06 1.3611151882e-06 -3.2341366227e-06 -1.7536947031e-06 -6.1447468879e-07 1.6118041803e-06 1.2157250312e-06 -2.4591135562e-06 
-2.7065102582e-06 1.5537930285e-06 -8.2160371503e-07 -1.9403339497e-06 6.0980885073e-07 -3.887523646e-06 -3.2523633675e-06 4.2411655189e-07 -7.5678926182e-07 
-2.4281014119e-06 1.4496861219e-06 -5.4274916832e-07 -2.0475770782e-06 -1.7503874405e-06 1.213376499e-06 -6.9081876893e-08 -6.5588034919e-07 -2.5917203917e-06 
1.3171475212e-06 -2.0254530054e-06 -2.2151067669e-07 -2.1847112055e-07 -1.8532132137e-06 7.0574687771e-07 1.4713778544e-06 4.8124342757e-06 -9.442936073e-07 
-2.2608856581e-06 1.1945211347e-06 -1.3860150896e-06 -1.1173677565e-06 1.362400279e-06 8.0115501533e-07 -5.0439576146e-08 1.6839153501e-06 7.7876525599e-07 
2.8887540288e-07 -6.7823487837e-07 2.0232821446e-07 -7.7000310299e-07 1.9455410613e-07 3.9693104188e-07 -7.4358078521e-07 -4.7366303851e-07 6.8594661705e-07 
1.1589127259e-06 1.1771949814e-06 1.5348470792e-07 5.1004420052e-06 -2.0742826391e-06 -2.8837030959e-06 -5.8963016211e-07 3.0771352964e-07 3.5871228491e-06 
-2.7358404669e-08 2.9509829896e-07 -1.1796685577e-06 2.9489777157e-07 -7.3447878347e-07 -2.2077817451e-07 -1.6676676422e-06 8.7782165325e-07 1.7693424162e-06 
9.6127885357e-07 -2.8650044074e-06 5.6334542395e-08 -7.7080622732e-07 -2.0761598868e-07 1.5647185965e-07 -1.4268815802e-07 -1.4914854028e-08 1.2448567372e-06 
8.3494505534e-07 -9.0092548104e-07 8.7038016723e-07 -3.3818472342e-06 -1.0726680726e-06 1.5231924616e-06 -1.5126133006e-06 -1.7517345138e-06 -1.0534820979e-06 
3.6409284299e-07 -2.5769821027e-06 -3.2283148835e-07 -4.6079099843e-07 1.4701910061e-09 -2.9039879059e-07 -4.2076231913e-07 -4.8249161984e-07 2.5188675918e-07 
1.49688128e-06 4.7362789217e-07 1.1376159687e-06 5.6496475333e-07 -5.654081863e-07 -4.3415490031e-07 1.3706226943e-06 4.2818489156e-06 -2.4604544187e-06 
1.4491984901e-06 -3.0673908451e-07 1.5954552966e-06 8.6545899372e-07 2.4935830167e-06 -2.6233942499e-07 -8.758598548e-07 -2.3464905839e-06 5.6855764167e-07 
1.3702005717e-07 4.2113100258e-07 2.0310233117e-06 5.8358997432e-07 -3.8907403789e-07 2.1979986372e-06 4.7237606216e-07 -7.4307885736e-07 -6.2245185981e-07 
-1.4655530387e-06 -5.5937260677e-07 6.0844994378e-07 3.7310056182e-07 1.6123381756e-07 -6.5386275459e-07 -4.1844304388e-07 1.5780743349e-06 -1.8232095652e-07 
-1.6849048352e-06 -1.2523108924e-06 3.0064178902e-06 -5.9129233009e-07 -5.3826626109e-07 -1.2756517515e-07 1.1759788244e-06 4.5739021921e-07 2.8737804797e-06 
-2.7719914299e-07 8.3756055836e-07 1.192772012e-06 8.9502567865e-07 -5.6390018287e-07 -1.3353822061e-06 9.031589979e-07 1.1444578299e-08 -7.2877047264e-07 
-4.0341588887e-07 -4.5962134938e-07 -1.1650895773e-06 -2.8913415383e-07 -3.3862531969e-07 1.3788060703e-07 -9.8854140971e-07 -7.2040907354e-07 -4.2367962346e-07 
-1.51510341e-06 3.1537076641e-07 6.6388380236e-07 -6.3287001824e-07 -1.0478635293e-06 -3.8156165726e-07 -1.1019052391e-07 1.6480571812e-06 -1.8749817974e-06 
5.7113304608e-08 5.5139113991e-07 -3.1029239364e-07 8.0251163504e-07 2.5235779418e-07 -1.0728156429e-06 -4.1374803524e-07 2.7837952283e-07 -5.1854745671e-07 
-9.7397592114e-07 5.2491164078e-07 -3.8252582915e-08 9.2983469905e-07 3.5016343624e-07 -1.5715037981e-06 1.3418474062e-06 5.4867573143e-07 -1.257748099e-07 
-8.8235280684e-07 8.2301262493e-08 4.8869147766e-07 6.2783567771e-07 1.5815050853e-07 1.8169600631e-07 -5.3989805429e-07 -3.5904032849e-08 1.791907537e-08 
1.4019530897e-06 1.3930634604e-07 -4.3368522757e-07 
f 3 70 double
-0.00046972720944 0.00019392657252 -0.00017866765247 0.00012803813741 0.00029849920609 -6.296076387e-05 -0.0017251680296 -0.0002046991525 -0.0017982157853 
0.00082118750487 0.0004725607392 -0.00028435770642 0.00044878413103 0.00048939586986 -0.00058171185951 0.00067067305406 0.00036409392642 0.00055174513852 
0.00049491315575 -0.0005564244852 0.000215819719 -0.00072758196682 -1.1365395244e-05 0.00061623506328 0.00027820312487 0.000488817831 0.0001510910873 
-0.00043960983252 -0.00032303824031 -0.00011433875713 -9.7517785412e-05 2.7833008552e-05 0.00013081784035 0.00026807674 -2.7326641699e-05 -7.4885278592e-05 
-0.00054739081499 0.00012162336717 -0.0004971905063 -0.00069082628378 -0.00012752060565 0.00018903904354 -0.00054094346403 -0.0004492256729 0.00020869351837 
-0.0002000791418 0.0001711373401 -0.00017540012389 -0.0002705468636 -9.9755983652e-05 0.00011067231599 -0.00053116284526 7.2465775178e-05 0.0001571552199 
0.00020680129101 -0.0002107703276 -0.00023439003236 0.00017751433935 -6.9375934656e-05 -0.00019955092883 0.0001849774716 5.4731179854e-05 -1.3925167175e-05 
0.00065679570278 -0.00012610751442 -0.00020393954959 7.2960448604e-05 1.1550057002e-05 -0.0004330862895 8.4729949183e-05 3.6687523999e-05 -0.00020957595415 
0.00012391711997 0.00047296863185 0.00016875043831 2.9044207123e-06 -0.00015728209605 2.2955699712e-05 0.00012365165047 0.00029719357921 6.5501760906e-05 
-0.00038956636935 9.2163845964e-05 0.00021226967325 -0.00037648154129 0.00017093712231 0.00052686394299 0.00011683484363 -7.5670064375e-05 -9.798654247e-05 
-0.00010461403633 -0.00018035709633 -8.0213531251e-05 -4.8160665311e-05 0.00065627992357 -0.00015488433876 6.2746229442e-05 -5.0603843779e-05 -5.1935248419e-05 
-0.00017995011499 5.3440612794e-05 -5.5670843001e-05 -0.00030837117341 -9.6413633013e-05 -1.8146137556e-05 0.00037746151686 0.00032198030928 -0.00051731091595 
5.402985598e-05 -9.2243177174e-05 -0.00022674521603 4.194692376e-05 0.00024787844153 5.3250681519e-05 -9.4776894964e-06 5.4096755027e-05 -7.7013959024e-05 
-8.8311646354e-05 -0.00010943018524 -0.00027800928076 0.00027688234639 8.2637922774e-07 0.00035179679161 -6.9381544675e-05 0.0001616708212 -9.712844084e-05 
0.00036407375225 -1.2971755215e-05 1.8857310329e-05 0.00022746626315 -0.00032298081767 0.00029774805005 7.648158763e-05 0.00012845540197 -1.0823511917e-05 
0.00049435095291 0.0001370098488 0.00025567269531 8.6738783305e-05 -9.7677693964e-06 -9.3165215178e-05 -4.4057287611e-05 2.9861043989e-05 -0.00019013161779 
-7.2589681318e-05 -8.7287473042e-06 -4.1254740168e-05 -3.0869737493e-05 3.5244253391e-05 -9.3533928211e-05 -5.8970030341e-05 3.7284757617e-05 -4.7591286054e-05 
0.00016829687634 0.00011138571824 -5.1192990107e-05 -3.2260532584e-05 0.00012526678773 4.4634870931e-05 -0.00013784569586 5.4789129085e-06 -5.7516357006e-05 
-0.00021335635973 -0.00017916075235 0.00073123026856 4.8849348583e-05 0.00011091090023 5.7579896088e-05 -1.3791882416e-05 -6.3484614449e-06 -8.4600426008e-07 
-4.5046866233e-05 -7.6357648066e-06 -2.3641771733e-05 -7.1388128122e-05 9.4232148513e-06 1.5287994193e-05 6.3997436953e-05 4.7798897094e-06 3.3700417482e-05 
0.00010613360938 -6.532428662e-05 -7.5689056486e-05 1.9539978904e-05 1.321128373e-05 -2.8255187474e-05 -3.3706778395e-07 7.2083374343e-05 0.00015019069742 
4.4876163569e-07 2.1098204532e-05 5.5134776957e-05 -2.5934860351e-06 5.365182892e-05 -5.3034852772e-05 -5.0428427191e-06 -6.4457117579e-05 -9.7244677946e-06 
0.00027886980685 -7.1635361107e-05 -6.7845507638e-05 -3.4256172782e-05 0.00011436730587 -0.00010395008976 2.7288828269e-05 3.6936913498e-05 1.5688292865e-05 
3.2237860998e-05 -3.0854133014e-05 7.4697606555e-05 
radius 1 70 double
0.006 0.006 0.006 0.006 0.006 0.006 0.006 0.006 0.006 
0.006 0.006 0.006 0.006 0.006 0.006 0.006 0.006 0.006 
0.006 0.006 0.006 0.006 0.006 0.006 0.006 0.006 0.006 
0.006 0.006 0.006 0.006 0.006 0.006 0.006 0.006 0.006 
0.006 0.006 0.006 0.006 0.006 0.006 0.006 0.006 0.006 
0.006 0.006 0.006 0.006 0.006 0.006 0.006 0.006 0.006 
0.006 0.006 0.006 0.006 0.006 0.006 0.006 0.006 0.006 
0.006 0.006 0.006 0.006 0.006 0.006 0.006 
omega 3 70 double
1.9341549058e-05 0.00016350372264 0.00032974949363 -0.0013262768691 -0.00065668304578 0.00016346618071 -0.0005463056254 0.0018143876291 0.00087189916059 
-0.00050365777362 -0.0012950673547 -0.00051094839135 -0.00034772749115 -0.00037302940125 0.00026339486142 -0.00046740018495 0.00045031228364 -0.001550012194 
-0.0010246477686 0.0008903656761 -0.00015056003667 0.00055663931714 0.00069915029716 0.0010885810208 -0.0003338843269 -0.00051375624952 0.0015152757167 
-0.00056980546158 2.9026332755e-05 0.00050346108676 0.00041910658551 0.00065794824621 -0.00020382902992 -0.00092414291526 0.00072077901076 -0.00022745123333 
0.00037216976755 4.7977471642e-05 -7.8577352243e-05 -4.7555607532e-05 0.00092504764493 -0.0010830177444 -0.00089608690112 -0.00046273928901 -0.0010727412092 
-0.0011361752958 -0.0015933887158 -0.0016835285765 -0.00050338609668 -0.00043416441044 -0.00017928533686 0.0016497951052 0.0013915975837 -0.00013895886274 
0.00014625806946 3.994693861e-05 0.00027783340044 -7.7719235844e-05 -0.0004808459351 0.00048551203096 0.00016190258601 0.00013537228861 -6.1811598401e-05 
0.00086923844535 0.0011840417654 -1.7336129698e-05 0.00012961468624 0.0031018077299 6.7919575441e-05 0.00062247429843 0.00035690546306 0.00049053168892 
-0.00012339699582 0.00058808925747 0.00085486258658 -0.00061184267515 0.00080844153249 -0.00034500490426 0.00083714873644 -0.00014024006816 -8.7519578769e-06 
6.8089215769e-05 -0.0014848560048 -0.00035380840421 -0.00043306458631 -0.00013272126571 0.00047677176403 -5.8003686837e-06 0.00051990439494 0.00026226949351 
4.9036342426e-05 -0.00027158352569 0.00030031211742 -0.00013668462492 0.00075170532722 -6.5823638269e-05 0.00043750023323 6.5905439119e-05 -0.00014463973056 
0.00050826937231 0.0008871276995 -8.2833249199e-05 -0.0002166138187 -0.00036723883555 -0.0003747755761 -7.7183936159e-05 4.7269331108e-05 0.00017405758954 
0.00021054256858 0.00014413324141 -0.00051379246015 0.00013711418143 0.00026362746702 -0.00020262718077 0.001951443352 7.7728259337e-05 -0.00077702904285 
-0.00037236586934 0.00030099763924 -2.5813901962e-05 0.00045241749516 -0.000305917012 -0.00072251318622 9.4940119293e-05 6.4239035655e-05 6.4087613075e-05 
0.00039727261689 -0.0008928839742 -0.0001992881137 -0.00036226267339 -0.00019992464204 -0.00067653283018 -0.00056812088091 0.00043873031177 0.00026538062181 
0.00027924989469 0.0002901498348 4.5331957316e-05 -0.00012625107131 -6.6553834806e-05 2.8402980624e-05 -0.00012258124259 -0.00032139449642 -2.3424120723e-05 
0.00028902426668 -0.00010903980149 -0.00052687117541 3.6259415308e-05 1.6488549764e-05 -0.0004026242706 -0.0005033695337 0.0001204440258 -0.00026317095141 
-1.2430320456e-05 0.00031852010522 0.00015293695472 3.8550179293e-05 7.9118770304e-05 8.3143454242e-05 0.00059579484623 -0.00031455452824 -1.689982215e-05 
3.3131602352e-05 0.00078919631243 2.9841283279e-05 -0.00016415033657 0.00014328022307 -0.00026729649766 -0.00017515365516 -5.1632186807e-05 -4.4070965876e-05 
-0.00014496038153 -5.7524408244e-05 -6.4650755275e-05 -3.2944321076e-06 -2.2007303907e-05 -0.0002444763455 -0.00013445002895 -0.00027958293408 -0.00029861750423 
3.8827125078e-05 0.00017698108173 -5.2989307416e-06 8.9270288927e-05 3.1507235292e-05 -3.150463972e-05 2.1263803253e-05 -6.6144564616e-05 -0.00032608975894 
-0.00027793858975 0.00037773219386 -0.00025388490908 0.00057403006991 -0.00022066473662 0.0001144938009 0.00029217847979 -0.00016517289554 0.00033321913093 
-6.805365347e-05 0.00048981027864 -3.2486367119e-05 6.2503463118e-05 8.6590424212e-05 8.1876864382e-05 0.00016008057008 -0.00016542829382 -2.2453726862e-05 
0.00018769744253 -0.00023528273574 0.00030371675491 
