# vtk DataFile Version 4.2
Generated by LIGGGHTS
ASCII
DATASET POLYDATA
POINTS 70 float
-0.000325228 -0.0261434 0.0352279 -0.0149832 0.0210799 0.0479632 0.0191306 -0.0193362 0.0600075 
0.000336901 0.00592149 0.0588072 -0.00782656 -0.00741408 0.0627211 -0.0336155 0.00525217 0.069375 
0.0363398 0.0111615 0.0650465 0.0112574 0.0171885 0.0652814 -0.00877452 0.0280523 0.070081 
-0.0109787 -0.0235554 0.0715503 0.0225994 -0.0115983 0.0747615 -0.00835718 0.0273492 0.0820522 
-0.00691218 -0.0183296 0.0871472 0.00155133 -0.00149741 0.082627 -0.0234411 0.00765287 0.104139 
-0.00131971 0.00827606 0.0974302 0.0140649 0.018808 0.102101 -0.0279034 -0.0137173 0.104714 
-0.00278739 -0.0181624 0.120627 0.0229092 -0.0124254 0.124624 0.0380003 -0.0153173 0.125006 
-0.0131374 -0.00108706 0.119279 0.0272687 0.0180533 0.123831 -0.0138654 0.0285688 0.1171 
-0.0130022 -0.0380836 0.136341 0.00643653 -0.0312524 0.136671 0.0125366 -0.0103299 0.135557 
0.0314931 -0.00176728 0.135776 -0.0181999 -0.0283872 0.143802 -0.00866904 -0.0238964 0.13806 
0.0131371 -0.0339237 0.146259 0.0149352 0.00686163 0.145702 0.0257956 0.00759858 0.140657 
-0.00776401 0.0249631 0.138661 -0.027094 -0.0263823 0.153246 0.00201313 -0.032154 0.158114 
-0.00353121 -0.0191512 0.157666 0.0175449 -0.00848716 0.157562 -0.0329996 0.00882665 0.153443 
-0.0151206 0.0033143 0.149071 0.0322415 0.0027973 0.150679 -0.0193759 0.0210962 0.14994 
0.008204 0.0282124 0.159188 -0.000538925 0.0363134 0.157811 0.00969449 0.039844 0.150697 
-0.0088604 -0.0343435 0.16341 0.0104172 -0.0267315 0.164742 -0.0342153 -0.00501541 0.16362 
-0.000137058 -0.0014122 0.164741 0.0288715 -0.0109924 0.167247 -0.0353291 0.00684722 0.165044 
-0.0162839 0.00196268 0.16469 0.0195281 0.00240506 0.164309 0.000815903 0.0153321 0.170021 
0.0150599 0.0166938 0.168369 -0.0138121 0.0240943 0.160138 -0.0083419 -0.0285983 0.181 
-0.000516108 -0.0190545 0.181113 0.0110638 -0.0191157 0.177529 -0.0344979 -0.00700298 0.177638 
-0.0132936 -0.0112 0.175587 0.0163968 -0.00185081 0.175083 0.02814 -0.000499107 0.173018 
-0.0295486 0.00390026 0.178963 -0.000902616 0.00662032 0.181454 -0.00341138 0.020928 0.179758 
0.0243139 0.0144186 0.177785 0.00839904 0.0303749 0.176351 0.0322982 0.00053207 0.184226 
0.00684983 0.0156418 0.183035 
VERTICES 70 140
1 0 
1 1 
1 2 
1 3 
1 4 
1 5 
1 6 
1 7 
1 8 
1 9 
1 10 
1 11 
1 12 
1 13 
1 14 
1 15 
1 16 
1 17 
1 18 
1 19 
1 20 
1 21 
1 22 
1 23 
1 24 
1 25 
1 26 
1 27 
1 28 
1 29 
1 30 
1 31 
1 32 
1 33 
1 34 
1 35 
1 36 
1 37 
1 38 
1 39 
1 40 
1 41 
1 42 
1 43 
1 44 
1 45 
1 46 
1 47 
1 48 
1 49 
1 50 
1 51 
1 52 
1 53 
1 54 
1 55 
1 56 
1 57 
1 58 
1 59 
1 60 
1 61 
1 62 
1 63 
1 64 
1 65 
1 66 
1 67 
1 68 
1 69 

POINT_DATA 70
FIELD FieldData 7
id 1 70 int
44 208 510 598 557 411 372 458 587 
506 366 612 723 485 1047 875 972 835 
1168 1262 1563 1140 1063 894 1642 1274 1445 
1242 1483 1602 1884 1645 1687 1328 1519 2214 
2099 2118 2005 1335 1808 1875 1873 1747 1781 
1900 1990 2253 2175 2254 2200 2171 2147 2152 
2278 1946 2455 2457 2463 2412 2322 2430 2345 
2364 2460 2424 2304 2379 2461 2474 
type 1 70 int
2 2 2 2 2 2 2 2 2 
2 2 2 2 2 2 2 2 2 
2 2 2 2 2 2 2 2 2 
2 2 2 2 2 2 2 2 2 
2 2 2 2 2 2 2 2 2 
2 2 2 2 2 2 2 2 2 
2 2 2 2 2 2 2 2 2 
2 2 2 2 2 2 2 
i 3 70 int
0 0 0 0 0 0 0 0 0 
0 0 0 0 0 0 0 0 0 
0 0 0 0 0 0 0 0 0 
0 0 0 0 0 0 0 0 0 
0 0 0 0 0 0 0 0 0 
0 0 0 0 0 0 0 0 0 
0 0 0 0 0 0 0 0 0 
0 0 0 0 0 0 0 0 0 
0 0 0 0 0 0 0 0 0 
0 0 0 0 0 0 0 0 0 
0 0 0 0 0 0 0 0 0 
0 0 0 0 0 0 0 0 0 
0 0 0 0 0 0 0 0 0 
0 0 0 0 0 0 0 0 0 
0 0 0 0 0 0 0 0 0 
0 0 0 0 0 0 0 0 0 
0 0 0 0 0 0 0 0 0 
0 0 0 0 0 0 0 0 0 
0 0 0 0 0 0 0 0 0 
0 0 0 0 0 0 0 0 0 
0 0 0 0 0 0 0 0 0 
0 0 0 0 0 0 0 0 0 
0 0 0 0 0 0 0 0 0 
0 0 0 
v 3 70 double
1.0994844677e-06 -2.2089882814e-07 -6.4679320687e-06 -4.2412305138e-06 2.4160987784e-06 2.4985686774e-06 -1.6368611871e-06 -3.0007393079e-06 -6.9344355178e-06 
-5.7417305902e-06 -3.524983029e-06 6.548185537e-06 -2.3493846606e-06 -2.7972420526e-06 1.9112576437e-06 6.077015727e-07 -3.3325739383e-06 -4.5848610643e-06 
3.9101932944e-08 1.9622334836e-06 -1.3994039233e-06 2.6886257987e-06 1.6565310339e-06 -2.5989236177e-06 1.7542258835e-06 1.9759186012e-06 -1.6956183472e-07 
-2.0772451664e-06 1.9557454196e-06 -3.4168185018e-08 -6.2332185855e-07 1.1372894553e-06 9.3186547982e-07 4.313477624e-07 3.5173223731e-07 -1.9058495741e-06 
-8.918568642e-07 -2.0589422223e-06 -9.6159260146e-07 1.2214076146e-06 -1.6370949271e-06 -2.2963909214e-06 2.7949342088e-06 9.7451516017e-07 1.4386588906e-06 
1.4849612091e-06 -6.6936566256e-08 2.6782575443e-06 9.6387324966e-07 -8.4258051662e-07 6.6221858797e-07 -9.2303218673e-07 3.9455868667e-07 2.3759535529e-06 
-1.3959448695e-06 6.3193488979e-07 1.4443079309e-06 1.3769383396e-07 1.7348327222e-06 -1.4449855973e-07 3.0520665162e-07 -1.4832032869e-06 -1.3939540598e-06 
-2.908426271e-06 -1.8392877792e-07 1.7044429274e-06 -3.2469456397e-06 2.953560148e-06 3.1726764468e-06 1.7941746908e-07 1.0671927556e-06 5.708376056e-07 
2.2693962331e-06 6.8753381476e-07 1.2482725001e-06 -9.7126833832e-07 -1.2102972585e-06 1.1325467443e-06 1.6258926099e-06 -1.7845926355e-06 4.568153677e-06 
-5.0675493426e-07 1.2762749262e-07 9.0968010276e-07 4.4509976193e-07 4.4177985186e-07 -7.3516787893e-07 -1.5025708412e-07 -3.4228158532e-07 -1.3664609968e-06 
-2.0576999134e-09 -1.1743404307e-07 1.5036152518e-06 2.8094828797e-06 1.3732844767e-06 -2.8255660244e-06 1.966750334e-06 4.6720537403e-06 -1.5275632356e-06 
2.0583624685e-06 1.1810497837e-06 3.2538324629e-06 7.8553280003e-07 9.5029051648e-07 1.0455840374e-06 -1.9431481869e-06 -5.4855105722e-07 1.899211558e-06 
-1.0982511429e-06 -5.5128858859e-07 2.2703165064e-07 -4.7905965823e-07 2.1040010785e-07 -4.0923907621e-07 1.7121101124e-06 5.1062314401e-06 3.7505688596e-07 
-6.5845612884e-07 3.3820385669e-08 8.1661027899e-07 4.8670626275e-07 -2.6692101056e-06 2.2666092503e-06 2.3963836699e-07 2.8625656595e-06 4.9768513455e-08 
2.9753810013e-06 1.1808279752e-06 -1.7467795142e-06 1.3006603605e-06 -4.9207116404e-06 6.1154408624e-06 3.9153939285e-07 2.7128633645e-07 7.3513064937e-07 
-1.0418817905e-06 5.7380382647e-07 -1.4347658518e-06 4.2837631312e-07 -1.6405327264e-07 3.2520714863e-07 -2.3375471586e-06 9.2970788935e-07 1.4128731104e-06 
-8.189876935e-07 1.0152805766e-06 -1.6886822144e-06 3.6668063746e-07 9.6584823188e-07 2.9985948253e-07 -6.6746412541e-07 -2.4847032658e-07 9.6931994545e-07 
-1.1693287848e-07 3.2522684683e-07 -1.779155044e-06 -1.0265307128e-06 3.0632481113e-07 9.3717374438e-07 -1.073315341e-06 -1.1086292182e-06 1.9631958582e-07 
-8.7635408228e-07 2.6522380259e-08 1.6628900136e-06 2.9134610469e-07 -9.3028908362e-07 3.6335765831e-08 -8.2082191149e-07 2.1998525424e-07 -6.5880456682e-07 
-1.9484014181e-07 -5.5718840461e-07 7.9366323539e-07 2.7073611855e-07 -4.5540361461e-07 1.7910942622e-06 -2.9908200733e-07 8.4852487256e-07 5.8707468723e-07 
9.150805825e-07 1.4092615364e-07 6.4611792258e-07 7.0301766921e-07 1.9335354169e-07 4.2195935398e-07 -1.449765258e-06 9.6561347554e-07 1.5041952664e-06 
1.4826647999e-07 1.7258969354e-06 -1.1462812903e-06 9.506339018e-07 1.2913115664e-06 1.4714308224e-06 6.9740003718e-07 -1.2079868027e-07 1.130201341e-08 
1.2562410886e-06 8.9921792174e-08 1.4728769899e-06 -1.3027107135e-06 2.2757533415e-07 -5.1803038034e-07 1.1426759447e-06 3.5710931786e-07 1.0351758695e-06 
1.7950944207e-07 5.7381356945e-07 1.2975350414e-07 
f 3 70 double
0.00044713495748 -5.5960282493e-05 -0.0010791535037 -0.00031055393884 0.00074374436156 -0.00059115639607 0.00067238374525 -0.0001623755222 -1.4357131326e-05 
-0.0001991306233 0.00063015728268 0.00030591685771 5.3825232001e-05 -1.7046328468e-06 -2.5251805197e-05 0.0011427909078 0.00023534491638 0.00068485910876 
-0.00053305801103 4.7000321455e-05 -0.00019806077329 -0.00020310708913 -0.00013012709159 6.9490693522e-05 -0.00029145924557 0.00068069231204 -0.00056055866641 
0.00022114330102 0.00028875790699 -0.00015071082879 0.00030495068667 0.00046032180575 -0.00012674321686 0.00035800806094 -0.00025214569722 -0.00042811964336 
-0.00044697245054 6.2094621589e-05 -0.00051742715429 -0.00034566415228 -0.00018095851046 5.0530050768e-05 5.7958163013e-06 0.00078975111851 5.6097349865e-05 
-0.00018300341217 0.00059637132741 -0.00039658220625 0.00020071146705 -0.00044456578587 0.00065729427832 2.0100022837e-05 -0.00027933375248 0.00038818510866 
0.00022521526497 7.5610987857e-05 -0.00043260434186 1.3365211863e-05 9.3855272853e-05 0.00010772287371 3.4289260512e-05 -2.0201627233e-05 -0.00014659560392 
5.521347442e-05 0.00030986425496 0.00011067030795 1.0505054375e-05 -1.2817783451e-05 0.00030612483061 0.00015688833532 3.4603411403e-05 -0.00028574820813 
0.00011074980931 0.00035246230357 8.6612333575e-05 -1.4302107843e-05 -0.00024344437697 0.00012751887133 -9.0348288965e-05 7.097946719e-05 -0.00050386189591 
0.00058164407358 -5.2009020561e-05 -0.00010826949173 -0.00032648032227 8.3568734029e-05 0.00039128596941 9.6115114604e-05 -0.00013604986574 9.8318330792e-06 
-0.00015196321394 -0.00022995998658 5.2647653559e-05 -0.00014574609956 8.9769504268e-05 0.00014590564706 -5.2935444443e-05 -2.4921007811e-05 0.00044618018761 
0.00013307530823 -1.7070177526e-06 7.697719244e-05 0.00017158699185 5.0800772262e-05 -2.9708165352e-05 0.00030000186704 0.00020650324997 -0.00042665103259 
6.0504288259e-05 -0.0001112870839 1.7262990096e-05 -6.5419364429e-05 0.00022867327692 0.00011732452098 1.7822006958e-05 -0.0010325032568 -0.00015402854735 
-0.00015057974195 -0.00014206899414 -0.00011929901747 0.0002788351382 -0.00015422160888 6.7181456109e-05 -3.9527070182e-05 6.5553958886e-06 -3.3932948849e-05 
0.00011660095568 4.6607235553e-05 1.7335470234e-07 0.00020132113166 -0.00012358003039 7.3226250745e-05 0.00011683077354 0.00018985669175 0.00018341755687 
0.00048898522028 0.00015236473043 0.00027806253743 1.4366827275e-05 2.8317983604e-05 6.3741077513e-05 2.4649679236e-05 -3.4427173156e-05 -0.00010105642762 
-3.8780999609e-05 -0.0001894670348 0.00041891110302 4.2027331801e-05 4.4477306803e-05 -0.00011333947803 -2.4236888342e-05 7.9136876749e-05 7.0260530629e-05 
0.00015520968091 6.3737319793e-05 -8.0129809585e-05 1.0258447329e-05 -4.1778405174e-05 -1.9953818491e-05 -7.2385670791e-05 -2.2234485989e-05 -0.00034676381377 
-7.1356233044e-05 -0.0001363968198 0.0002495110558 -0.00011487030124 6.7099223978e-05 -0.00017852574937 5.7660919124e-07 -3.6411684061e-05 3.0139956484e-05 
-4.6486760408e-05 -3.2915867506e-05 -1.2120829647e-05 -2.476156644e-05 1.3910741893e-05 -6.654688263e-06 5.7921792452e-05 3.2651157954e-06 -2.1304520507e-05 
0.00012349433445 -5.7339141975e-05 -8.7644246556e-05 2.4578309184e-06 1.5538404433e-05 8.2112012684e-07 -3.5411599127e-05 -1.5188116466e-05 8.1118698709e-05 
5.6942036227e-05 7.5582491462e-05 -4.17396701e-05 4.170098315e-06 0.00019298448431 -2.923010116e-05 4.651613039e-05 -9.1159272908e-05 5.62046517e-05 
0.00014369810874 1.0149476128e-05 2.5131521714e-05 7.3569498162e-05 -3.7029277864e-05 2.8539174729e-05 4.0553224465e-06 2.1047896306e-05 4.8539585289e-06 
4.2506805967e-05 -8.537650169e-06 0.00010144234133 
radius 1 70 double
0.006 0.006 0.006 0.006 0.006 0.006 0.006 0.006 0.006 
0.006 0.006 0.006 0.006 0.006 0.006 0.006 0.006 0.006 
0.006 0.006 0.006 0.006 0.006 0.006 0.006 0.006 0.006 
0.006 0.006 0.006 0.006 0.006 0.006 0.006 0.006 0.006 
0.006 0.006 0.006 0.006 0.006 0.006 0.006 0.006 0.006 
0.006 0.006 0.006 0.006 0.006 0.006 0.006 0.006 0.006 
0.006 0.006 0.006 0.006 0.006 0.006 0.006 0.006 0.006 
0.006 0.006 0.006 0.006 0.006 0.006 0.006 
omega 3 70 double
-0.00035467331488 0.0019607393499 0.0015315349688 -0.00066829760413 -0.00092914700058 0.00075439533911 0.00088744904626 0.0012399593597 -0.0012897538287 
-0.0038249390174 -0.0011207510302 -0.00093641826828 -0.00089725341955 -0.00015507054383 0.00050512080831 0.00058844763322 -0.0018152711097 0.00075446298374 
-0.00062317421229 -0.00020309648211 -0.00013943040418 -0.0011036762377 0.00049193031602 0.00059177211323 -0.000769773905 0.00085665124271 0.0001121883067 
-0.00031619433595 0.00054828417713 -0.00052041651284 -0.00031762350201 0.00069847888136 -0.00050964450745 -0.0003364406731 0.0003871308643 0.00038826584252 
0.00035623186603 -0.00062352789669 0.0011548161155 -0.00041904366545 5.3661456446e-05 -0.00018841926407 0.00045628959326 -0.00078079667229 0.0006842423804 
-0.0010682220352 7.7359588939e-05 -0.00098479825588 0.00090914527821 -0.00020245441941 -4.4905487892e-05 0.00022379040774 -0.00061345409161 0.0002478091472 
0.00076676305778 -0.00015884244648 -0.00049851916969 -0.00027913608029 -0.00011150443106 0.00055464273328 -2.7423353096e-05 -0.0012393049245 5.2157895765e-05 
-4.9019880084e-05 -0.00091502133316 -0.00022097270918 -0.00040311779141 -0.0030374376529 -0.0012611289619 -0.00047469894823 -6.350490334e-06 0.00026917096367 
1.8072791936e-05 0.00052695836954 0.0013872620977 -0.00059112172104 0.0010578563213 -0.00018897391951 0.0008800320447 -6.7860486735e-05 -0.00021728988725 
0.0011747768745 -0.00038005675593 0.00080368299356 -0.00020216255467 0.00035381202382 0.00042900587607 -3.9195180914e-05 4.486120114e-05 0.00052983271794 
-1.5702907412e-06 -0.00022618474506 -0.00014910084248 0.00074818596473 -8.9665659828e-05 -6.9742307056e-05 -0.00034565772358 0.0011181436145 0.00022896292669 
-0.00041945982864 -0.0010985713835 -0.00016523418143 0.00015226344597 -0.00030810808503 -0.00022388231364 -0.00021861127099 0.00079135382226 0.00055912760527 
-0.00015873334635 0.00049847864892 -0.00028458549762 0.00024612466761 -2.018275924e-05 9.2164589702e-05 0.00054541108975 6.6146402372e-05 0.00015630551815 
0.00018612896263 7.1680666313e-05 9.6295799645e-06 -0.00040296495774 -0.00045537168939 0.00047857996842 -3.2400358097e-06 -0.00012908210197 0.00027160196404 
-0.00011830768727 -0.0005977972268 -0.00016700758561 -2.6054221028e-05 -0.00059224007499 -0.0018805023552 0.00092973059893 -0.0012569347698 -0.00043540116322 
6.3752846377e-05 0.00078271060315 -0.00013534253304 -3.9961050326e-05 -5.3467938793e-05 0.00016711684763 0.00015714734182 0.00045461781653 0.00017614187526 
0.00067231262158 0.00029754909945 0.00021711181892 0.00024317484588 -4.0445065796e-05 -0.00042657133145 1.5619283564e-05 9.2543529448e-05 8.8427680165e-05 
0.00010115091616 -0.000242065576 0.00039771296866 8.2210233084e-05 2.7708654929e-05 0.00013397729963 0.00036400911569 0.00044929161395 -9.9060657944e-06 
-5.8713290296e-05 0.00047750037977 0.0003353823296 -0.00057397735677 6.5208904963e-05 -2.4715509663e-05 -0.00010544113373 -7.4926536194e-05 6.0769958584e-06 
6.4061923843e-05 -5.5010346555e-05 -0.00011585258724 6.1793585724e-05 0.00032470967755 0.00016711589242 5.2583625183e-05 0.00012969175619 -0.00029425185383 
9.4305529306e-05 -4.1340944926e-05 -0.00011262979736 -0.00021208271966 -7.6946207274e-05 2.7740939423e-05 0.00018527411158 -3.4346837366e-06 -0.00012672522972 
2.3535320344e-05 3.4626443658e-05 -7.139947578e-05 -4.2757397345e-05 -4.3350865764e-05 3.839937713e-05 4.9653584111e-05 -0.00033721409862 0.00030099772135 
0.00011240694076 -7.8663290697e-05 -2.2772258779e-07 0.00018180493074 1.6869559203e-05 9.8224247394e-05 0.00025073930312 -0.00011138234984 7.6972881837e-06 
0.00014739313637 4.5122175668e-05 -5.1707107768e-05 
