# vtk DataFile Version 4.2
Generated by LIGGGHTS
ASCII
DATASET POLYDATA
POINTS 500 float
-0.00888165 0.00614362 0.0770412 -0.00469672 -0.0371356 0.0872095 -0.0100212 -0.0268572 0.0808331 
0.00346928 -0.0325558 0.0837317 0.0147569 -0.0281548 0.0890737 -0.029379 -0.0135722 0.0904247 
-0.0220682 -0.0194221 0.0833522 -0.0023525 -0.0184747 0.0858274 0.00548241 -0.0171804 0.0837933 
0.0136727 -0.0197615 0.0785757 0.0239182 -0.0126056 0.0884251 -0.0242805 -0.00267209 0.083818 
-0.0198525 -0.00999272 0.0889594 -0.0090823 -0.00616564 0.0813976 -0.00275622 -0.0038373 0.0870553 
0.00699685 -0.00388535 0.083313 0.0157991 -0.00590923 0.087281 0.0284689 -0.00294818 0.0811944 
-0.0303533 0.00755978 0.0881452 -0.0195582 0.00599177 0.0899434 -0.00950037 0.00720608 0.0858714 
0.00301969 0.00487415 0.0875873 0.014465 0.00330924 0.0800323 0.022159 0.00715352 0.0876694 
-0.0315526 0.0149536 0.085172 -0.00226961 0.0145127 0.0870065 -0.000593622 0.0231977 0.0885476 
0.00892138 0.0142662 0.0881475 0.0299418 0.0196618 0.0852827 -0.0185946 0.0281495 0.0896766 
-0.00650002 0.0342175 0.0899408 0.00815065 0.0279731 0.084226 0.00131588 0.0359643 0.0902178 
-0.0232634 -0.0272426 0.0949634 -0.0127973 -0.0345034 0.0922195 -0.016836 -0.0259221 0.101429 
-0.00251034 -0.0310112 0.10154 0.00590971 -0.0345549 0.0938015 0.00783471 -0.0233216 0.0952843 
0.0203527 -0.027881 0.0948683 0.0133958 -0.032769 0.0997446 -0.0292509 -0.018547 0.0989133 
-0.0153185 -0.0154004 0.0984056 -0.00363098 -0.013859 0.0969479 -0.00966113 -0.0219636 0.0964297 
0.00457248 -0.0139463 0.0978248 0.014737 -0.0188721 0.0961368 0.0260154 -0.0226604 0.0917581 
0.0328951 -0.0121344 0.0909362 0.0263081 -0.0150199 0.0971514 -0.0354337 -0.00639972 0.0936294 
-0.0232164 -0.00901302 0.0963767 -0.0176356 -0.0019762 0.0930626 -0.0154975 -0.00757336 0.100173 
0.00474041 -0.00794944 0.090549 0.0080486 -0.000655708 0.0905675 0.0174999 -0.00932377 0.0944599 
0.0347045 -0.000805038 0.0946395 0.0261446 -0.00654002 0.0941427 0.032887 -0.0122308 0.101934 
-0.0378192 0.0081363 0.0965295 -0.0260145 0.00204255 0.093624 -0.0348678 0.000224741 0.100991 
-0.0263344 0.00816293 0.100003 -0.0170764 0.00613125 0.0980678 -0.010538 0.00126833 0.0985712 
0.00446299 0.00904967 0.0969732 0.016636 0.000553286 0.0926297 0.0130363 0.00846966 0.0982547 
0.0347591 0.0117423 0.0959675 -0.0254296 0.0234627 0.0904104 -0.0336444 0.0174548 0.0999464 
-0.0187388 0.0175817 0.0938351 -0.0169241 0.022259 0.100275 -0.0105232 0.0227376 0.0909632 
-0.0104223 0.0153439 0.100136 0.0134945 0.0211532 0.0950981 0.0242151 0.0129414 0.0939542 
0.0282566 0.0203532 0.0931552 -0.0230099 0.0300971 0.096757 -0.0102512 0.0278074 0.0972091 
0.00825056 0.0267922 0.101155 0.021109 0.0256945 0.0945074 0.00127075 0.03652 0.0998716 
-0.00369231 -0.0370264 0.106684 -0.0274353 -0.0244845 0.109891 -0.0144918 -0.0326988 0.110512 
-0.00587493 -0.0297634 0.111024 0.00561246 -0.025563 0.10301 0.00600895 -0.0345404 0.103402 
0.00966475 -0.0291064 0.112803 0.014454 -0.0249154 0.102769 0.0210185 -0.0251326 0.110417 
0.0258243 -0.0261093 0.103909 0.0297139 -0.0247267 0.112478 -0.0314392 -0.0169306 0.111591 
-0.0212231 -0.0129729 0.105525 -0.018431 -0.0199172 0.112212 -0.00242025 -0.0215399 0.102286 
-0.00752344 -0.0121747 0.104164 -0.00848155 -0.0194856 0.109637 0.00917002 -0.0149463 0.111176 
0.00402796 -0.0218053 0.110491 0.0189015 -0.016902 0.10708 0.0279772 -0.0165046 0.107055 
-0.0342247 -0.0105513 0.10524 -0.0322071 -0.00306797 0.108161 -0.0166949 -0.00461523 0.111202 
-0.0085694 -0.00208825 0.108662 0.000467078 -0.0039891 0.103704 0.00558568 -0.00623188 0.111458 
0.0111731 -0.00560998 0.102619 0.0156885 -0.00883028 0.10861 0.0221281 -0.0052092 0.112548 
0.0263713 -0.00161635 0.104173 0.0358395 -0.00285185 0.107751 -0.0233785 0.000867588 0.109426 
-0.0324565 0.00581991 0.107993 -0.00131016 0.00472587 0.10273 -0.00890555 0.00847071 0.107517 
0.0153429 0.000949559 0.107463 0.0135806 0.00949648 0.108508 0.0249504 0.00655956 0.10192 
0.026791 0.0109142 0.109454 0.0254669 0.00216054 0.111665 0.0356787 0.00533588 0.107389 
-0.0231627 0.0158537 0.109884 -0.0153333 0.0119197 0.11207 -0.00136543 0.0170095 0.103919 
-0.0104704 0.0177875 0.107801 0.00778346 0.0159023 0.101994 0.0170434 0.0202716 0.102471 
0.0312346 0.0188803 0.106463 -0.0304403 0.0252411 0.109333 -0.0185571 0.0308455 0.112008 
-0.00138832 0.0265801 0.104025 -0.00910399 0.0292558 0.107713 -0.000761994 0.0342079 0.112988 
0.0101129 0.0249735 0.110723 0.0162283 0.0291881 0.102268 0.0228717 0.0262848 0.105846 
0.0129489 0.0356433 0.107184 -0.00127049 -0.0365632 0.114944 -0.0163289 -0.0331754 0.118725 
-0.00757682 -0.0261762 0.120828 0.00368956 -0.0258874 0.120448 0.00843172 -0.0345204 0.120021 
0.0159225 -0.0310294 0.117853 -0.0264745 -0.012348 0.1182 -0.0257152 -0.0193889 0.123966 
-0.0156359 -0.011775 0.121974 0.000346295 -0.0118928 0.115071 0.00326166 -0.0172363 0.121814 
0.0169889 -0.013959 0.114782 0.0126556 -0.0195937 0.12309 0.0295626 -0.0137364 0.115095 
0.0243362 -0.0214609 0.121411 -0.0345991 -0.00223022 0.1175 -0.0194343 -0.00474571 0.121757 
-0.0067971 -0.00891796 0.113065 0.0103178 -0.0106966 0.118347 -0.000289173 -0.0038137 0.122045 
0.0197035 -0.00945325 0.120884 0.0341516 -0.00403495 0.116218 0.0297217 -0.00895419 0.122225 
0.0305606 -0.000199207 0.123415 -0.0373738 0.0116428 0.114408 -0.0255457 0.0093966 0.117949 
-0.0269086 0.000573112 0.117675 -0.0191625 0.00439788 0.120845 -0.0102927 0.00213723 0.117704 
-0.0067411 0.0107907 0.115605 -0.000596946 0.00483109 0.116587 0.00761019 0.00451746 0.115009 
0.00392899 0.00898396 0.123038 0.0161503 0.00261972 0.115535 0.0213274 0.00862379 0.120322 
0.0292522 0.00631465 0.11742 -0.0279574 0.0159146 0.122231 -0.0125498 0.0157511 0.119326 
-0.0139627 0.0234459 0.116452 -0.00514382 0.0177403 0.123554 0.00511821 0.0216728 0.117424 
0.00221423 0.0124733 0.115832 0.0184397 0.0201445 0.115998 0.0155718 0.0125738 0.115687 
0.0251724 0.0159944 0.117178 -0.0241742 0.0241725 0.116076 -0.0174809 0.035099 0.121616 
-0.00407347 0.0243597 0.116223 0.0198926 0.0300694 0.119382 -0.00210287 0.0366991 0.121184 
0.00796818 0.038096 0.117455 -0.0241212 -0.0282307 0.129317 -0.0118296 -0.0280746 0.134204 
-0.00283981 -0.0307286 0.129942 -0.0101722 -0.0340883 0.126232 0.0047777 -0.0347839 0.131236 
0.0208761 -0.0279703 0.125177 0.0126555 -0.0282148 0.127618 0.0275565 -0.0238704 0.132534 
-0.0334373 -0.0130331 0.126861 -0.0307227 -0.0197137 0.130763 -0.0154939 -0.0196193 0.128279 
-0.00461587 -0.0180963 0.123788 -0.0114118 -0.0155964 0.133893 -0.00723817 -0.0220365 0.130858 
0.00562482 -0.0204533 0.131516 0.00316965 -0.0123423 0.129667 0.0148999 -0.0173045 0.132603 
0.0259963 -0.0166002 0.127655 -0.0314617 -0.00310786 0.126289 -0.0243583 -0.0109764 0.126876 
-0.0120484 -0.000255539 0.12558 -0.0213478 -0.0026984 0.130445 -0.0133104 -0.00409919 0.132629 
-0.00666692 -0.00905794 0.127159 0.000122206 -0.00275674 0.131146 0.00903978 -0.00799877 0.125983 
0.0203907 -0.00226439 0.124962 0.0349881 -0.00374025 0.131026 -0.0289735 0.00752895 0.125475 
-0.0351804 0.000120822 0.133537 -0.0220583 0.00633906 0.130142 -0.0110527 0.0101483 0.126591 
-0.00394615 0.00806311 0.130324 0.00787729 0.00977026 0.131707 0.00880448 0.0012438 0.134824 
0.0129225 0.00176898 0.126284 0.0278839 0.00410229 0.13115 0.0354887 0.00583968 0.126748 
-0.0303931 0.0217017 0.129548 -0.0189668 0.0152216 0.125542 -0.0177398 0.0191301 0.134752 
-0.00785014 0.017991 0.131239 -2.03127e-05 0.0151924 0.129398 0.011401 0.0195131 0.133767 
0.0151892 0.0120196 0.128706 0.0182767 0.0194388 0.125041 0.0311085 0.0138645 0.123988 
0.0319935 0.0139545 0.133902 0.023322 0.0116068 0.131659 -0.0205692 0.0236393 0.127542 
-0.0136676 0.0258294 0.13161 -0.0114359 0.028818 0.123803 0.0120505 0.0257516 0.125199 
0.00133675 0.0259873 0.127536 0.00720209 0.0292625 0.132058 0.000871513 0.0351326 0.133972 
0.0154571 0.0341344 0.128762 0.0241852 0.0245376 0.127133 -0.00712941 0.0352334 0.131842 
-0.0214808 -0.0248266 0.119705 -0.0122587 -0.0190938 0.120456 0.00580933 0.0194315 0.125543 
0.0191893 -0.0081373 0.135611 0.0252195 0.0239947 0.118351 0.0168379 0.00599761 0.136552 
-0.00150756 0.02663 0.135937 -0.00813231 0.00145676 0.136261 -0.0189419 -0.0221758 0.136291 
0.00214539 0.00563318 0.136395 0.0292325 -0.00230747 0.13663 -0.0141102 0.010392 0.136668 
-0.00239534 0.0151604 0.137024 0.00121649 -0.00844763 0.137049 -0.0328576 -0.0107764 0.137274 
-0.0241645 -0.0282294 0.145091 -0.0129966 -0.0246254 0.145934 -0.000927146 -0.0333313 0.14256 
-0.00355435 -0.0254524 0.144339 0.00397553 -0.0254562 0.139776 0.0107494 -0.0346079 0.141013 
0.0192456 -0.024136 0.138271 0.0181491 -0.0354466 0.145813 -0.0310799 -0.0168999 0.14261 
0.00757817 0.00636557 0.180898 -0.0180245 -0.0156068 0.141228 -0.00698401 -0.0166695 0.140588 
0.00766964 -0.0161451 0.140281 0.0235327 -0.0195772 0.144815 0.0334867 -0.0228035 0.143668 
-0.00919227 -0.0145318 0.166478 -0.0247426 -0.00245862 0.138836 -0.0163876 -0.00624588 0.14022 
-0.0233835 -0.00880408 0.145648 -0.0077722 -0.0088217 0.137654 -0.00589767 -0.00191705 0.146276 
0.0118754 -0.00717269 0.138994 0.018092 -0.0116108 0.143475 0.0165421 -0.00241974 0.152506 
0.0220947 -0.00166591 0.143709 0.0257623 -0.0114898 0.139862 0.0357562 -0.00776968 0.139041 
-0.0296352 0.0101628 0.143502 -0.0348022 0.0010986 0.14526 -0.02017 0.0049511 0.138032 
-0.0180794 -0.0211573 0.170228 -0.00167018 0.00875378 0.145877 0.0219513 -0.023884 0.177493 
0.00549251 0.00502978 0.145444 -0.00605822 0.0194415 0.185759 0.0143614 0.000539942 0.142161 
0.0160918 0.00892085 0.144778 0.0270469 0.0106748 0.14294 0.0360123 0.00312829 0.13836 
-0.0324367 0.0171466 0.139719 -0.022796 0.0136648 0.138738 0.014453 0.0308986 0.185648 
-0.0110361 0.0145096 0.143974 0.00658155 0.0136285 0.143175 0.00805946 0.0225879 0.143004 
0.0154015 0.0167225 0.143053 0.0246765 0.0173293 0.137559 -0.0271726 0.0239077 0.137863 
-0.0237007 0.0305416 0.142086 -0.0261735 -0.00863712 0.167187 -0.00866782 0.0264366 0.14134 
0.005811 0.0329175 0.140316 0.0140576 0.0284421 0.142512 0.0238336 0.0252853 0.139234 
-0.0050363 0.0373231 0.139714 0.0019343 -0.0354571 0.151626 -0.0158154 -0.0326888 0.15391 
-0.021457 -0.0246365 0.152417 -0.00736078 -0.0346773 0.152153 -0.00781374 -0.0254308 0.152093 
-0.00025136 -0.0258839 0.154802 0.00651962 -0.0233986 0.150385 0.0229561 -0.0279274 0.153136 
0.0118838 -0.0301012 0.152497 -0.0244002 -0.0170063 0.151458 -0.0128157 -0.0168236 0.150758 
0.00183358 -0.0180184 0.146085 0.004117 -0.0143647 0.155301 0.0131913 -0.0148611 0.148955 
0.0166928 -0.0233067 0.150497 0.0287717 -0.0201694 0.152183 -0.0371049 -0.00335574 0.151958 
-0.0343024 -0.0103678 0.149051 -0.0322469 -0.0117749 0.15746 -0.0179305 -0.000222556 0.154853 
-0.0197125 -0.0111324 0.155441 -0.00259808 -0.0113601 0.15212 -0.00625443 -0.000704998 0.15533 
-0.0114289 -0.0099455 0.157034 0.00707772 -0.00546539 0.148438 0.0170537 -0.0095784 0.157087 
0.0297466 -0.00829504 0.147801 0.0348333 -0.0020324 0.146588 0.0244428 -0.00505163 0.154039 
0.0378967 -0.0105906 0.156404 -0.0247879 0.00675139 0.149817 -0.0334141 0.00995329 0.153407 
-0.0138242 0.00211528 0.148234 -0.00742589 0.00677798 0.152402 0.00944957 0.0104891 0.149948 
0.000941011 0.00848507 0.153503 0.0160009 0.00502843 0.156044 0.027165 0.00257488 0.151141 
0.0234893 0.00934516 0.153904 0.0355373 0.00558439 0.152241 -0.0296532 0.0183881 0.153861 
-0.0170908 0.0188927 0.150493 -0.0135535 0.0129473 0.155038 -0.00254826 0.0172499 0.145579 
-0.00892637 0.0182651 0.151238 -0.00151985 0.0213198 0.156076 0.00672892 0.0218139 0.153418 
0.0165468 0.0216855 0.149909 0.0235915 0.0188935 0.145793 0.0327481 0.0139804 0.15098 
-0.0233602 0.0251995 0.153907 -0.0136452 0.0263055 0.155934 -0.00296204 0.0275845 0.148424 
0.00666438 0.031442 0.14865 0.0187915 0.0348065 0.152402 0.025215 0.0255092 0.15315 
-0.0077259 0.0364183 0.147915 -0.0247912 -0.0253786 0.16555 -0.016938 -0.0313665 0.16353 
-0.0062681 -0.0340092 0.160375 0.0089083 -0.0308936 0.162905 0.0192103 -0.0297208 0.168812 
-0.0235455 -0.017456 0.163336 -0.0331599 -0.0143075 0.166089 -0.0156668 -0.0175706 0.159829 
-0.0179294 -0.011386 0.164662 -0.00347175 -0.0189183 0.160982 0.010528 -0.0218795 0.162565 
0.0171027 -0.0170585 0.161393 0.0270528 -0.0127636 0.1587 0.0263825 -0.0232555 0.165741 
0.0328403 -0.0183614 0.166334 -0.0357743 -0.00569154 0.161775 -0.0267681 -0.00256738 0.156693 
-0.00852061 -0.00368131 0.163569 0.00041112 -0.00354795 0.16374 0.0101503 -0.00350528 0.163311 
0.0296196 -0.00522918 0.161704 0.0370652 -0.000201075 0.160163 -0.026422 0.00923394 0.163211 
-0.0343434 0.00285007 0.157539 -0.0204417 0.00310597 0.162296 -0.0122828 0.00359655 0.161469 
0.000410273 0.00773842 0.161891 0.00897628 0.00585377 0.166596 0.0118573 0.0120386 0.160513 
0.0268938 0.00257587 0.161014 0.0377659 0.00902023 0.159897 -0.029288 0.0207485 0.166368 
-0.0156464 0.0181575 0.164174 -0.0225546 0.0164543 0.159572 -0.00563597 0.0146977 0.1591 
-0.00914903 0.0227005 0.168688 0.00392156 0.014477 0.158401 0.00954897 0.0198696 0.160671 
0.0187181 0.017742 0.157132 0.0187921 0.0133101 0.166159 0.027665 0.0184967 0.158007 
-0.0120358 0.0336811 0.161094 -0.0199424 0.0288796 0.167581 -0.000259891 0.0315939 0.158878 
0.00610997 0.0270885 0.160917 0.0161544 0.0256071 0.166763 0.0152154 0.0335224 0.159537 
-0.00909472 -0.0277576 0.169558 -0.00279084 -0.025654 0.175106 0.00563883 -0.0281107 0.174552 
5.5056e-05 -0.0346743 0.174416 0.0135018 -0.0237538 0.173667 0.0131783 -0.0329226 0.174147 
-0.0117117 -0.0208898 0.176552 -0.019455 -0.019666 0.180202 -0.00959535 -0.0128852 0.17866 
0.00569609 -0.0178282 0.169761 0.0142931 -0.0154206 0.171747 -0.02314 -0.00746033 0.177149 
-0.0305543 -0.00373409 0.171777 -0.0144329 -0.00669982 0.175756 -0.00141456 -0.00892951 0.171605 
-0.00364305 -0.00763002 0.180256 0.00639206 -0.00867106 0.169146 0.00942457 -0.00118811 0.177354 
0.0205722 -0.00248302 0.170794 0.0291448 -0.00283546 0.179603 0.0328527 -0.00414869 0.169202 
0.0237323 -0.0109887 0.174354 -0.0351231 0.00578001 0.174329 -0.0249893 0.00778601 0.17095 
-0.0272508 0.00230798 0.178115 -0.0189774 0.000349205 0.170958 -0.00747901 0.0087121 0.178859 
0.000152753 0.000746053 0.172421 0.001756 0.0102131 0.171363 0.0296311 0.0101144 0.169401 
0.0232173 0.00645131 0.17287 0.0325887 0.00430613 0.178252 -0.0234842 0.0207362 0.173365 
-0.0324475 0.0145482 0.177861 -0.0172076 0.0119766 0.169584 -0.0152044 0.0198608 0.174828 
-0.00200187 0.0189075 0.169865 -0.00641529 0.0162777 0.176287 0.00490892 0.0217794 0.173676 
0.0204924 0.015619 0.177631 0.0133285 0.0117446 0.1741 0.0276893 0.0185186 0.170256 
-0.00122056 0.0269815 0.173903 -0.0102345 0.0331267 0.169105 -0.00765975 0.0255771 0.178884 
0.0238269 0.02589 0.172328 0.0140957 0.0260717 0.177188 0.00706201 0.036885 0.169404 
-0.011897 -0.0328462 0.180944 -0.0231777 -0.0271487 0.181592 -0.028846 -0.01483 0.182527 
0.00598669 -0.0216701 0.182507 0.0159922 -0.0187379 0.183808 0.0266402 -0.0188189 0.181882 
-0.0347194 -0.00861822 0.182506 -0.0123599 -0.000360908 0.181707 0.00466904 -0.00744258 0.183081 
0.0221668 -0.00227799 0.184639 0.0316482 -0.00953217 0.184461 -0.0342333 0.000539752 0.184047 
-0.0191961 0.0108975 0.184539 -0.00165168 0.000135273 0.185238 0.0156033 0.00469042 0.184087 
-0.0267113 0.0229209 0.184342 0.0114963 0.0184277 0.184042 0.0304645 0.0166474 0.183258 
-0.0130497 0.0333736 0.183121 -0.0183955 0.026905 0.181672 -0.0029159 0.032517 0.182015 
0.00559478 0.0313839 0.181051 0.00125801 0.023454 0.184432 0.000678668 -0.0336269 0.185643 
-0.00383764 -0.0192951 0.181317 -4.4342e-05 -0.025256 0.165386 
VERTICES 500 1000
1 0 
1 1 
1 2 
1 3 
1 4 
1 5 
1 6 
1 7 
1 8 
1 9 
1 10 
1 11 
1 12 
1 13 
1 14 
1 15 
1 16 
1 17 
1 18 
1 19 
1 20 
1 21 
1 22 
1 23 
1 24 
1 25 
1 26 
1 27 
1 28 
1 29 
1 30 
1 31 
1 32 
1 33 
1 34 
1 35 
1 36 
1 37 
1 38 
1 39 
1 40 
1 41 
1 42 
1 43 
1 44 
1 45 
1 46 
1 47 
1 48 
1 49 
1 50 
1 51 
1 52 
1 53 
1 54 
1 55 
1 56 
1 57 
1 58 
1 59 
1 60 
1 61 
1 62 
1 63 
1 64 
1 65 
1 66 
1 67 
1 68 
1 69 
1 70 
1 71 
1 72 
1 73 
1 74 
1 75 
1 76 
1 77 
1 78 
1 79 
1 80 
1 81 
1 82 
1 83 
1 84 
1 85 
1 86 
1 87 
1 88 
1 89 
1 90 
1 91 
1 92 
1 93 
1 94 
1 95 
1 96 
1 97 
1 98 
1 99 
1 100 
1 101 
1 102 
1 103 
1 104 
1 105 
1 106 
1 107 
1 108 
1 109 
1 110 
1 111 
1 112 
1 113 
1 114 
1 115 
1 116 
1 117 
1 118 
1 119 
1 120 
1 121 
1 122 
1 123 
1 124 
1 125 
1 126 
1 127 
1 128 
1 129 
1 130 
1 131 
1 132 
1 133 
1 134 
1 135 
1 136 
1 137 
1 138 
1 139 
1 140 
1 141 
1 142 
1 143 
1 144 
1 145 
1 146 
1 147 
1 148 
1 149 
1 150 
1 151 
1 152 
1 153 
1 154 
1 155 
1 156 
1 157 
1 158 
1 159 
1 160 
1 161 
1 162 
1 163 
1 164 
1 165 
1 166 
1 167 
1 168 
1 169 
1 170 
1 171 
1 172 
1 173 
1 174 
1 175 
1 176 
1 177 
1 178 
1 179 
1 180 
1 181 
1 182 
1 183 
1 184 
1 185 
1 186 
1 187 
1 188 
1 189 
1 190 
1 191 
1 192 
1 193 
1 194 
1 195 
1 196 
1 197 
1 198 
1 199 
1 200 
1 201 
1 202 
1 203 
1 204 
1 205 
1 206 
1 207 
1 208 
1 209 
1 210 
1 211 
1 212 
1 213 
1 214 
1 215 
1 216 
1 217 
1 218 
1 219 
1 220 
1 221 
1 222 
1 223 
1 224 
1 225 
1 226 
1 227 
1 228 
1 229 
1 230 
1 231 
1 232 
1 233 
1 234 
1 235 
1 236 
1 237 
1 238 
1 239 
1 240 
1 241 
1 242 
1 243 
1 244 
1 245 
1 246 
1 247 
1 248 
1 249 
1 250 
1 251 
1 252 
1 253 
1 254 
1 255 
1 256 
1 257 
1 258 
1 259 
1 260 
1 261 
1 262 
1 263 
1 264 
1 265 
1 266 
1 267 
1 268 
1 269 
1 270 
1 271 
1 272 
1 273 
1 274 
1 275 
1 276 
1 277 
1 278 
1 279 
1 280 
1 281 
1 282 
1 283 
1 284 
1 285 
1 286 
1 287 
1 288 
1 289 
1 290 
1 291 
1 292 
1 293 
1 294 
1 295 
1 296 
1 297 
1 298 
1 299 
1 300 
1 301 
1 302 
1 303 
1 304 
1 305 
1 306 
1 307 
1 308 
1 309 
1 310 
1 311 
1 312 
1 313 
1 314 
1 315 
1 316 
1 317 
1 318 
1 319 
1 320 
1 321 
1 322 
1 323 
1 324 
1 325 
1 326 
1 327 
1 328 
1 329 
1 330 
1 331 
1 332 
1 333 
1 334 
1 335 
1 336 
1 337 
1 338 
1 339 
1 340 
1 341 
1 342 
1 343 
1 344 
1 345 
1 346 
1 347 
1 348 
1 349 
1 350 
1 351 
1 352 
1 353 
1 354 
1 355 
1 356 
1 357 
1 358 
1 359 
1 360 
1 361 
1 362 
1 363 
1 364 
1 365 
1 366 
1 367 
1 368 
1 369 
1 370 
1 371 
1 372 
1 373 
1 374 
1 375 
1 376 
1 377 
1 378 
1 379 
1 380 
1 381 
1 382 
1 383 
1 384 
1 385 
1 386 
1 387 
1 388 
1 389 
1 390 
1 391 
1 392 
1 393 
1 394 
1 395 
1 396 
1 397 
1 398 
1 399 
1 400 
1 401 
1 402 
1 403 
1 404 
1 405 
1 406 
1 407 
1 408 
1 409 
1 410 
1 411 
1 412 
1 413 
1 414 
1 415 
1 416 
1 417 
1 418 
1 419 
1 420 
1 421 
1 422 
1 423 
1 424 
1 425 
1 426 
1 427 
1 428 
1 429 
1 430 
1 431 
1 432 
1 433 
1 434 
1 435 
1 436 
1 437 
1 438 
1 439 
1 440 
1 441 
1 442 
1 443 
1 444 
1 445 
1 446 
1 447 
1 448 
1 449 
1 450 
1 451 
1 452 
1 453 
1 454 
1 455 
1 456 
1 457 
1 458 
1 459 
1 460 
1 461 
1 462 
1 463 
1 464 
1 465 
1 466 
1 467 
1 468 
1 469 
1 470 
1 471 
1 472 
1 473 
1 474 
1 475 
1 476 
1 477 
1 478 
1 479 
1 480 
1 481 
1 482 
1 483 
1 484 
1 485 
1 486 
1 487 
1 488 
1 489 
1 490 
1 491 
1 492 
1 493 
1 494 
1 495 
1 496 
1 497 
1 498 
1 499 

POINT_DATA 500
FIELD FieldData 7
id 1 500 int
18 339 83 152 227 230 105 121 137 
210 198 130 313 75 72 71 185 97 
273 126 26 244 95 328 136 157 108 
87 155 98 204 56 225 294 184 11 
258 176 280 206 68 286 190 263 287 
78 20 303 197 127 374 62 161 250 
74 35 266 158 391 465 396 134 156 
221 262 437 32 207 365 59 239 82 
267 57 309 115 326 202 220 141 132 
380 223 324 50 340 290 110 269 22 
170 388 238 409 151 212 116 123 344 
177 96 182 325 477 120 181 84 209 
492 135 277 468 60 195 165 321 432 
107 279 61 422 45 48 216 228 360 
194 65 231 58 144 67 461 427 201 
145 124 200 476 164 43 318 297 382 
304 406 480 92 311 349 329 285 387 
260 419 217 6 413 390 8 245 142 
73 173 111 88 332 429 224 398 377 
448 431 214 42 234 38 271 362 373 
491 412 348 191 254 402 291 219 139 
471 357 359 114 167 36 64 112 21 
371 213 149 389 386 34 270 354 163 
109 54 129 39 306 85 215 69 122 
446 12 104 46 487 169 55 79 86 
333 343 363 456 90 162 128 301 342 
133 91 364 469 118 49 81 486 319 
138 10 399 205 159 353 308 276 474 
495 496 497 302 498 288 199 28 255 
53 428 410 106 100 233 94 481 397 
70 1 439 33 189 166 501 240 381 
296 395 24 505 316 226 125 192 9 
143 268 494 140 272 242 383 131 25 
502 484 493 394 500 282 37 47 236 
186 2 507 265 463 237 4 314 52 
356 499 17 41 418 99 298 351 347 
295 334 15 66 193 171 30 172 261 
31 5 102 283 490 160 435 256 3 
252 445 415 317 180 29 438 119 246 
352 341 264 436 251 330 154 76 322 
345 460 232 426 19 153 40 77 168 
284 183 375 243 247 13 14 323 89 
229 174 378 257 80 416 274 101 248 
113 7 307 407 146 148 117 175 16 
150 253 336 188 367 434 23 453 147 
376 196 483 179 335 203 379 452 93 
430 178 103 305 281 457 449 337 385 
51 479 241 249 310 408 346 312 327 
423 393 368 235 338 358 464 467 440 
405 299 370 300 489 211 315 392 404 
361 293 369 222 259 459 331 355 292 
384 218 275 473 417 289 403 320 27 
454 63 350 278 401 187 400 421 433 
462 451 444 420 414 441 450 466 478 
455 475 472 488 442 447 470 425 424 
443 482 503 504 508 
type 1 500 int
1 1 1 1 1 1 1 1 1 
1 1 1 1 1 1 1 1 1 
1 1 1 1 1 1 1 1 1 
1 1 1 1 1 1 1 1 1 
1 1 1 1 1 1 1 1 1 
1 1 1 1 1 1 1 1 1 
1 1 1 1 1 1 1 1 1 
1 1 1 1 1 1 1 1 1 
1 1 1 1 1 1 1 1 1 
1 1 1 1 1 1 1 1 1 
1 1 1 1 1 1 1 1 1 
1 1 1 1 1 1 1 1 1 
1 1 1 1 1 1 1 1 1 
1 1 1 1 1 1 1 1 1 
1 1 1 1 1 1 1 1 1 
1 1 1 1 1 1 1 1 1 
1 1 1 1 1 1 1 1 1 
1 1 1 1 1 1 1 1 1 
1 1 1 1 1 1 1 1 1 
1 1 1 1 1 1 1 1 1 
1 1 1 1 1 1 1 1 1 
1 1 1 1 1 1 1 1 1 
1 1 1 1 1 1 1 1 1 
1 1 1 1 1 1 1 1 1 
1 1 1 1 1 1 1 1 1 
1 1 1 1 1 1 1 1 1 
1 1 1 1 1 1 1 1 1 
1 1 1 1 1 1 1 1 1 
1 1 1 1 1 1 1 1 1 
1 1 1 1 1 1 1 1 1 
1 1 1 1 1 1 1 1 1 
1 1 1 1 1 1 1 1 1 
1 1 1 1 1 1 1 1 1 
1 1 1 1 1 1 1 1 1 
1 1 1 1 1 1 1 1 1 
1 1 1 1 1 1 1 1 1 
1 1 1 1 1 1 1 1 1 
1 1 1 1 1 1 1 1 1 
1 1 1 1 1 1 1 1 1 
1 1 1 1 1 1 1 1 1 
1 1 1 1 1 1 1 1 1 
1 1 1 1 1 1 1 1 1 
1 1 1 1 1 1 1 1 1 
1 1 1 1 1 1 1 1 1 
1 1 1 1 1 1 1 1 1 
1 1 1 1 1 1 1 1 1 
1 1 1 1 1 1 1 1 1 
1 1 1 1 1 1 1 1 1 
1 1 1 1 1 1 1 1 1 
1 1 1 1 1 1 1 1 1 
1 1 1 1 1 1 1 1 1 
1 1 1 1 1 1 1 1 1 
1 1 1 1 1 1 1 1 1 
1 1 1 1 1 1 1 1 1 
1 1 1 1 1 1 1 1 1 
1 1 1 1 1 
i 3 500 int
0 0 0 0 0 0 0 0 0 
0 0 0 0 0 0 0 0 0 
0 0 0 0 0 0 0 0 0 
0 0 0 0 0 0 0 0 0 
0 0 0 0 0 0 0 0 0 
0 0 0 0 0 0 0 0 0 
0 0 0 0 0 0 0 0 0 
0 0 0 0 0 0 0 0 0 
0 0 0 0 0 0 0 0 0 
0 0 0 0 0 0 0 0 0 
0 0 0 0 0 0 0 0 0 
0 0 0 0 0 0 0 0 0 
0 0 0 0 0 0 0 0 0 
0 0 0 0 0 0 0 0 0 
0 0 0 0 0 0 0 0 0 
0 0 0 0 0 0 0 0 0 
0 0 0 0 0 0 0 0 0 
0 0 0 0 0 0 0 0 0 
0 0 0 0 0 0 0 0 0 
0 0 0 0 0 0 0 0 0 
0 0 0 0 0 0 0 0 0 
0 0 0 0 0 0 0 0 0 
0 0 0 0 0 0 0 0 0 
0 0 0 0 0 0 0 0 0 
0 0 0 0 0 0 0 0 0 
0 0 0 0 0 0 0 0 0 
0 0 0 0 0 0 0 0 0 
0 0 0 0 0 0 0 0 0 
0 0 0 0 0 0 0 0 0 
0 0 0 0 0 0 0 0 0 
0 0 0 0 0 0 0 0 0 
0 0 0 0 0 0 0 0 0 
0 0 0 0 0 0 0 0 0 
0 0 0 0 0 0 0 0 0 
0 0 0 0 0 0 0 0 0 
0 0 0 0 0 0 0 0 0 
0 0 0 0 0 0 0 0 0 
0 0 0 0 0 0 0 0 0 
0 0 0 0 0 0 0 0 0 
0 0 0 0 0 0 0 0 0 
0 0 0 0 0 0 0 0 0 
0 0 0 0 0 0 0 0 0 
0 0 0 0 0 0 0 0 0 
0 0 0 0 0 0 0 0 0 
0 0 0 0 0 0 0 0 0 
0 0 0 0 0 0 0 0 0 
0 0 0 0 0 0 0 0 0 
0 0 0 0 0 0 0 0 0 
0 0 0 0 0 0 0 0 0 
0 0 0 0 0 0 0 0 0 
0 0 0 0 0 0 0 0 0 
0 0 0 0 0 0 0 0 0 
0 0 0 0 0 0 0 0 0 
0 0 0 0 0 0 0 0 0 
0 0 0 0 0 0 0 0 0 
0 0 0 0 0 0 0 0 0 
0 0 0 0 0 0 0 0 0 
0 0 0 0 0 0 0 0 0 
0 0 0 0 0 0 0 0 0 
0 0 0 0 0 0 0 0 0 
0 0 0 0 0 0 0 0 0 
0 0 0 0 0 0 0 0 0 
0 0 0 0 0 0 0 0 0 
0 0 0 0 0 0 0 0 0 
0 0 0 0 0 0 0 0 0 
0 0 0 0 0 0 0 0 0 
0 0 0 0 0 0 0 0 0 
0 0 0 0 0 0 0 0 0 
0 0 0 0 0 0 0 0 0 
0 0 0 0 0 0 0 0 0 
0 0 0 0 0 0 0 0 0 
0 0 0 0 0 0 0 0 0 
0 0 0 0 0 0 0 0 0 
0 0 0 0 0 0 0 0 0 
0 0 0 0 0 0 0 0 0 
0 0 0 0 0 0 0 0 0 
0 0 0 0 0 0 0 0 0 
0 0 0 0 0 0 0 0 0 
0 0 0 0 0 0 0 0 0 
0 0 0 0 0 0 0 0 0 
0 0 0 0 0 0 0 0 0 
0 0 0 0 0 0 0 0 0 
0 0 0 0 0 0 0 0 0 
0 0 0 0 0 0 0 0 0 
0 0 0 0 0 0 0 0 0 
0 0 0 0 0 0 0 0 0 
0 0 0 0 0 0 0 0 0 
0 0 0 0 0 0 0 0 0 
0 0 0 0 0 0 0 0 0 
0 0 0 0 0 0 0 0 0 
0 0 0 0 0 0 0 0 0 
0 0 0 0 0 0 0 0 0 
0 0 0 0 0 0 0 0 0 
0 0 0 0 0 0 0 0 0 
0 0 0 0 0 0 0 0 0 
0 0 0 0 0 0 0 0 0 
0 0 0 0 0 0 0 0 0 
0 0 0 0 0 0 0 0 0 
0 0 0 0 0 0 0 0 0 
0 0 0 0 0 0 0 0 0 
0 0 0 0 0 0 0 0 0 
0 0 0 0 0 0 0 0 0 
0 0 0 0 0 0 0 0 0 
0 0 0 0 0 0 0 0 0 
0 0 0 0 0 0 0 0 0 
0 0 0 0 0 0 0 0 0 
0 0 0 0 0 0 0 0 0 
0 0 0 0 0 0 0 0 0 
0 0 0 0 0 0 0 0 0 
0 0 0 0 0 0 0 0 0 
0 0 0 0 0 0 0 0 0 
0 0 0 0 0 0 0 0 0 
0 0 0 0 0 0 0 0 0 
0 0 0 0 0 0 0 0 0 
0 0 0 0 0 0 0 0 0 
0 0 0 0 0 0 0 0 0 
0 0 0 0 0 0 0 0 0 
0 0 0 0 0 0 0 0 0 
0 0 0 0 0 0 0 0 0 
0 0 0 0 0 0 0 0 0 
0 0 0 0 0 0 0 0 0 
0 0 0 0 0 0 0 0 0 
0 0 0 0 0 0 0 0 0 
0 0 0 0 0 0 0 0 0 
0 0 0 0 0 0 0 0 0 
0 0 0 0 0 0 0 0 0 
0 0 0 0 0 0 0 0 0 
0 0 0 0 0 0 0 0 0 
0 0 0 0 0 0 0 0 0 
0 0 0 0 0 0 0 0 0 
0 0 0 0 0 0 0 0 0 
0 0 0 0 0 0 0 0 0 
0 0 0 0 0 0 0 0 0 
0 0 0 0 0 0 0 0 0 
0 0 0 0 0 0 0 0 0 
0 0 0 0 0 0 0 0 0 
0 0 0 0 0 0 0 0 0 
0 0 0 0 0 0 0 0 0 
0 0 0 0 0 0 0 0 0 
0 0 0 0 0 0 0 0 0 
0 0 0 0 0 0 0 0 0 
0 0 0 0 0 0 0 0 0 
0 0 0 0 0 0 0 0 0 
0 0 0 0 0 0 0 0 0 
0 0 0 0 0 0 0 0 0 
0 0 0 0 0 0 0 0 0 
0 0 0 0 0 0 0 0 0 
0 0 0 0 0 0 0 0 0 
0 0 0 0 0 0 0 0 0 
0 0 0 0 0 0 0 0 0 
0 0 0 0 0 0 0 0 0 
0 0 0 0 0 0 0 0 0 
0 0 0 0 0 0 0 0 0 
0 0 0 0 0 0 0 0 0 
0 0 0 0 0 0 0 0 0 
0 0 0 0 0 0 0 0 0 
0 0 0 0 0 0 0 0 0 
0 0 0 0 0 0 0 0 0 
0 0 0 0 0 0 0 0 0 
0 0 0 0 0 0 0 0 0 
0 0 0 0 0 0 0 0 0 
0 0 0 0 0 0 0 0 0 
0 0 0 0 0 0 0 0 0 
0 0 0 0 0 0 0 0 0 
0 0 0 0 0 0 0 0 0 
0 0 0 0 0 0 0 0 0 
0 0 0 0 0 0 
v 3 500 double
0 0 -0.77166746875 -0.0043064202965 -0.065588370913 -0.66620054243 0 0 -0.69563996875 
-0.021552470521 0.0066780705062 -0.67787364994 -0.00041339259174 0.0033929245659 -0.56360112032 0 0 -0.54603746875 
0 0 -0.67111496875 0 0 -0.64965559375 0 0 -0.63616684375 
-0.0080712799128 -0.0067459270161 -0.76992054384 -0.013870372477 0.016613747442 -0.6363818379 0 0 -0.64168496875 
0.026508965362 0.013066389963 -0.6786680034 0 0 -0.70299746875 0 0 -0.70544996875 
0 0 -0.70790246875 -0.016940587253 0.034699376415 -0.66248049701 0 0 -0.67847246875 
-0.035022438222 0.044255956212 -0.61161815686 0 0 -0.64475059375 0 0 -0.76001809375 
-0.076205192091 0.0068547031003 -0.64358580875 -0.080104981209 -0.037340620709 -0.70529392959 -0.034755097575 -0.048480241003 -0.64191364393 
-0.014572743958 0.042704069101 -0.63913394943 -0.0024035412238 -0.012455230814 -0.62979891387 0.0024035412238 0.012455230814 -0.65173164863 
0.037589343161 0.047397803343 -0.72343976306 0.022452879974 -0.0094698978486 -0.72175454051 -0.0064371823522 0.013387027999 -0.65311086182 
0 0 -0.56872309375 0 0 -0.72568309375 0 0 -0.55155559375 
0 0 -0.47798059375 -0.016134745401 -0.049012285109 -0.69879958736 -0.014346373555 -0.051739112082 -0.54179456918 
0.042397142197 0.035350509984 -0.54186906403 -0.030885110142 -0.021701856847 -0.61169217064 0.010221326872 0.0094839188718 -0.532468809 
0.061340740301 0.031807468354 -0.60410032865 0.063541143079 -0.031767866438 -0.66856894633 -0.1149447082 0.071370843842 -0.56777318027 
0.0289627534 0.013548106771 -0.56456328811 -0.01388699916 0.0027110327064 -0.60989633603 0.13362191029 -0.027849256578 -0.5764440281 
0.043337110363 -0.00093666412346 -0.67214566788 0.0080712799128 0.0067459270161 -0.56495189366 -0.0061449152042 -0.087306359919 -0.56063584231 
0 0 -0.57730684375 -0.069676535523 -0.013306097432 -0.57034853653 -0.033294048372 -0.026783667465 -0.67421515151 
-0.019775432418 -0.084498257337 -0.53907633805 0 0 -0.61225496875 -0.12662715461 -0.11305159247 -0.55439284881 
0 0 -0.70422371875 0.00061514158674 -0.070541660393 -0.68033431932 0.037856996872 -0.029526554214 -0.61072316245 
0 0 -0.61532059375 0.049357008073 -0.10575164326 -0.57925755348 0.020994906759 -0.11554516633 -0.4019365232 
-0.1285107215 0.034569297963 -0.58676194991 0.015164695504 0.022498656005 -0.59531920752 -0.023312667363 -0.02198595882 -0.53113826527 
0.062583125564 -0.034033236017 -0.63729567714 -0.034171839879 -0.039560820409 -0.69897473122 0.022492272832 0.028159976619 -0.5835152462 
-0.045514205447 -0.023992145554 -0.69600949104 -0.047586764224 0.0028239067481 -0.6274157986 0.040510829241 0.0059308668099 -0.66283780754 
0.13091894452 0.045916619521 -0.55120631924 0.051948182533 0.055624331041 -0.63518971344 -0.031191221576 0.062543567613 -0.54992052075 
0 0 -0.51047621875 0.0089179042913 -0.018252455081 -0.66822201355 0.027147717002 0.044734409437 -0.64233603389 
0.016642707106 -0.082622032522 -0.54287372525 -0.008097172112 0.016794090639 -0.51591576467 0.036229587163 -0.0037781247272 -0.60710712694 
0.020335289923 -0.037561744298 -0.60992172587 -0.046271146047 0.042753050167 -0.64608783424 0 0 -0.64045871875 
-0.01128300909 0.014994393947 -0.55707549024 0.042336958008 0.032162240328 -0.52293014435 0.01409351709 0.016030702922 -0.56827346501 
-0.012545316982 -0.077411710252 -0.60530495769 -0.0053839853861 -0.13082533896 -0.50870697015 -0.098470694282 -0.059320390269 -0.5546332884 
0.061719699077 -0.090760558089 -0.50087624534 -0.0020877615369 -0.022331089009 -0.50282559849 -0.075673695936 -0.02628230947 -0.704760019 
-0.10432033994 -0.028806984562 -0.57726497088 0.019956921072 -0.0061460440297 -0.63275114135 0.035507111781 -0.012697435544 -0.52203837492 
-0.091478625286 -0.13647263087 -0.64006317332 0.17222848615 -0.025306236924 -0.45805044656 -0.01394433157 -0.034605428587 -0.42649151406 
-0.058094739546 0.022973600197 -0.54533784579 -0.055513049292 0.011894314035 -0.5407179567 0.030807123886 0.11771585111 -0.52539176249 
0.025195706019 0.022020498427 -0.57174959701 0.073101862219 -0.0067798347038 -0.60378326701 -0.078082633755 0.05469252817 -0.5028002671 
0.001822367519 0.013002903895 -0.51259977997 -0.077887394783 -0.076995221216 -0.35469679876 0.091944433978 0.0055682904511 -0.54997110116 
-0.046579711028 0.012269487574 -0.53934078955 -0.13928748375 -0.062903928488 -0.52247859454 -0.1729245268 -0.040918341265 -0.43746068523 
0.083484189479 0.11048815799 -0.36380953101 0.016565983726 -0.1172225858 -0.60296422865 -0.19317140911 -0.067957505016 -0.2476881777 
-0.091543640714 -0.089809207021 -0.64071936614 0.021479606385 0.087332205162 -0.53682435247 -0.015449321905 -0.11126062995 -0.55855177285 