# vtk DataFile Version 4.2
Generated by LIGGGHTS
ASCII
DATASET POLYDATA
POINTS 29 float
0.00986368 -0.00775819 0.277677 0.00228029 0.0122844 0.155987 -0.0112337 -0.020589 0.213415 
0.0179317 0.0146681 0.236332 -0.0287378 0.0119332 0.258068 -0.000360755 0.0229448 0.257201 
-0.0196665 0.0222964 0.265111 0.0268914 -0.00704199 0.403239 -0.0271131 0.0102003 0.397452 
0.012404 0.0131954 0.417958 0.0210386 0.00590693 0.406198 0.00457317 0.00121086 0.423097 
0.00505217 -0.00667662 0.298645 -0.0208553 0.00645473 0.319015 0.000606525 0.00645707 0.310614 
-0.00398441 -0.00772557 0.323735 0.0267539 -0.00425395 0.330606 -0.00370196 -0.024204 0.334361 
-0.000648674 -0.024776 0.351278 -0.0104305 -0.0261339 0.471457 0.00107021 -0.00303116 0.442443 
0.028476 0.00547015 0.438771 -0.00726245 0.0199738 0.435556 -0.013383 -0.0180846 0.454145 
-0.00810418 0.0130611 0.456034 0.0039917 0.0285394 0.452231 0.020607 -0.0183131 0.456699 
0.0114026 -0.00952041 0.46581 0.014399 0.0064112 0.463727 
VERTICES 29 58
1 0 
1 1 
1 2 
1 3 
1 4 
1 5 
1 6 
1 7 
1 8 
1 9 
1 10 
1 11 
1 12 
1 13 
1 14 
1 15 
1 16 
1 17 
1 18 
1 19 
1 20 
1 21 
1 22 
1 23 
1 24 
1 25 
1 26 
1 27 
1 28 

POINT_DATA 29
FIELD FieldData 7
id 1 29 int
602 54 203 376 470 362 418 847 878 
1523 896 1192 572 509 733 486 513 611 
619 1276 1070 986 1354 1485 1362 1088 1310 
1165 1299 
type 1 29 int
2 2 2 2 2 2 2 2 2 
2 2 2 2 2 2 2 2 2 
2 2 2 2 2 2 2 2 2 
2 2 
i 3 29 int
0 0 0 0 0 0 0 0 0 
0 0 0 0 0 0 0 0 0 
0 0 0 0 0 0 0 0 0 
0 0 0 0 0 0 0 0 0 
0 0 0 0 0 0 0 0 0 
0 0 0 0 0 0 0 0 0 
0 0 0 0 0 0 0 0 0 
0 0 0 0 0 0 0 0 0 
0 0 0 0 0 0 0 0 0 
0 0 0 0 0 0 
v 3 29 double
0.0030459547487 -0.018308676432 -1.4132535951 -0.01449187352 0.01177160038 -1.9693912381 -0.0038075225759 0.048855763177 -1.8093717255 
0.041244244232 -0.069549892504 -1.6784090085 -0.069002812892 -0.028754309894 -1.5463028013 0.021288263674 -0.034445026388 -1.5348022781 
-0.075861140058 0.027539677732 -1.4694607046 0.006721690831 -0.014871136972 -1.251626098 0 0 -1.1937194063 
0 0 -0.00916190625 -0.006721690831 0.014871136972 -1.1811839645 0 0 -0.61063753125 
-0.064015656721 0.043190565746 -1.2726662211 -0.10725984226 0.049854162247 -1.1027400472 -0.051948405772 0.026493794061 -1.1232484343 
-0.055388947743 -0.038255508615 -1.1401531013 -0.022267658656 -0.036433231505 -0.90449033983 0.030990169322 -0.0020649937155 -1.0140380722 
0.034195400722 -0.094244558292 -1.0806403373 0 0 -0.44815940625 0 0 -0.84607753125 
0 0 -1.0140737812 0 0 -0.31327190625 0 0 -0.07844503125 
0 0 -0.29978315625 0 0 -0.81051628125 0 0 -0.39910940625 
-0.014051092679 -0.07470801429 -0.58191291661 0.014051092679 0.07470801429 -0.49895652089 
f 3 29 double
0 0 -0.078995322142 0 0 -0.078995322142 0 0 -0.078995322142 
0 0 -0.078995322142 0 0 -0.078995322142 0 0 -0.078995322142 
0 0 -0.078995322142 0 0 -0.078995322142 0 0 -0.078995322142 
0 0 -0.078995322142 0 0 -0.078995322142 0 0 -0.078995322142 
0 0 -0.078995322142 0 0 -0.078995322142 0 0 -0.078995322142 
0 0 -0.078995322142 0 0 -0.078995322142 0 0 -0.078995322142 
0 0 -0.078995322142 0 0 -0.078995322142 0 0 -0.078995322142 
0 0 -0.078995322142 0 0 -0.078995322142 0 0 -0.078995322142 
0 0 -0.078995322142 0 0 -0.078995322142 0 0 -0.078995322142 
0 0 -0.078995322142 0 0 -0.078995322142 
radius 1 29 double
0.006 0.006 0.006 0.006 0.006 0.006 0.006 0.006 0.006 
0.006 0.006 0.006 0.006 0.006 0.006 0.006 0.006 0.006 
0.006 0.006 0.006 0.006 0.006 0.006 0.006 0.006 0.006 
0.006 0.006 
omega 3 29 double
3.747809461 11.141401469 1.0372577935 2.1201603527 -2.9333913173 2.7851816229 -17.622984262 -7.0304762992 9.5952164537 
5.3309906094 -1.9768388829 -8.8517142957 5.6496803305 9.8709277966 6.7249973315 3.5490638156 -1.7474331351 12.202782856 
-13.949573366 -12.899982454 -0.36441261826 3.500104501 1.5820323878 1.8003919458e-16 0 0 0 
0 0 0 3.500104501 1.5820323878 1.8003919458e-16 0 0 0 
-14.225089022 -13.193183879 4.6051354455 10.117142135 5.685673529 2.2562642363 14.291587134 0.12625475014 -0.85033175941 
5.5191474238 -25.433251851 -3.9763395293 12.651264124 3.7020613227 -7.1371369056 -7.8622113832 -12.085737283 3.7035870465 
0.49870008719 7.8111320442 -4.2803743949 0 0 0 0 0 0 
0 0 0 0 0 0 0 0 0 
0 0 0 0 0 0 0 0 0 
17.777549013 -3.3436036436 -7.1726503473e-16 17.777549013 -3.3436036436 -7.1726503473e-16 
