# vtk DataFile Version 4.2
Generated by LIGGGHTS
ASCII
DATASET POLYDATA
POINTS 70 float
-0.00014853 0.00947754 0.0271103 -0.00851101 -0.0183449 0.0436154 0.00703527 -0.00788995 0.0552637 
-0.0367352 0.0100765 0.053846 0.0209497 0.0102082 0.0492538 -0.000330843 0.0210569 0.056212 
-0.0274565 0.0303967 0.0551049 -0.00399272 -0.00147271 0.0693978 -0.0218637 0.00771741 0.068625 
-0.00556199 -0.0252026 0.0767616 -0.0139171 -0.0141202 0.0734014 0.0177693 -0.00945729 0.0820866 
0.00656582 0.0115622 0.0720513 0.0107457 -0.0257692 0.0827583 0.0303757 -0.0275055 0.100521 
0.0291241 0.0145461 0.099178 -0.0027383 -0.00887732 0.112771 0.00867068 -0.00490423 0.114801 
0.0338114 -0.00892819 0.109545 -0.0399682 0.00900233 0.104583 0.0269011 -0.0192574 0.125636 
0.0138607 0.0385063 0.123103 -0.00569718 -0.0405269 0.13062 -0.00205932 -0.0229982 0.130781 
0.026976 -0.0141545 0.136488 0.0118017 0.00997203 0.130415 -0.0174549 0.0232249 0.129807 
0.00210861 0.0162495 0.133655 0.0113813 0.032293 0.135906 -0.0179388 -0.00782877 0.140601 
-0.00052407 -0.00559631 0.140158 0.0173622 0.00715949 0.140665 -0.0318253 0.0133896 0.139573 
-0.0291218 -0.0103067 0.156553 0.00531653 0.0171327 0.15811 0.00232253 -0.0329474 0.169916 
0.0119045 0.00395861 0.170222 -0.00263777 0.0407935 0.166242 -0.0219932 -0.0186238 0.172392 
-0.0409318 0.00198786 0.181055 -0.00507017 0.00722142 0.174892 -0.0190058 0.0196999 0.174931 
-0.00110319 0.0321601 0.174428 0.0167681 -0.0373007 0.181982 0.0188899 -0.0255156 0.185881 
-0.0186791 -0.0063468 0.188237 -0.0230271 0.00398353 0.183953 0.00828931 0.0332117 0.190897 
0.0234761 0.0335796 0.189889 0.0200784 -0.0242708 0.203678 -0.0202681 0.0062603 0.199121 
-0.00378834 0.00582527 0.199738 -0.0145858 -0.00269198 0.210095 -0.00267504 -0.0054806 0.214721 
-0.0341802 0.00442271 0.209436 -0.00437725 0.0130524 0.213923 0.016833 0.0164386 0.207786 
0.0148849 0.0283175 0.205439 -0.012249 -0.0251678 0.220705 0.0172209 -0.00206425 0.223219 
-0.0194681 -0.0102952 0.243559 0.0161741 -0.00954368 0.240794 0.00122091 -0.0118659 0.251125 
-0.00216642 0.0199665 0.248613 -0.0195233 0.0355338 0.257854 -0.0160778 -0.00226685 0.266286 
0.0104203 0.00588263 0.260994 -0.00984347 0.0139021 0.259657 -0.0326782 -0.00897021 0.273827 
0.0304734 -0.000565379 0.275384 
VERTICES 70 140
1 0 
1 1 
1 2 
1 3 
1 4 
1 5 
1 6 
1 7 
1 8 
1 9 
1 10 
1 11 
1 12 
1 13 
1 14 
1 15 
1 16 
1 17 
1 18 
1 19 
1 20 
1 21 
1 22 
1 23 
1 24 
1 25 
1 26 
1 27 
1 28 
1 29 
1 30 
1 31 
1 32 
1 33 
1 34 
1 35 
1 36 
1 37 
1 38 
1 39 
1 40 
1 41 
1 42 
1 43 
1 44 
1 45 
1 46 
1 47 
1 48 
1 49 
1 50 
1 51 
1 52 
1 53 
1 54 
1 55 
1 56 
1 57 
1 58 
1 59 
1 60 
1 61 
1 62 
1 63 
1 64 
1 65 
1 66 
1 67 
1 68 
1 69 

POINT_DATA 70
FIELD FieldData 7
id 1 70 int
54 203 602 470 376 362 418 572 509 
611 486 513 733 619 847 896 1070 1192 
986 878 1310 1088 1276 1165 1692 1557 1354 
1362 1523 1485 1637 1299 1603 2094 2074 1929 
1812 1865 1685 1842 2010 1743 2357 1917 2309 
1953 1915 2442 2299 2759 2259 2577 2516 2413 
2342 2686 2238 2517 2620 2888 3061 2823 3098 
3239 3025 3224 3249 3234 3298 3242 
type 1 70 int
2 2 2 2 2 2 2 2 2 
2 2 2 2 2 2 2 2 2 
2 2 2 2 2 2 2 2 2 
2 2 2 2 2 2 2 2 2 
2 2 2 2 2 2 2 2 2 
2 2 2 2 2 2 2 2 2 
2 2 2 2 2 2 2 2 2 
2 2 2 2 2 2 2 
i 3 70 int
0 0 0 0 0 0 0 0 0 
0 0 0 0 0 0 0 0 0 
0 0 0 0 0 0 0 0 0 
0 0 0 0 0 0 0 0 0 
0 0 0 0 0 0 0 0 0 
0 0 0 0 0 0 0 0 0 
0 0 0 0 0 0 0 0 0 
0 0 0 0 0 0 0 0 0 
0 0 0 0 0 0 0 0 0 
0 0 0 0 0 0 0 0 0 
0 0 0 0 0 0 0 0 0 
0 0 0 0 0 0 0 0 0 
0 0 0 0 0 0 0 0 0 
0 0 0 0 0 0 0 0 0 
0 0 0 0 0 0 0 0 0 
0 0 0 0 0 0 0 0 0 
0 0 0 0 0 0 0 0 0 
0 0 0 0 0 0 0 0 0 
0 0 0 0 0 0 0 0 0 
0 0 0 0 0 0 0 0 0 
0 0 0 0 0 0 0 0 0 
0 0 0 0 0 0 0 0 0 
0 0 0 0 0 0 0 0 0 
0 0 0 
v 3 70 double
1.7695523236e-06 -3.3103249355e-07 2.4709100064e-06 -7.3934740533e-06 5.4479542463e-06 -4.7074443978e-06 2.2725195399e-06 -2.3998641176e-06 1.1017325909e-05 
2.3763239066e-06 2.4475051584e-06 4.1044664295e-06 4.5217208199e-06 1.3557166769e-06 8.905295497e-06 -3.1829403588e-08 1.9460823232e-06 6.5762890329e-06 
-1.1476254146e-06 3.0779576317e-06 3.4601565005e-06 5.7483035189e-07 -2.999774202e-06 9.3682586513e-06 3.6463118244e-06 2.3382670497e-07 1.0646802592e-05 
4.0121188284e-06 -3.6390869427e-06 1.1736617945e-05 -6.250918325e-06 1.898797311e-06 9.0928878604e-06 -2.5350769913e-07 -1.7500122678e-06 1.4188950713e-05 
-6.871915006e-07 9.5647568825e-07 9.4672260781e-06 -2.1523907702e-06 5.4378318332e-06 1.7981120642e-05 1.7390646388e-06 7.1746237799e-06 5.5173221024e-06 
6.934907138e-06 -8.2674789943e-06 1.5262525272e-05 1.3090987923e-06 -1.27833698e-06 1.1213050471e-05 -9.8039010221e-06 -9.8613857609e-06 2.6240113458e-05 
5.5331980391e-06 1.4889479224e-05 2.0587241618e-05 7.5630553408e-06 6.9117467725e-06 1.6039327304e-05 -4.9484124538e-06 -8.0129319866e-07 2.2460943988e-05 
1.5622747482e-07 4.5831451483e-07 1.7631715563e-05 6.0091977829e-06 6.5675913167e-06 2.0987836772e-05 -4.8782069409e-06 -1.2842385484e-07 1.6705833244e-05 
-1.1212515396e-06 -4.6740239663e-06 2.1259628645e-05 -2.3007660725e-06 -2.3037995453e-06 8.7994501557e-06 2.0878716144e-06 3.0903102632e-06 1.8439919014e-05 
-8.1731517986e-07 1.7250593276e-06 1.9517738536e-05 2.9593950419e-06 -3.1558983333e-06 1.6274534824e-05 5.48394862e-06 6.2248323085e-06 1.8747239126e-05 
6.247641492e-06 -1.7322650127e-07 1.8773324576e-05 -4.4399365064e-06 9.8815479458e-07 2.8176490065e-05 -3.7913859809e-06 3.1172873213e-06 1.0595777296e-05 
-3.5816247555e-06 -4.3413824474e-06 1.8035828247e-05 3.6924160717e-06 -4.754487379e-06 2.0595889773e-05 -1.6354664284e-06 -4.1490822208e-06 2.576768264e-05 
-1.1188065416e-06 6.7942938883e-07 2.8863490931e-05 2.0926550897e-06 -2.5073228553e-06 2.1113555925e-05 3.3592295811e-06 2.3516879673e-06 2.6452157198e-05 
-4.5254047742e-06 1.2128668318e-06 2.5885619098e-05 7.4025555006e-07 1.675987329e-06 2.3660126656e-05 -4.0350304494e-06 3.8347429892e-06 2.6989644496e-05 
9.2274288032e-07 -1.4691103357e-06 2.3194587083e-05 -1.6687260365e-07 3.3190045036e-08 2.6329349192e-05 -2.0001884727e-06 1.9551703263e-06 2.7147822093e-05 
1.5225057864e-06 7.9414415565e-07 2.6203151797e-05 2.9847557383e-06 2.9132700862e-06 3.2731959737e-05 -1.2515669339e-06 1.7643754558e-06 2.8577041754e-05 
-1.572235822e-06 7.074009698e-07 2.8983181554e-05 -1.6746316497e-06 -1.2486711336e-06 3.0961135553e-05 4.0086588907e-06 2.9241365299e-07 3.0688548975e-05 
1.6217514773e-07 -5.6032017345e-08 2.8615246129e-05 1.4422742057e-06 7.164747215e-07 3.2285934117e-05 3.4662428632e-06 1.5359467156e-07 3.3652395433e-05 
-3.3639352372e-06 -2.3071400653e-06 2.9749815507e-05 -1.2515101546e-06 -2.5866867757e-06 2.7193309504e-05 -1.4296976557e-06 -3.1018567463e-06 3.4482334087e-05 
1.7089416123e-06 -2.0626445332e-06 2.7215583466e-05 -8.1406041599e-07 -1.01451373e-07 3.0161708866e-05 -1.6244520212e-06 8.6865523062e-08 3.1440145019e-05 
-2.9643950487e-08 2.7985880405e-07 3.5169640705e-05 -2.3099477912e-06 -1.3353388331e-06 3.660740249e-05 2.4664928826e-06 8.2398023814e-07 3.6438951468e-05 
-2.0966634868e-07 2.7871113235e-09 3.4479423416e-05 1.723568167e-06 -4.5279477429e-07 3.5010589764e-05 2.1224497337e-07 3.1627566843e-07 3.5618226662e-05 
-2.7949818813e-07 3.2336831522e-06 3.5427834294e-05 5.9168167458e-07 4.8437680348e-07 3.4490158959e-05 -6.8948471766e-07 -2.4553190203e-06 3.9614363868e-05 
-5.5958076768e-07 -2.1787595678e-08 3.7936183377e-05 
f 3 70 double
0.001068753499 -0.00040209375494 0.00036315815441 -0.0001678999416 -0.00021623973088 0.00082135244598 0.00069868789589 -0.00039802297789 -0.00040400060839 
0.00052056090347 0.00028914693719 0.00016842115782 0.00063059765839 0.0011235153486 -0.00024605816781 0.0013095283324 -0.0025268315099 -0.0010452028814 
0.00082447657122 -0.00072880860267 0.00045751614722 -0.00016689915137 0.00011680806616 -0.0001660330266 -0.00050092302602 -0.00034140257195 -3.3035945495e-05 
-0.00095545956007 -0.00038478613081 -0.00097670667711 -0.00055547524893 0.0004834323695 2.1468672354e-05 0.00024346472685 -0.0003014499637 0.00084947354001 
-0.00087471561067 2.0049870688e-05 0.00014055510433 -0.0014984266868 0.001699765248 -0.0016959678885 -0.00060742481108 -0.00057834303295 -0.00040115474289 
0.0022873623935 -0.00069528231914 0.00058311747077 0.00082439257906 0.0014737939235 0.00014255063211 0.0019822782726 -0.0021444306986 0.00035847774033 
0.0010744839124 0.0016030166899 0.00050259547375 0.00067650828153 0.0007690291437 0.00039142133181 -0.00037311280618 0.0019713822709 0.0011527115713 
0.00043022200242 0.001481681589 -0.00024574682833 0.0002508654385 0.00085180671998 -0.00021645739074 -0.00028470571125 -0.00069385869143 0.0011831103556 
-0.00032392101341 0.00020636463648 0.0013773133154 0.0024053120735 -7.8056270015e-05 -0.0012664329496 -0.0012547637016 0.0018369565128 -0.0014030508064 
-0.0016412080101 0.0006861605109 -9.0729654186e-05 0.00024342762059 0.00017241312978 -0.0026134954493 -0.0011022385593 -0.00071763893122 -0.0010382362847 
-0.00020822398673 0.00059243490898 0.00057735789044 -2.7707100598e-05 0.00024473965118 0.00012929879188 0.0018472830941 -0.00014054706167 -0.0016828922177 
0.00023828575706 0.00072591382164 -1.7450036389e-05 -0.00022147406915 -0.0021286315031 -0.0010890279113 -0.00087214119116 0.0026328660288 -0.00057975149176 
7.6545062341e-05 0.00049935016421 0.00033403538688 -0.00015204676078 0.0013323506072 0.00048971922101 -0.001094194693 -0.0003096480206 0.00040213355534 
0.00087580286018 0.0005795063195 0.001176302387 -0.00027540389076 -8.9877098583e-05 -6.3155477421e-05 0.00087785811251 2.0687470089e-06 6.1992037643e-05 
-0.00010324286843 -0.0005070248637 0.00012857460501 -0.00036016378078 -0.00041361227526 -0.00016289830371 -0.0015898421428 -0.00010775848912 0.0016636398491 
-0.00065550315525 0.00028348362879 0.00083338137387 0.0023987281277 0.00092040091813 0.0036344635671 0.00035608323232 -0.00017887372376 4.2569052802e-05 
-0.00055627725375 -0.00085463660455 -0.00041296715978 0.00098542896557 -0.00066188316825 0.00025992475725 -0.0002255117277 -0.00031100634353 0.0025191052463 
-0.00028959690749 -1.0341009756e-05 -0.00081745946669 0.0010066737382 -0.0004670724002 0.00051455997137 0.0001222308031 8.6045679096e-05 7.6738624352e-06 
-0.0010478340254 -0.00016715212988 0.00050590843992 0.00049306813762 6.2893264726e-05 -3.0613954749e-05 -7.1161751723e-05 -0.00089921845462 0.0019516201731 
-4.0948981459e-05 0.00030918815426 -0.00044415212126 -0.00023226571887 1.1834338382e-05 9.9725226497e-05 -0.00085805257388 0.00023598076274 0.00041195944512 
0.00028686448307 -3.5766991065e-05 0.00091908589732 0.00049671234403 0.00012950208219 -0.00034546801078 -0.00016969925745 0.00057664008706 0.00035153287808 
9.7422889893e-05 0.00036415592719 0.00024980157841 -8.3238059821e-06 -5.6944400749e-05 8.4159980762e-05 0.00054369254724 -0.00021567283431 8.6535259564e-05 
0.00053676134264 0.00045523131607 8.0040379482e-05 0.0002411823141 0.00035131955062 -0.00022287250925 0.0005916976059 0.00034380344426 -0.00036708859819 
-4.2661734023e-05 -3.0636677547e-05 0.00019127461678 
radius 1 70 double
0.006 0.006 0.006 0.006 0.006 0.006 0.006 0.006 0.006 
0.006 0.006 0.006 0.006 0.006 0.006 0.006 0.006 0.006 
0.006 0.006 0.006 0.006 0.006 0.006 0.006 0.006 0.006 
0.006 0.006 0.006 0.006 0.006 0.006 0.006 0.006 0.006 
0.006 0.006 0.006 0.006 0.006 0.006 0.006 0.006 0.006 
0.006 0.006 0.006 0.006 0.006 0.006 0.006 0.006 0.006 
0.006 0.006 0.006 0.006 0.006 0.006 0.006 0.006 0.006 
0.006 0.006 0.006 0.006 0.006 0.006 0.006 
omega 3 70 double
0.00037426994835 -0.00059685323062 0.000292788413 0.0038868720878 0.0011393151738 -0.00032498074481 -0.00016832138388 0.0014772885073 -0.0006921986908 
0.00022967194222 2.2571359705e-05 -0.00064228324226 0.00014534381629 0.00048285270001 0.0013474819208 0.00011818652692 0.0015394705101 0.00052481935737 
0.00061967020474 0.0023341387468 1.2578764222e-05 -0.00040703210316 0.00095754293815 -0.0010244580186 0.00078101170806 0.00012750317148 -2.7045385227e-05 
0.00033620339193 0.00037912704784 5.781135961e-05 -0.0012612173966 -0.00073669323041 0.00027649678888 0.0002000453641 0.0013898856806 -0.00070148080467 
-0.0001291017383 0.00096908488806 -0.00068688833442 0.00011599327231 -0.00036749542292 0.0011796960866 -0.0012725775269 0.00091492436338 -0.00018374578805 
-0.0030563395904 0.001308458138 -5.2143388276e-06 -2.3201928246e-05 0.00012337931564 -0.0006547562914 -0.000135614706 1.5620913989e-06 0.0025667009081 
-0.00042261845889 -0.00093239298577 0.0074436444247 -0.0015629187071 2.7286993686e-05 0.0028621195903 0.00054514478267 -0.0011637223936 0.0018904842 
-0.00023560628507 -0.0015406443909 0.00059758065181 -0.0027943546377 -0.00237817722 0.00071791747782 0.00012005058383 0.00077963871611 -0.00059966445665 
0.0035514358141 0.00051013775893 0.0013497731582 -0.0025180393909 -0.00058720682818 -0.00057673196737 0.0015595204057 0.00040429465303 0.0016310029515 
-0.0021296188024 -0.00020985311836 -0.00012297489432 0.0006719225674 -0.00094561398703 -0.00094638915406 -0.0016426781803 0.0012211699197 -0.00037483120155 
0.00071926126498 0.0012521916476 -0.00069335587937 -0.0015008982586 0.00098646425706 -0.00094059732407 -0.0022610881976 -0.00083429936388 0.00083060320473 
-0.0012959228555 0.00031268147216 -0.00028774360825 0.0016193415723 8.4946280872e-05 -0.00082087192335 8.9006277305e-05 0.0010015737819 0.00020999509766 
-0.00124616675 0.0013440248062 0.0006388400318 0.00024512497595 0.0016686376364 -0.00057690324652 9.6881092554e-05 -0.00011816756982 0.0013336709355 
0.002260852337 -0.003139227469 0.00015146420706 -0.00010877968257 -0.0012463212375 -0.00083746724145 -0.00085831221874 0.0001276656543 -0.00056766999053 
0.00041839831518 0.0023305710004 -0.0019807471933 -0.00035935901657 0.0003336358719 0.0004505110273 0.00025989231295 -0.00031918889376 -0.0009693078725 
-0.0025257048581 -4.3583160638e-05 0.0020517714311 0.00058669840321 -0.0028451574286 -0.00066204663803 0.0008184900531 0.00018561794638 -0.00028765401452 
-0.0008243256118 0.00080888582492 0.00061844952305 -8.8127750869e-05 0.00041261989967 0.00011791639366 -0.00055064288192 -0.0018182321418 -0.00098056642348 
0.0011873792653 -0.00036926141398 -0.00078668473737 0.00064115859743 -0.0013391079255 1.3961350492e-05 -0.00019435057943 -0.00026351542195 0.00015106608234 
0.00012655552847 0.00027381603574 -0.0012955640434 0.00071250321412 0.0001237184518 -0.0010036821666 0.0004491237063 -0.0013162880537 -0.00061417953854 
0.0012645006856 0.0017013692821 0.00021731399228 -0.00015392444221 -0.00027838634292 -6.2802390615e-06 0.0006952798407 0.00012830755037 0.00094168536884 
1.5550404197e-05 -0.00033660242188 0.00021114579647 -0.00077076935152 0.00012486253712 0.00017192052406 -0.0013769597704 0.00021859744368 7.5320490239e-06 
-0.00017257519178 -0.00082617573782 0.00057900654877 -0.00027424347329 -0.00029670568577 -5.7792388771e-05 0.0003068148446 -0.0013800252233 3.3737725334e-05 
0.00070396192387 -7.4076089484e-05 -0.00047898494773 -0.00030776440917 -0.0010085859473 0.00037029331589 -0.00044872524132 2.930523337e-06 0.00035565751338 
-0.00029595938607 -0.00012333356927 -9.4251038199e-05 
