# vtk DataFile Version 4.2
Generated by LIGGGHTS
ASCII
DATASET POLYDATA
POINTS 350 float
-0.0303549 -0.0149054 0.297994 0.00176941 -0.021574 0.302442 0.0127458 -0.0211314 0.302282 
0.0302103 -0.0148053 0.301532 -0.0246353 -0.0040044 0.302047 -0.00247519 -0.000535171 0.298705 
0.0134863 -0.0027545 0.299539 0.0272515 0.0157056 0.299936 -0.0241314 0.0236169 0.302433 
-0.00246298 -0.0352301 0.308238 -0.0144669 -0.0253529 0.311534 -0.0106164 -0.0292326 0.303287 
-0.00689889 -0.0296463 0.313233 0.00576233 -0.0325645 0.304124 0.014054 -0.0267224 0.312651 
0.0138452 -0.0312855 0.304342 -0.0230201 -0.018237 0.307408 -0.0110536 -0.0179278 0.303409 
-0.00884466 -0.012201 0.312596 -0.0059464 -0.0212024 0.312249 0.0163968 -0.0186892 0.31068 
0.0247885 -0.0203838 0.307005 -0.0278859 -0.00821947 0.308453 -0.0135089 -0.00451902 0.302847 
-0.0198334 -0.0102191 0.309185 -0.00623558 -0.00127761 0.309008 0.00104177 -0.0110355 0.303028 
0.00705834 -0.0105592 0.31026 0.0172541 -0.0110785 0.303188 0.0245274 -0.00883629 0.306246 
0.0339001 -0.00182026 0.305986 0.0305869 -0.0058897 0.313036 -0.0317486 0.00153584 0.313909 
-0.0209363 0.00279633 0.306687 -0.0129704 0.00721423 0.309193 -0.0227384 0.0101145 0.31018 
0.00797743 0.00948408 0.30502 0.0150114 0.00425952 0.306226 0.0231032 0.00325541 0.309478 
0.0297978 0.0116032 0.312354 0.0350429 0.00602896 0.307307 -0.0195003 0.0173004 0.311679 
-0.00965693 0.0158868 0.310298 -0.00147377 0.0150931 0.302726 0.000549109 0.0127866 0.310338 
0.0177032 0.0172005 0.305865 -0.0166426 0.0309101 0.307195 -0.0019306 0.0323373 0.309813 
-0.000836289 0.0244973 0.30596 0.00872674 0.0303282 0.3036 0.0214784 0.0267156 0.304357 
-0.0216022 -0.0283939 0.319222 0.00414384 -0.0344582 0.322797 0.00415819 -0.0332401 0.314511 
0.0202517 -0.0296935 0.323035 0.0261401 -0.023339 0.316375 -0.028153 -0.0225148 0.320096 
-0.0282544 -0.0160431 0.314909 -0.0195595 -0.0164943 0.320594 -0.00690551 -0.0231939 0.324614 
0.00266893 -0.0232726 0.315907 0.0181198 -0.0202308 0.322465 0.0181012 -0.0132292 0.3181 
0.0295679 -0.0130054 0.318701 -0.0349621 -0.00835488 0.318745 -0.022991 -0.00331584 0.320022 
-0.00114768 -0.00912106 0.322747 0.000214155 -0.000691283 0.320992 0.00687425 -0.00645905 0.322792 
0.0140319 -0.00610829 0.314082 -0.0320958 0.00650109 0.320532 -0.0186821 0.00346129 0.319547 
-0.0124514 0.0091806 0.319784 -0.0056307 0.00478237 0.314185 0.0116143 0.00171728 0.32095 
0.00671123 0.00419623 0.314248 0.0204706 0.00237306 0.318456 0.0141178 0.00785723 0.314953 
0.0331529 0.00138385 0.320258 0.0293931 0.00994233 0.323124 -0.0266743 0.0206488 0.31748 
-0.0321524 0.0143118 0.318413 -0.0152971 0.0210948 0.31993 -0.0209906 0.0117938 0.320238 
-0.00513029 0.0151878 0.322516 0.00304598 0.0123562 0.318599 0.00737495 0.0217398 0.313998 
0.0220392 0.0136788 0.316801 0.0146429 0.0228226 0.321937 0.0239739 0.0219989 0.320048 
-0.0122454 0.0308958 0.321775 -0.0226872 0.0275606 0.316272 -0.00565799 0.0261927 0.317845 
0.00238112 0.0284555 0.315998 0.00948784 0.0324495 0.323619 0.0104499 0.0308047 0.315667 
0.0214911 0.028668 0.315302 -0.00376298 0.0355793 0.323173 -0.0126418 -0.0291052 0.325585 
-0.0187803 -0.0243839 0.329141 -0.00530925 -0.0326111 0.327058 0.00171279 -0.0274744 0.328532 
0.0193522 -0.0281365 0.330958 0.0117457 -0.0294791 0.326919 -0.0294981 -0.0141713 0.326221 
-0.0165129 -0.0117622 0.333431 -0.0116818 -0.0160656 0.327688 0.01157 -0.0225197 0.332793 
0.00217802 -0.0196741 0.325085 0.00143666 -0.0139945 0.331942 0.0160543 -0.0154653 0.332212 
0.0292106 -0.0182217 0.32669 0.0246077 -0.018926 0.335118 -0.0244379 -0.00839249 0.330526 
-0.00875749 -0.000842912 0.3255 -0.00288938 -0.0017375 0.335072 -0.00643117 -0.00873519 0.331027 
0.0118223 -0.00643591 0.330236 0.0211955 -0.00683142 0.327311 0.0344757 -0.00719255 0.334574 
0.0253686 -0.00567918 0.335719 -0.029192 0.0095002 0.332296 -0.0314726 0.00041336 0.330045 
-0.0138566 0.00628673 0.327223 -0.0195014 0.000708646 0.332912 -0.00454537 0.00601106 0.329788 
0.01518 0.0102616 0.32624 0.023657 0.00282179 0.327216 -0.0278966 0.0225853 0.332519 
-0.0195243 0.015712 0.329809 -0.00581056 0.0219236 0.326804 0.00730764 0.0194723 0.331673 
0.00214267 0.0118614 0.333389 0.0183108 0.0182758 0.333462 0.0311262 0.0175349 0.332181 
-0.0191239 0.0251793 0.331411 -0.00771409 0.0292205 0.333336 0.00261561 0.0301941 0.327505 
0.0182894 0.0302199 0.32523 0.0134889 0.0250734 0.332667 -0.01352 -0.0302306 0.336982 
-0.00866512 -0.0346949 0.345415 -0.000501765 -0.0331574 0.346037 0.000517423 -0.0236713 0.338633 
0.0030967 -0.0337719 0.337327 0.00896923 -0.0238857 0.344898 0.0144444 -0.032163 0.337818 
-0.0248673 -0.0177167 0.335919 -0.0263708 -0.0219002 0.342821 -0.0156651 -0.0191464 0.33714 
-0.0164894 -0.0172355 0.346967 -0.00681231 -0.0144988 0.340897 0.0053081 -0.0170256 0.342223 
0.013591 -0.0169796 0.344059 0.0292918 -0.0132754 0.342946 0.0257451 -0.0216479 0.344156 
-0.0352592 -0.00186367 0.345846 -0.034448 -0.00780654 0.338657 -0.0273553 -0.0045097 0.343866 
-0.0189922 -0.00212266 0.344472 -0.0130043 -0.00318471 0.338764 -0.00913472 -0.0073159 0.344512 
0.00148456 -0.00896285 0.343002 0.00661624 -0.000880966 0.336735 0.0172159 -0.00669828 0.337607 
0.0303444 -0.00245573 0.344778 -0.0305489 0.00382207 0.338079 -0.0263074 0.0109476 0.340846 
-0.0188201 0.0114144 0.345745 -0.0149728 0.00525093 0.341994 0.0025282 0.00599695 0.341839 
0.0105248 0.00990031 0.337448 0.0106146 0.00428008 0.345007 0.0198781 0.0108285 0.337009 
0.0230471 0.00106815 0.341134 0.031936 0.00910975 0.343334 0.0298125 0.00519202 0.336574 
-0.0258442 0.0221618 0.341818 -0.0134028 0.0186015 0.339871 -0.00601081 0.0163024 0.336873 
0.00386615 0.0184067 0.342616 0.0127385 0.0163408 0.344309 0.0311547 0.016617 0.347216 
-0.0184003 0.025587 0.341783 -0.0102984 0.0344521 0.339334 -0.00206374 0.0347045 0.341917 
-0.00259727 0.0276888 0.346295 0.0101133 0.0307842 0.339378 0.0029194 0.0263029 0.336899 
0.0238703 0.0237865 0.338528 0.00508148 -0.0356035 0.355395 -0.0156378 -0.0250608 0.348771 
-0.00440943 -0.0293346 0.356664 -0.00728425 -0.0263269 0.349491 0.00856155 -0.0260788 0.357507 
0.016625 -0.0238134 0.349395 -0.0154803 -0.0175109 0.357622 -0.00134811 -0.0176399 0.350871 
0.00140508 -0.0125023 0.357216 0.00636328 -0.0123469 0.350327 0.0186267 -0.01358 0.349298 
0.0211601 -0.0163482 0.356701 0.0290343 -0.0199196 0.352661 -0.0262186 -0.011821 0.348471 
-0.0148229 -0.00902415 0.352781 -0.00916761 -2.78671e-05 0.357641 0.00298904 -0.00327422 0.354796 
0.014553 -0.00787208 0.355878 0.0217995 -0.00353084 0.356594 0.0277247 -0.0103197 0.355817 
0.0307143 -0.00218841 0.355795 -0.0286141 0.00265464 0.350399 -0.0281114 0.0116194 0.351164 
-0.00809804 0.00342187 0.347183 0.0214913 0.00481769 0.353825 0.032068 0.00681189 0.353212 
-0.0260555 0.0199235 0.349604 -0.0204765 0.0117674 0.354876 -0.00579646 0.0188353 0.348623 
0.00915093 0.0226642 0.354007 0.00625065 0.0146228 0.350144 0.0197879 0.0146942 0.349592 
0.0141759 0.0150805 0.357067 -0.0212324 0.0276792 0.349877 -0.00981347 0.025076 0.357328 
0.0045 0.0315685 0.354847 0.00843177 0.0328198 0.34783 0.0164889 0.0251168 0.350547 
-0.016871 -0.0304956 0.366713 -0.0175895 -0.0264644 0.359162 -0.000539846 -0.0331991 0.368673 
0.0212895 -0.0276066 0.360814 0.0128784 -0.0327331 0.36178 -0.0244102 -0.0223134 0.364118 
-0.00645043 -0.0124269 0.366682 0.0022121 -0.021252 0.358261 0.0092047 -0.0218541 0.36637 
0.0122669 -0.0159697 0.359354 0.0181579 -0.0204996 0.36818 0.0331051 -0.013327 0.363388 
-0.0355511 -0.00815129 0.358489 -0.028571 -0.0109005 0.364379 -0.0307254 -0.00142708 0.361492 
-0.0149988 -0.00551089 0.361138 -0.00452399 -0.00704512 0.35859 0.00335103 -0.0112634 0.367621 
0.0299827 -0.00286733 0.363987 -0.0230665 0.000995646 0.359689 -0.0187969 0.00048702 0.368846 
-0.0107331 0.00819327 0.366224 0.000761616 0.000486801 0.361734 0.00980077 0.00154778 0.358623 
0.0232177 0.00187306 0.362961 0.0160699 0.00666483 0.36104 0.0336342 0.0107679 0.363496 
-0.0267257 0.0207067 0.3614 -0.0217235 0.0127818 0.366627 -0.0130644 0.0223591 0.367437 
-0.0120609 0.0172791 0.361042 -0.0028364 0.0228293 0.364771 -0.00251631 0.01421 0.360601 
0.00577469 0.0152469 0.361183 0.0206401 0.0182986 0.365699 0.0132618 0.011825 0.368755 
0.0272802 0.0190597 0.360609 -0.0156154 0.0323255 0.360168 -0.0192953 0.0243335 0.358372 
-0.00746163 0.0323211 0.361189 0.00591389 0.034687 0.36808 0.0191745 0.0263284 0.367066 
0.0126072 0.0260321 0.362128 -0.0182298 -0.0291942 0.378171 -0.0116162 -0.0333414 0.373523 
0.00817129 -0.0305111 0.369938 0.00234458 -0.0347076 0.378376 0.0248741 -0.0239829 0.375739 
-0.0288605 -0.0190002 0.370655 -0.0212109 -0.012336 0.375763 -0.0137242 -0.0220228 0.370074 
-0.00559887 -0.0185761 0.376766 -0.000253271 -0.0183529 0.37083 0.010775 -0.0160441 0.372655 
0.0242364 -0.015335 0.380027 -0.0303255 -0.00104088 0.370265 -0.0119198 -0.000370431 0.37768 
-0.0128609 -0.0085695 0.379781 -0.0157224 -0.00703381 0.370458 0.000186171 -0.0102582 0.375042 
0.000307416 -0.00205438 0.372773 0.008959 -0.00953508 0.377262 0.008901 -0.000969244 0.378618 
0.0143587 -0.00815904 0.369849 0.0201923 -0.00246769 0.377567 0.0221141 -0.00875205 0.372111 
0.0319071 -0.00848145 0.369655 -0.0334075 0.0036746 0.37762 -0.0297988 0.00796207 0.371841 
-0.0251466 0.00130603 0.379086 -0.0128797 0.0113114 0.378578 -0.00202731 0.0069607 0.371333 
0.0110718 0.00380488 0.369851 0.00475577 0.010312 0.380207 0.0202683 0.0100215 0.373611 
0.0292501 0.00715555 0.370173 0.0348479 0.00796985 0.377529 -0.0299007 0.0191129 0.376903 
-0.0139358 0.0209838 0.379637 -0.00433992 0.0189369 0.37978 -0.00744359 0.0155854 0.37095 
0.0293603 0.0188031 0.369884 0.0276513 0.0153812 0.379984 -0.0207851 0.0244817 0.371879 
-0.0122501 0.0321976 0.371845 0.00978649 0.0252158 0.369648 0.00642163 0.0319392 0.378021 
0.0218582 0.0280856 0.375836 0.0138935 0.0280585 0.379506 0.0143067 -0.0280577 0.380891 
-0.0274988 -0.012388 0.382561 -0.0247004 -0.0204562 0.381709 -0.0151642 -0.0225471 0.381557 
0.00592951 -0.0227646 0.380238 0.00159381 -0.0128021 0.38462 0.0132839 -0.0176334 0.384442 
-0.023776 -0.00374391 0.385394 0.0276447 -0.00261683 0.38143 0.0351945 -0.00552426 0.382695 
-0.00519732 0.00861762 0.382228 0.0157084 0.0109404 0.383593 0.0267226 0.00614226 0.381823 
-0.0309197 0.0118971 0.38285 -0.0209858 0.0124492 0.380414 0.00859297 0.0221022 0.380613 
-0.00471995 0.031827 0.384428 -0.0136463 0.0238537 0.304139 -0.021418 0.0271956 0.385704 
-0.00326216 -0.0271537 0.376393 0.000247526 0.000173261 0.380971 -0.0032299 0.0351285 0.351186 
0.0265877 -0.0205427 0.36614 0.00277019 -0.00134219 0.346937 -0.0220439 -0.0115612 0.358106 
0.0103299 0.0153524 0.376563 0.0174196 -0.0289388 0.373094 0.0337233 -0.0124396 0.309443 
-0.00148344 0.0278945 0.371173 -0.0103006 -0.00159241 0.385822 -0.0264568 -0.0197961 0.352612 
-0.0102641 -0.0292573 0.381935 -0.00979525 0.0112861 0.351237 
VERTICES 350 700
1 0 
1 1 
1 2 
1 3 
1 4 
1 5 
1 6 
1 7 
1 8 
1 9 
1 10 
1 11 
1 12 
1 13 
1 14 
1 15 
1 16 
1 17 
1 18 
1 19 
1 20 
1 21 
1 22 
1 23 
1 24 
1 25 
1 26 
1 27 
1 28 
1 29 
1 30 
1 31 
1 32 
1 33 
1 34 
1 35 
1 36 
1 37 
1 38 
1 39 
1 40 
1 41 
1 42 
1 43 
1 44 
1 45 
1 46 
1 47 
1 48 
1 49 
1 50 
1 51 
1 52 
1 53 
1 54 
1 55 
1 56 
1 57 
1 58 
1 59 
1 60 
1 61 
1 62 
1 63 
1 64 
1 65 
1 66 
1 67 
1 68 
1 69 
1 70 
1 71 
1 72 
1 73 
1 74 
1 75 
1 76 
1 77 
1 78 
1 79 
1 80 
1 81 
1 82 
1 83 
1 84 
1 85 
1 86 
1 87 
1 88 
1 89 
1 90 
1 91 
1 92 
1 93 
1 94 
1 95 
1 96 
1 97 
1 98 
1 99 
1 100 
1 101 
1 102 
1 103 
1 104 
1 105 
1 106 
1 107 
1 108 
1 109 
1 110 
1 111 
1 112 
1 113 
1 114 
1 115 
1 116 
1 117 
1 118 
1 119 
1 120 
1 121 
1 122 
1 123 
1 124 
1 125 
1 126 
1 127 
1 128 
1 129 
1 130 
1 131 
1 132 
1 133 
1 134 
1 135 
1 136 
1 137 
1 138 
1 139 
1 140 
1 141 
1 142 
1 143 
1 144 
1 145 
1 146 
1 147 
1 148 
1 149 
1 150 
1 151 
1 152 
1 153 
1 154 
1 155 
1 156 
1 157 
1 158 
1 159 
1 160 
1 161 
1 162 
1 163 
1 164 
1 165 
1 166 
1 167 
1 168 
1 169 
1 170 
1 171 
1 172 
1 173 
1 174 
1 175 
1 176 
1 177 
1 178 
1 179 
1 180 
1 181 
1 182 
1 183 
1 184 
1 185 
1 186 
1 187 
1 188 
1 189 
1 190 
1 191 
1 192 
1 193 
1 194 
1 195 
1 196 
1 197 
1 198 
1 199 
1 200 
1 201 
1 202 
1 203 
1 204 
1 205 
1 206 
1 207 
1 208 
1 209 
1 210 
1 211 
1 212 
1 213 
1 214 
1 215 
1 216 
1 217 
1 218 
1 219 
1 220 
1 221 
1 222 
1 223 
1 224 
1 225 
1 226 
1 227 
1 228 
1 229 
1 230 
1 231 
1 232 
1 233 
1 234 
1 235 
1 236 
1 237 
1 238 
1 239 
1 240 
1 241 
1 242 
1 243 
1 244 
1 245 
1 246 
1 247 
1 248 
1 249 
1 250 
1 251 
1 252 
1 253 
1 254 
1 255 
1 256 
1 257 
1 258 
1 259 
1 260 
1 261 
1 262 
1 263 
1 264 
1 265 
1 266 
1 267 
1 268 
1 269 
1 270 
1 271 
1 272 
1 273 
1 274 
1 275 
1 276 
1 277 
1 278 
1 279 
1 280 
1 281 
1 282 
1 283 
1 284 
1 285 
1 286 
1 287 
1 288 
1 289 
1 290 
1 291 
1 292 
1 293 
1 294 
1 295 
1 296 
1 297 
1 298 
1 299 
1 300 
1 301 
1 302 
1 303 
1 304 
1 305 
1 306 
1 307 
1 308 
1 309 
1 310 
1 311 
1 312 
1 313 
1 314 
1 315 
1 316 
1 317 
1 318 
1 319 
1 320 
1 321 
1 322 
1 323 
1 324 
1 325 
1 326 
1 327 
1 328 
1 329 
1 330 
1 331 
1 332 
1 333 
1 334 
1 335 
1 336 
1 337 
1 338 
1 339 
1 340 
1 341 
1 342 
1 343 
1 344 
1 345 
1 346 
1 347 
1 348 
1 349 

POINT_DATA 350
FIELD FieldData 7
id 1 350 int
39 122 177 36 194 21 110 79 26 
275 94 52 125 65 48 248 85 98 
7 312 291 124 70 28 139 297 87 
138 234 135 195 299 268 17 200 325 
259 37 242 106 162 281 251 270 88 
137 46 80 260 108 77 27 307 333 
331 1 72 322 192 185 116 211 250 
163 132 33 168 133 150 51 49 120 
252 112 107 164 44 249 290 310 13 
156 166 279 216 2 161 97 334 20 
32 296 45 78 327 332 267 278 102 
209 266 69 147 220 277 119 244 180 
201 14 43 91 323 301 206 16 318 
3 317 92 142 222 256 35 230 205 
148 188 146 57 53 131 81 298 282 
253 315 76 100 226 225 121 126 136 
182 99 145 90 73 19 258 189 233 
294 129 66 179 224 228 67 313 165 
123 231 29 15 109 336 202 276 172 
218 8 217 10 140 263 105 321 187 
128 269 314 221 213 262 62 95 328 
30 171 319 157 274 118 82 115 183 
265 311 186 130 59 18 86 280 197 
60 113 264 272 23 193 101 127 326 
71 56 219 170 329 210 11 330 246 
153 295 247 215 309 190 174 292 204 
212 47 155 24 149 89 198 61 286 
96 143 254 84 245 93 50 9 196 
5 191 271 151 83 58 302 4 236 
284 42 241 160 223 238 38 75 169 
283 235 68 25 285 240 229 184 255 
111 288 12 41 114 214 55 320 104 
207 6 335 181 273 304 31 154 159 
308 303 64 22 167 34 227 287 134 
103 173 289 158 261 237 239 63 175 
178 40 144 208 324 176 74 300 293 
316 152 306 117 199 305 232 141 243 
257 337 338 339 340 341 342 343 344 
345 346 347 348 349 350 351 352 
type 1 350 int
1 1 1 1 1 1 1 1 1 
1 1 1 1 1 1 1 1 1 
1 1 1 1 1 1 1 1 1 
1 1 1 1 1 1 1 1 1 
1 1 1 1 1 1 1 1 1 
1 1 1 1 1 1 1 1 1 
1 1 1 1 1 1 1 1 1 
1 1 1 1 1 1 1 1 1 
1 1 1 1 1 1 1 1 1 
1 1 1 1 1 1 1 1 1 
1 1 1 1 1 1 1 1 1 
1 1 1 1 1 1 1 1 1 
1 1 1 1 1 1 1 1 1 
1 1 1 1 1 1 1 1 1 
1 1 1 1 1 1 1 1 1 
1 1 1 1 1 1 1 1 1 
1 1 1 1 1 1 1 1 1 
1 1 1 1 1 1 1 1 1 
1 1 1 1 1 1 1 1 1 
1 1 1 1 1 1 1 1 1 
1 1 1 1 1 1 1 1 1 
1 1 1 1 1 1 1 1 1 
1 1 1 1 1 1 1 1 1 
1 1 1 1 1 1 1 1 1 
1 1 1 1 1 1 1 1 1 
1 1 1 1 1 1 1 1 1 
1 1 1 1 1 1 1 1 1 
1 1 1 1 1 1 1 1 1 
1 1 1 1 1 1 1 1 1 
1 1 1 1 1 1 1 1 1 
1 1 1 1 1 1 1 1 1 
1 1 1 1 1 1 1 1 1 
1 1 1 1 1 1 1 1 1 
1 1 1 1 1 1 1 1 1 
1 1 1 1 1 1 1 1 1 
1 1 1 1 1 1 1 1 1 
1 1 1 1 1 1 1 1 1 
1 1 1 1 1 1 1 1 1 
1 1 1 1 1 1 1 1 
i 3 350 int
0 0 0 0 0 0 0 0 0 
0 0 0 0 0 0 0 0 0 
0 0 0 0 0 0 0 0 0 
0 0 0 0 0 0 0 0 0 
0 0 0 0 0 0 0 0 0 
0 0 0 0 0 0 0 0 0 
0 0 0 0 0 0 0 0 0 
0 0 0 0 0 0 0 0 0 
0 0 0 0 0 0 0 0 0 
0 0 0 0 0 0 0 0 0 
0 0 0 0 0 0 0 0 0 
0 0 0 0 0 0 0 0 0 
0 0 0 0 0 0 0 0 0 
0 0 0 0 0 0 0 0 0 
0 0 0 0 0 0 0 0 0 
0 0 0 0 0 0 0 0 0 
0 0 0 0 0 0 0 0 0 
0 0 0 0 0 0 0 0 0 
0 0 0 0 0 0 0 0 0 
0 0 0 0 0 0 0 0 0 
0 0 0 0 0 0 0 0 0 
0 0 0 0 0 0 0 0 0 
0 0 0 0 0 0 0 0 0 
0 0 0 0 0 0 0 0 0 
0 0 0 0 0 0 0 0 0 
0 0 0 0 0 0 0 0 0 
0 0 0 0 0 0 0 0 0 
0 0 0 0 0 0 0 0 0 
0 0 0 0 0 0 0 0 0 
0 0 0 0 0 0 0 0 0 
0 0 0 0 0 0 0 0 0 
0 0 0 0 0 0 0 0 0 
0 0 0 0 0 0 0 0 0 
0 0 0 0 0 0 0 0 0 
0 0 0 0 0 0 0 0 0 
0 0 0 0 0 0 0 0 0 
0 0 0 0 0 0 0 0 0 
0 0 0 0 0 0 0 0 0 
0 0 0 0 0 0 0 0 0 
0 0 0 0 0 0 0 0 0 
0 0 0 0 0 0 0 0 0 
0 0 0 0 0 0 0 0 0 
0 0 0 0 0 0 0 0 0 
0 0 0 0 0 0 0 0 0 
0 0 0 0 0 0 0 0 0 
0 0 0 0 0 0 0 0 0 
0 0 0 0 0 0 0 0 0 
0 0 0 0 0 0 0 0 0 
0 0 0 0 0 0 0 0 0 
0 0 0 0 0 0 0 0 0 
0 0 0 0 0 0 0 0 0 
0 0 0 0 0 0 0 0 0 
0 0 0 0 0 0 0 0 0 
0 0 0 0 0 0 0 0 0 
0 0 0 0 0 0 0 0 0 
0 0 0 0 0 0 0 0 0 
0 0 0 0 0 0 0 0 0 
0 0 0 0 0 0 0 0 0 
0 0 0 0 0 0 0 0 0 
0 0 0 0 0 0 0 0 0 
0 0 0 0 0 0 0 0 0 
0 0 0 0 0 0 0 0 0 
0 0 0 0 0 0 0 0 0 
0 0 0 0 0 0 0 0 0 
0 0 0 0 0 0 0 0 0 
0 0 0 0 0 0 0 0 0 
0 0 0 0 0 0 0 0 0 
0 0 0 0 0 0 0 0 0 
0 0 0 0 0 0 0 0 0 
0 0 0 0 0 0 0 0 0 
0 0 0 0 0 0 0 0 0 
0 0 0 0 0 0 0 0 0 
0 0 0 0 0 0 0 0 0 
0 0 0 0 0 0 0 0 0 
0 0 0 0 0 0 0 0 0 
0 0 0 0 0 0 0 0 0 
0 0 0 0 0 0 0 0 0 
0 0 0 0 0 0 0 0 0 
0 0 0 0 0 0 0 0 0 
0 0 0 0 0 0 0 0 0 
0 0 0 0 0 0 0 0 0 
0 0 0 0 0 0 0 0 0 
0 0 0 0 0 0 0 0 0 
0 0 0 0 0 0 0 0 0 
0 0 0 0 0 0 0 0 0 
0 0 0 0 0 0 0 0 0 
0 0 0 0 0 0 0 0 0 
0 0 0 0 0 0 0 0 0 
0 0 0 0 0 0 0 0 0 
0 0 0 0 0 0 0 0 0 
0 0 0 0 0 0 0 0 0 
0 0 0 0 0 0 0 0 0 
0 0 0 0 0 0 0 0 0 
0 0 0 0 0 0 0 0 0 
0 0 0 0 0 0 0 0 0 
0 0 0 0 0 0 0 0 0 
0 0 0 0 0 0 0 0 0 
0 0 0 0 0 0 0 0 0 
0 0 0 0 0 0 0 0 0 
0 0 0 0 0 0 0 0 0 
0 0 0 0 0 0 0 0 0 
0 0 0 0 0 0 0 0 0 
0 0 0 0 0 0 0 0 0 
0 0 0 0 0 0 0 0 0 
0 0 0 0 0 0 0 0 0 
0 0 0 0 0 0 0 0 0 
0 0 0 0 0 0 0 0 0 
0 0 0 0 0 0 0 0 0 
0 0 0 0 0 0 0 0 0 
0 0 0 0 0 0 0 0 0 
0 0 0 0 0 0 0 0 0 
0 0 0 0 0 0 0 0 0 
0 0 0 0 0 0 0 0 0 
0 0 0 0 0 0 0 0 0 
0 0 0 0 0 0 0 0 0 
0 0 0 0 0 0 0 0 0 
0 0 0 0 0 0 
v 3 350 double
0 0 -0.36271309375 0 0 -0.26461309375 0 0 -0.20513996875 
0 0 -0.36700496875 -0.040540336081 -0.07453391424 -0.27096455235 0 0 -0.37988059375 
-0.0086536763841 -0.039798913298 -0.33329079922 0 0 -0.31488934375 0 0 -0.37436246875 
0 0 -0.10090871875 0 0 -0.30140059375 0 0 -0.34615871875 
0 0 -0.26277371875 0 0 -0.33328309375 0.0039045715236 0.085316457224 -0.16531989046 
-0.0039045715236 -0.085316457224 -0.31117754704 0 0 -0.30814496875 0 0 -0.29772184375 
0 0 -0.38846434375 0 0 -0.05676371875 0 0 -0.08190184375 
0 0 -0.26338684375 -0.0069069981459 0.0017151306926 -0.3211874233 0 0 -0.37313621875 
0.0069069981459 -0.0017151306926 -0.2570887642 -0.00039844185748 -0.0039917562747 -0.10654259811 0 0 -0.30630559375 
0 0 -0.24989809375 0 0 -0.14137496875 0 0 -0.25235059375 
0 0 -0.18245434375 0 0 -0.07393121875 0 0 -0.10642684375 
0.040540336081 0.07453391424 -0.29566226015 0 0 -0.17632309375 0.0063546805689 -0.043626523098 -0.082199033085 
0.1050056276 -0.049815017335 -0.24556973112 0.0086536763841 0.039798913298 -0.31488163828 0.04611493343 0.0077276703764 -0.2861677312 
0 0 -0.28607246875 0 0 -0.22230746875 0.1177485213 -0.015777332626 -0.20594719566 
0 0 -0.12298121875 -0.052206350564 0.049842012906 -0.27848735941 -0.11016187145 0.0096723039135 -0.27613556428 
0 0 -0.25051121875 -0.039544501169 0.093127761059 -0.24954990208 0 0 -0.31366309375 
0 0 -0.11378434375 0 0 -0.28300684375 0 0 -0.31734184375 
0 0 -0.37374934375 0 0 -0.06596059375 0 0 -0.02917309375 
0 0 -0.03285184375 0 0 -0.39214309375 0.0019867523376 -0.12682622562 -0.19255218623 
-0.0019867523376 0.12682622562 -0.17910087627 0 0 -0.18735934375 0.011406233023 0.011754162552 -0.2164494924 
0 0 -0.27319684375 0 0 -0.16712621875 0 0 -0.12359434375 
0 0 -0.22108121875 0 0 -0.25541621875 -0.0049611020557 -0.0078029594794 -0.35990595155 
0 0 -0.21678934375 0 0 -0.25480309375 -0.063286559517 7.2323899453e-05 -0.35764804777 
0 0 -0.34738496875 0 0 -0.34983746875 0.0049611020557 0.0078029594794 -0.27784336095 
0 0 -0.12236809375 0.00039844185748 0.0039917562747 -0.24855608939 0 0 -0.28484621875 
-0.033627089501 -0.0010781029455 -0.20851678067 0.0074681243282 -0.048642955073 -0.13363231257 -0.019955968257 0.041993387642 -0.20695805056 
0 0 -0.08251496875 0 0 -0.05982934375 -0.12114943418 0.03530371579 -0.21056032686 
0 0 -0.23027809375 0 0 -0.21862871875 0 0 -0.09477746875 
0 0 -0.16099496875 0.057362594421 -0.0096992994846 -0.11662784519 0.014322228611 -0.019260461125 -0.24900544848 
0 0 -0.29894809375 0 0 -0.02794684375 0.040858896355 -0.10975493567 -0.26062837155 
0 0 -0.37068371875 -0.0029537676896 0.024100139934 -0.098062694398 0 0 -0.35351621875 
-0.014322228611 0.019260461125 -0.28941761402 0.098101037007 0.03219520784 -0.14276698665 0 0 -0.03101246875 
-0.040858896355 0.10975493567 -0.22751844095 0 0 -0.09661684375 -0.011406233023 -0.011754162552 -0.2716973201 
-0.047524806029 -0.079903072459 -0.32623339829 0 0 -0.11010559375 -0.0032186620856 -0.053965726125 -0.27577415577 
0 0 -0.24070121875 0 0 -0.15731621875 0 0 -0.09968246875 
0 0 -0.26829184375 0 0 -0.13156496875 0 0 -0.20268746875 
0.0032186620856 0.053965726125 -0.22892703173 0 0 -0.38417246875 0 0 -0.35719496875 
0 0 -0.30385309375 0 0 -0.04388809375 0 0 -0.07209184375 
0.030025512808 -0.041982361982 -0.22725511922 0 0 -0.38294621875 0 0 -0.05001934375 
-0.0064665621148 0.0030107222759 -0.36778091106 0 0 -0.05063246875 0 0 -0.30323996875 
0.013527031373 -0.058666292391 -0.30701796817 0 0 -0.15547684375 0 0 -0.11807621875 
-0.030025512808 0.041982361982 -0.31178106828 0 0 -0.14566684375 0 0 -0.17203121875 
0 0 -0.24008809375 0 0 -0.19165121875 0 0 -0.24131434375 
0 0 -0.34125371875 0 0 -0.34554559375 0 0 -0.25602934375 
0 0 -0.31304996875 -0.04323485348 -0.12286907779 -0.21533207381 0 0 -0.09171184375 
0 0 -0.11991559375 0 0 -0.05369809375 -0.098101037007 -0.03219520784 -0.21846295085 
0 0 -0.29526934375 -0.017619952998 -0.026974334573 -0.24357589829 0 0 -0.15241121875 
0 0 -0.26583934375 0 0 -0.26216059375 0 0 -0.25112434375 
0 0 -0.19962184375 0.020206885909 -0.037862916868 -0.25110048911 0 0 -0.24192746875 
0.0030699026065 0.0085423300493 -0.31905502598 -0.0030699026065 -0.0085423300493 -0.31011053652 0.047524806029 0.079903072459 -0.22383903921 
0 0 -0.11562371875 0 0 -0.19042496875 -0.020206885909 0.037862916868 -0.18738319839 
-0.072394815911 -0.057771323316 -0.1798424447 0 0 -0.25725559375 0 0 -0.33266996875 
-0.061150395989 -0.041578866939 -0.27864778402 0 0 -0.15363746875 -0.015197347149 0.097747525122 -0.24869496388 
0 0 -0.33205684375 0 0 -0.05553746875 0 0 -0.21924184375 
0 0 -0.26399996875 0 0 -0.14505371875 0.069753121632 -0.0030830461754 -0.27564657242 
0 0 -0.38355934375 0 0 -0.28239371875 0 0 -0.02610746875 
0 0 -0.17325746875 -0.084610470601 0.022511017379 -0.19318632149 -0.058816817246 0.012487859081 -0.27309818717 
0 0 -0.15915559375 0.058816817246 -0.012487859081 -0.32786362533 0 0 -0.15976871875 
-0.098006524547 -0.0037158944934 -0.22876253407 0.023251484021 0.041751355242 -0.17627586586 0.061228009153 0.020630831642 -0.2795653819 
-0.011307345297 0.0096284155086 -0.32473900507 0 0 -0.04634059375 0 0 -0.19226434375 
0 0 -0.25909496875 0 0 -0.10581371875 0 0 -0.05431121875 
0.013505094266 0.0062649885164 -0.1741439013 0 0 -0.16528684375 0 0 -0.11255809375 
0 0 -0.33696184375 -0.038088587169 0.060693876188 -0.20920501706 0 0 -0.03653059375 
0.098943393646 0.089149536179 -0.23154001084 0 0 -0.21372371875 0 0 -0.04940621875 
0 0 -0.22782559375 0 0 -0.10213496875 0 0 -0.26890496875 
0 0 -0.31243684375 0 0 -0.27380996875 0 0 -0.19900871875 
0.017523978068 -0.016129321493 -0.14096549729 0 0 -0.05798996875 0.1090999785 -0.0013281571488 -0.18253108556 
0.039170613499 -0.0016671018202 -0.29610403921 0 0 -0.33941434375 0.015197347149 -0.097747525122 -0.28114434862 
0 0 -0.30691871875 0 0 -0.09416434375 0 0 -0.18061496875 
-0.071855443314 0.012164587274 -0.27283648716 0.019898475928 -0.0050830467248 -0.32298057886 -0.076829483215 0.042783025178 -0.2488349678 
0.012772835856 0.037641828471 -0.3573271803 0.061150395989 0.041578866939 -0.30146777848 0 0 -0.18551996875 
0.084610470601 -0.022511017379 -0.20115236601 0 0 -0.25970809375 0 0 -0.04082246875 
-0.002197748969 -0.015893404025 -0.27165762488 0 0 -0.34186684375 0 0 -0.15854246875 
-0.029138478915 -0.0097392699973 -0.1849302827 0 0 -0.03530434375 0 0 -0.16835246875 
0 0 -0.38601184375 0 0 -0.03407809375 0 0 -0.12849934375 
0 0 -0.23518309375 0 0 -0.07883621875 0.029138478915 0.0097392699973 -0.1579059048 
0 0 -0.16283434375 0 0 -0.06350809375 0 0 -0.18981184375 
0 0 -0.20820559375 0 0 -0.08128871875 0 0 -0.17264434375 
0 0 -0.16651309375 0 0 -0.35228996875 -0.011373109757 -0.018308405787 -0.35987022195 
-0.039170613499 0.0016671018202 -0.33612714829 0 0 -0.23824871875 0.080279313828 -0.082061651588 -0.2247214132 
-0.069721617851 0.027461150271 -0.26471014627 0.069721617851 -0.027461150271 -0.25225354123 0 0 -0.08619371875 
0 0 -0.30017434375 -0.017523978068 0.016129321493 -0.21474631521 0.049119270578 -0.016157608266 -0.2366204977 
-0.044120682856 0.065369819519 -0.209552746 0 0 -0.12972559375 0 0 -0.30262684375 
0 0 -0.34799809375 0 0 -0.38723809375 0 0 -0.18184121875 
0.015251804798 0.052017939915 -0.31950362247 0 0 -0.18797246875 0 0 -0.10458746875 
0 0 -0.23640934375 0 0 -0.30998434375 -0.025020931279 0.12666787868 -0.17134462095 
0.025020931279 -0.12666787868 -0.24077469155 -0.0038366732432 0.10331143528 -0.28622417019 0.0038366732432 -0.10331143528 -0.24361514231 
0 0 -0.09048559375 0 0 -0.35964746875 0 0 -0.13524371875 
0 0 -0.22353371875 0 0 -0.15425059375 0 0 -0.13830934375 
0 0 -0.36332621875 0 0 -0.32224684375 0 0 -0.21617621875 
0.078731197633 0.022785431954 -0.30348877339 -0.0089209643463 -0.019343345205 -0.16169773311 0 0 -0.33144371875 
-0.0064662770466 -0.050425456973 -0.32438362476 0 0 -0.08803309375 0.0068840784927 -0.093360436914 -0.23121798472 
0 0 -0.14627996875 0 0 -0.19716934375 0 0 -0.11868934375 
-0.0085031948608 -0.00035507369921 -0.21567686334 0.0085031948608 0.00035507369921 -0.14861869916 0.0023710543794 -0.0015664155598 -0.2930158602 
-0.0068840784927 0.093360436914 -0.26551257778 0 0 -0.27442309375 0.005341757996 0.046536221093 -0.21490573581 
-0.005341757996 -0.046536221093 -0.29347420169 0 0 -0.04817996875 -0.049373589304 -0.014509816083 -0.13795550258 
0.00025431872562 0.030667424349 -0.20405640597 -0.05404780198 0.018272483573 -0.26519004256 0 0 -0.02672059375 
0.069516134405 0.052027794748 -0.34118384428 -0.049517149609 0.00099095736363 -0.15189999356 0 0 -0.06963934375 
0.027898016387 -0.063733021581 -0.16061728646 -0.00318816577 -0.0037877922212 -0.22889580663 0.00318816577 0.0037877922212 -0.22982100587 
0 0 -0.06534746875 0 0 -0.07086559375 0 0 -0.33450934375 
0 0 -0.37742809375 0 0 -0.21801559375 0 0 -0.36884434375 
0 0 -0.14995871875 0 0 -0.08558059375 0 0 -0.25357684375 
0 0 -0.28913809375 0 0 -0.21127121875 0 0 -0.08374121875 
0 0 -0.22659934375 0 0 -0.11317121875 0 0 -0.13892246875 
0 0 -0.13769621875 -0.078731197633 -0.022785431954 -0.12273241411 -0.031080473114 0.015024590201 -0.24697405499 
0.061078853826 -0.00097657415873 -0.26351722214 -0.029998380711 -0.014048016042 -0.26188862912 0 0 -0.24437996875 
0 0 -0.16957871875 0 0 -0.04327496875 0.0089209643463 0.019343345205 -0.18481720439 
0 0 -0.32285996875 0 0 -0.07270496875 0 0 -0.08067559375 
0 0 -0.05247184375 0.049517149609 -0.00099095736363 -0.18664431894 0 0 -0.06657371875 
0 0 -0.27013121875 0 0 -0.17754934375 0 0 -0.06779996875 
0 0 -0.14444059375 0 0 -0.24621934375 0 0 -0.13279121875 
0 0 -0.11684996875 0.039544501169 -0.093127761059 -0.12884753542 0 0 -0.02181559375 
0 0 -0.01936309375 0 0 -0.01813684375 0 0 -0.01507121875 
0 0 -0.01445809375 0 0 -0.01323184375 0 0 -0.01200559375 
0 0 -0.00955309375 0 0 -0.00710059375 0 0 -0.00587434375 
0 0 -0.00526121875 0 0 -0.00464809375 0 0 -0.00403496875 
0 0 -0.00280871875 0 0 -0.00219559375 
f 3 350 double
0 0 -0.0065747251054 0 0 -0.0065747251054 0 0 -0.0065747251054 
0 0 -0.0065747251054 0 0 -0.0065747251054 0 0 -0.0065747251054 
0 0 -0.0065747251054 0 0 -0.0065747251054 0 0 -0.0065747251054 
0 0 -0.0065747251054 0 0 -0.0065747251054 0 0 -0.0065747251054 
0 0 -0.0065747251054 0 0 -0.0065747251054 0 0 -0.0065747251054 
0 0 -0.0065747251054 0 0 -0.0065747251054 0 0 -0.0065747251054 
0 0 -0.0065747251054 0 0 -0.0065747251054 0 0 -0.0065747251054 
0 0 -0.0065747251054 0 0 -0.0065747251054 0 0 -0.0065747251054 
0 0 -0.0065747251054 -0.011925780051 -0.11947742551 -0.74894373696 0 0 -0.0065747251054 
0 0 -0.0065747251054 0 0 -0.0065747251054 0 0 -0.0065747251054 
0 0 -0.0065747251054 0 0 -0.0065747251054 0 0 -0.0065747251054 
0 0 -0.0065747251054 0 0 -0.0065747251054 0 0 -0.0065747251054 
0 0 -0.0065747251054 0 0 -0.0065747251054 0 0 -0.0065747251054 
0 0 -0.0065747251054 0 0 -0.0065747251054 0 0 -0.0065747251054 
0 0 -0.0065747251054 0 0 -0.0065747251054 0 0 -0.0065747251054 
0 0 -0.0065747251054 0 0 -0.0065747251054 0 0 -0.0065747251054 
0 0 -0.0065747251054 0 0 -0.0065747251054 0 0 -0.0065747251054 
0 0 -0.0065747251054 0 0 -0.0065747251054 0 0 -0.0065747251054 
0 0 -0.0065747251054 0 0 -0.0065747251054 0 0 -0.0065747251054 
0 0 -0.0065747251054 0 0 -0.0065747251054 0 0 -0.0065747251054 
0 0 -0.0065747251054 0 0 -0.0065747251054 0 0 -0.0065747251054 
0 0 -0.0065747251054 0 0 -0.0065747251054 0 0 -0.0065747251054 
0 0 -0.0065747251054 0 0 -0.0065747251054 0 0 -0.0065747251054 
0 0 -0.0065747251054 0 0 -0.0065747251054 0 0 -0.0065747251054 
0 0 -0.0065747251054 0.011925780051 0.11947742551 0.73579428675 0 0 -0.0065747251054 
0 0 -0.0065747251054 0 0 -0.0065747251054 0 0 -0.0065747251054 
0 0 -0.0065747251054 0 0 -0.0065747251054 0 0 -0.0065747251054 
0 0 -0.0065747251054 0 0 -0.0065747251054 0 0 -0.0065747251054 
0 0 -0.0065747251054 0 0 -0.0065747251054 0 0 -0.0065747251054 
0 0 -0.0065747251054 0 0 -0.0065747251054 0 0 -0.0065747251054 
0 0 -0.0065747251054 0 0 -0.0065747251054 0 0 -0.0065747251054 
0 0 -0.0065747251054 0 0 -0.0065747251054 0 0 -0.0065747251054 
0 0 -0.0065747251054 0 0 -0.0065747251054 0 0 -0.0065747251054 
0 0 -0.0065747251054 0 0 -0.0065747251054 0 0 -0.0065747251054 
0 0 -0.0065747251054 0 0 -0.0065747251054 0 0 -0.0065747251054 
0 0 -0.0065747251054 0 0 -0.0065747251054 0 0 -0.0065747251054 
0 0 -0.0065747251054 0 0 -0.0065747251054 0 0 -0.0065747251054 
0 0 -0.0065747251054 0 0 -0.0065747251054 0 0 -0.0065747251054 