# vtk DataFile Version 4.2
Generated by LIGGGHTS
ASCII
DATASET POLYDATA
POINTS 873 float
-0.0303549 -0.0149054 0.183837 0.0302103 -0.0148053 0.186859 -0.00247519 -0.000535171 0.182488 
-0.0241314 0.0236169 0.186877 0.0129335 -0.040254 0.196369 -0.0286359 -0.0233789 0.197309 
-0.0106164 -0.0292326 0.191116 0.00576233 -0.0325645 0.193498 -0.0121471 -0.0207628 0.193869 
0.0227132 -0.0158465 0.19361 -0.0254177 -0.00782022 0.190788 -0.0135089 -0.00451902 0.187438 
0.00104177 -0.0110355 0.19564 0.0124479 -0.00753037 0.188912 0.0231918 0.000540329 0.197216 
0.0272515 0.0157056 0.191517 0.0214784 0.0267156 0.195643 -0.0231459 -0.0177126 0.203514 
-0.03027 -0.0124133 0.205503 -0.0156694 -0.0227496 0.209357 0.00176941 -0.021574 0.200057 
0.0127458 -0.0211314 0.207033 -0.017716 -0.0103003 0.203959 -0.00775117 -0.00936603 0.19853 
0.0273964 -0.00795184 0.208724 -0.0160714 0.0117404 0.200575 -0.0232453 0.000714258 0.207636 
0.00544824 0.00652227 0.209082 0.0205863 0.00859044 0.207704 0.0290635 0.00199326 0.206405 
0.0411497 0.00683332 0.209516 -0.0158829 0.0198232 0.208279 -0.00773853 0.0210742 0.198675 
-0.00369239 0.0129023 0.204425 0.00838502 0.0119657 0.202973 0.00489666 0.0194965 0.205718 
0.0177032 0.0172005 0.205171 0.0286971 0.0128824 0.208876 -0.0170072 0.0343773 0.206608 
-0.00228966 0.0349097 0.20465 0.00872674 0.0303282 0.199008 -0.015165 -0.0363344 0.214683 
-0.00107573 -0.0382627 0.214799 -0.00528869 -0.0271572 0.217978 0.0259422 -0.0317222 0.216851 
-0.0370735 -0.0129627 0.215112 0.00226087 -0.0227484 0.214293 0.0185811 -0.014092 0.209901 
0.0172037 -0.0226089 0.218446 0.0346588 -0.0210013 0.216594 -0.0236486 -0.00719151 0.220075 
-0.0118963 -0.00907854 0.210977 -0.0189072 -0.00434049 0.214298 -0.00564477 -0.00747363 0.220493 
-8.21895e-05 -0.00551541 0.210886 0.0109527 -2.39831e-05 0.217237 0.011836 -0.00701031 0.212447 
0.0338268 -0.00232352 0.212865 0.0252106 -0.00549217 0.218614 -0.0336211 0.00826269 0.216658 
-0.0261092 0.00250371 0.219228 -0.0140683 0.00557736 0.212599 -0.0141745 0.00159832 0.220194 
-0.00521494 0.00852221 0.21429 0.0118737 0.0101375 0.217077 -0.0175321 0.0173636 0.21663 
9.2048e-05 0.0230024 0.214385 0.0102547 0.0193052 0.215036 0.0187477 0.0170695 0.21872 
0.03502 0.0207906 0.214 -0.0298768 0.0242586 0.220494 -0.0141796 0.0297091 0.215511 
0.0010607 0.030913 0.210824 0.0141514 0.028143 0.219304 -0.0182866 0.0365041 0.217275 
0.00698389 0.0368116 0.217352 0.0155616 0.0386148 0.217371 -0.0145449 -0.0352182 0.230637 
0.0137515 -0.0385701 0.23099 -0.0282312 -0.0320055 0.226163 -0.0135153 -0.0317477 0.221481 
0.00226619 -0.0323733 0.222232 0.00987512 -0.029691 0.222919 0.0226028 -0.0282866 0.225757 
0.0217515 -0.0335781 0.232288 -0.026079 -0.0229574 0.224402 -0.00528614 -0.0203676 0.226771 
0.00364962 -0.0195428 0.229136 0.0169254 -0.0200677 0.227895 0.0188799 -0.0124717 0.232058 
0.0273224 -0.0157813 0.223516 0.0379837 -0.0120895 0.221043 0.039128 -0.0156937 0.229766 
-0.0383528 -0.00682003 0.221829 -0.0303817 -0.00698649 0.22437 -0.0102798 -0.0106335 0.227942 
0.00324147 -0.00510177 0.226552 0.0105353 -0.000511795 0.230446 0.0282075 -0.00473606 0.226589 
-0.0331142 0.000126844 0.228687 -0.00875079 0.00469992 0.22612 -0.00312605 0.0109959 0.229729 
0.00530941 0.00566215 0.221736 0.0178639 0.00254921 0.222612 0.0171413 0.0108421 0.226609 
0.0359234 0.00337336 0.2233 -0.0358446 0.0235162 0.22754 -0.0171365 0.0157575 0.231769 
-0.00677102 0.0175622 0.221925 0.00858452 0.0180323 0.228075 0.0303315 0.0118573 0.229425 
-0.00948652 0.0344021 0.227731 0.00618784 0.0259176 0.225285 0.0268448 0.0299019 0.224719 
0.00332898 0.0351769 0.230792 -0.00386287 -0.0397401 0.240015 0.00211593 -0.0400033 0.234167 
0.0162184 -0.0350922 0.238088 -0.0300677 -0.0252512 0.236347 -0.0222559 -0.032608 0.234807 
-0.0079841 -0.0302199 0.239188 -0.00107515 -0.0279809 0.235136 0.00976479 -0.0249717 0.234601 
0.0286258 -0.029067 0.233611 0.0234028 -0.0348657 0.241571 -0.0195095 -0.0124507 0.235243 
-0.0174049 -0.0211616 0.239106 -0.0144142 -0.0140366 0.242389 -0.000253898 -0.0185367 0.24034 
0.0139225 -0.0175285 0.242658 0.0272742 -0.0202461 0.235371 0.0300591 -0.0131548 0.242674 
-0.0120088 -0.000965757 0.233479 -0.00114154 -0.00372113 0.233571 0.0111445 -0.00685393 0.23616 
0.0052111 -0.00195679 0.239445 0.0201033 -0.00424215 0.235022 0.0303992 -0.0104538 0.23367 
0.0265711 -0.000856835 0.242866 -0.0398386 0.0077156 0.241619 -0.0253964 0.00308146 0.241183 
-0.0217272 0.00904778 0.237312 -0.0108212 0.00614599 0.237485 0.000890562 0.00848686 0.239539 
0.0175758 0.00455842 0.239019 0.0271029 0.00817375 0.241396 -0.0368345 0.0199627 0.238321 
-0.0280186 0.0203177 0.233656 -0.0301387 0.0137323 0.242938 -0.010559 0.0196217 0.240761 
0.00629139 0.0120916 0.233371 0.000341743 0.0188206 0.238879 0.016505 0.0130625 0.234437 
0.0359313 0.0176283 0.240125 -0.0252532 0.0336766 0.232118 -0.017201 0.0297855 0.236408 
0.0135194 0.0248447 0.240761 0.0337167 0.0243173 0.234037 -0.00806361 0.0419317 0.236567 
-0.0107896 -0.0350754 0.245357 0.00328913 -0.0413789 0.244656 -0.0222835 -0.0274121 0.245677 
-0.0161845 -0.0260347 0.252771 -0.00349485 -0.0253086 0.250075 0.00046082 -0.0334504 0.24398 
0.00779259 -0.0322098 0.2495 0.015128 -0.0289637 0.24652 0.022942 -0.0325078 0.251023 
0.0298092 -0.0266512 0.250591 -0.035232 -0.0134266 0.248862 -0.02683 -0.0144937 0.248145 
-0.0112731 -0.0233971 0.244595 -0.00488072 -0.0144485 0.247139 0.00266832 -0.0183534 0.249018 
0.0213262 -0.016302 0.248373 0.0166028 -0.0233557 0.254001 0.02502 -0.0227175 0.24388 
-0.0331349 -0.00336962 0.247517 -0.0301169 -0.00628463 0.254522 -0.0174806 -0.00671195 0.24494 
-0.0221536 -0.00333128 0.252363 0.000333316 6.0857e-05 0.24733 0.0146605 -0.00959391 0.247821 
0.0406613 -0.0104579 0.244248 -0.0126211 0.00146443 0.24406 -0.0202822 0.0109279 0.245452 
-0.0135136 0.00746117 0.253065 0.00928993 0.00460847 0.251916 0.0140239 0.00784545 0.245808 
0.0230169 0.00153022 0.250735 0.0406751 0.00701342 0.245644 0.0392756 0.00736002 0.254185 
-0.0376381 0.0182782 0.249996 -0.0288246 0.0168479 0.25075 -0.0212257 0.0196196 0.244926 
-0.00556831 0.0224717 0.253737 0.00919515 0.0207777 0.250458 0.0182677 0.0156934 0.248798 
0.0268276 0.0202832 0.253832 0.036989 0.01927 0.248546 -0.0244283 0.0331859 0.243985 
-0.0304621 0.0266762 0.251405 -0.0190181 0.0290342 0.24865 -0.0101334 0.0283534 0.245363 
-0.00275431 0.0290607 0.249216 0.00930176 0.0285998 0.253272 0.0188048 0.030371 0.249293 
0.0260574 0.0239911 0.244193 -0.0175944 0.0373444 0.249537 -0.00879076 0.0379879 0.253164 
0.0131612 0.0404867 0.24392 -0.00940292 -0.0400698 0.254634 8.82172e-05 -0.0404407 0.25612 
0.0106434 -0.0410431 0.255888 0.00397466 -0.0345284 0.261316 -0.0309185 -0.0272627 0.254486 
-0.0213574 -0.0298853 0.258691 -0.00445469 -0.0342461 0.260663 -0.00383515 -0.0235826 0.258745 
0.00314812 -0.0251909 0.262467 0.0125576 -0.027353 0.263712 0.0275792 -0.0327787 0.258515 
-0.0233576 -0.0211461 0.256116 -0.0267806 -0.0218409 0.263383 -0.0155389 -0.0173971 0.260646 
0.00419016 -0.0160026 0.259111 0.0148522 -0.0143441 0.25493 0.0189399 -0.0198471 0.261578 
0.0275652 -0.0180463 0.259527 0.0352899 -0.0206444 0.259749 -0.040402 -0.00891429 0.256273 
-0.0204033 -0.0108958 0.255294 -0.0123869 -0.00823213 0.255084 -0.0138707 -0.00153495 0.259731 
-0.00839535 -0.0105171 0.262234 0.00247001 -0.00798624 0.255528 0.0092898 -0.0042657 0.258421 
0.00180489 -0.00328006 0.263259 0.0189748 -0.00971681 0.26489 0.0276186 -0.00966698 0.260523 
0.0376564 -0.000725895 0.25498 0.0398665 -0.00890336 0.256992 -0.0421911 0.0051225 0.258236 
-0.0363254 0.00436992 0.264818 -0.0281788 0.00429743 0.262008 -0.0206744 0.00255343 0.257817 
-0.012033 0.00615557 0.26242 -0.00179334 0.00831571 0.257747 -0.0034791 0.00277899 0.264994 
0.00368453 0.00231481 0.257145 0.0072389 0.00729937 0.262876 0.0173059 0.000534896 0.263421 
0.0343521 0.00569144 0.263324 -0.0319941 0.0135545 0.259381 -0.0246666 0.0124014 0.262724 
-0.0166608 0.0154417 0.25749 -0.0195294 0.0228024 0.260605 -0.00929611 0.0186327 0.263715 
0.000696462 0.0117976 0.265788 0.00764329 0.0202456 0.263304 0.0289172 0.0185175 0.262212 
0.0356238 0.013765 0.259644 -0.0251866 0.0325212 0.255368 -0.0245293 0.0296215 0.265701 
-0.0328614 0.0272406 0.262706 -0.000564486 0.0254708 0.260394 0.00179663 0.0348243 0.26512 
0.0194569 0.0350442 0.255953 0.0137702 0.0312814 0.260323 0.0324937 0.0269631 0.255422 
0.0241663 0.0267034 0.25801 0.024021 0.0335572 0.263206 -0.0158946 0.0355588 0.259435 
-0.00387884 0.041795 0.259854 0.00869082 0.037391 0.25673 -0.0148149 -0.0387739 0.267734 
0.00484283 -0.0413753 0.266479 0.013455 -0.0385575 0.271258 -0.0311853 -0.0239278 0.270873 
-0.0150043 -0.0301859 0.266113 -0.0212777 -0.0345713 0.27268 -0.0132468 -0.025187 0.273299 
-0.00076595 -0.0330534 0.270998 0.0211169 -0.034347 0.267475 0.0162199 -0.0272476 0.275058 
-0.03592 -0.0175643 0.269563 -0.0196559 -0.0236815 0.268396 -0.0210694 -0.0132366 0.265804 
-0.00944782 -0.0170457 0.27615 0.0101639 -0.0179342 0.274943 0.0197372 -0.0133584 0.273672 
0.0299262 -0.0232456 0.26793 0.0375565 -0.0163208 0.266978 0.039547 -0.0161958 0.276019 
-0.0413103 -0.00776229 0.268213 -0.0382612 -0.0099564 0.276361 -0.0331211 -0.00484484 0.267533 
-0.0270112 -0.00929479 0.275232 -0.0188498 -0.00692164 0.273671 -0.00920575 -0.00361789 0.268172 
-0.00595571 -0.00629438 0.275607 0.0106153 -0.0111865 0.26845 0.000462566 -0.00937324 0.268479 
0.00923947 -0.00306502 0.270294 0.0379306 -0.00520304 0.270808 -0.0400613 0.0114063 0.26636 
-0.0411241 0.0045047 0.273813 -0.0365658 0.011302 0.275448 -0.015875 0.000556751 0.271815 
-0.00776314 0.00533097 0.272076 0.0159482 0.010513 0.265962 0.0196145 0.00419602 0.275941 
0.0240362 0.00353865 0.268701 0.0328917 0.00185741 0.275559 0.0417921 0.00615614 0.267984 
-0.0245854 0.0205034 0.267567 -0.0333841 0.0184204 0.268006 -0.0243257 0.0117369 0.275866 
-0.00254827 0.0216192 0.277084 0.00471762 0.013653 0.272468 0.00790854 0.0228733 0.274471 
[...]
POINT_DATA 873
FIELD FieldData 7
id 1 873 int
39 36 21 26 248 355 52 65 98 
124 194 28 87 110 37 79 77 85 
70 94 122 177 139 7 135 17 325 
366 97 242 162 337 270 88 259 260 
137 106 46 80 108 27 275 125 385 
353 396 234 291 1 322 297 33 381 
467 107 138 195 51 360 268 200 120 
112 249 281 251 161 462 364 13 45 
78 332 296 383 267 447 433 72 102 
116 48 211 331 192 312 201 477 250 
163 347 367 132 444 378 150 3 386 
49 252 133 164 44 148 299 156 166 
216 2 480 465 445 100 506 266 333 
457 277 209 185 69 426 91 66 354 
244 318 14 43 323 129 505 168 429 
172 317 142 188 256 230 279 206 205 
380 310 424 518 365 498 356 81 298 
282 146 519 131 469 278 225 307 90 
258 395 182 99 220 82 545 224 529 
19 189 233 499 180 147 472 301 119 
67 16 231 482 313 35 402 8 218 
217 290 263 222 406 57 187 128 226 
576 30 32 105 253 53 76 534 334 
20 413 315 327 121 126 145 420 73 
443 274 405 608 136 421 587 655 86 
311 373 294 610 59 179 400 165 101 
183 123 363 197 29 563 577 92 109 
228 23 276 202 377 359 343 580 10 
494 336 56 598 71 321 219 269 210 
140 221 330 151 328 657 442 439 468 
428 247 213 481 95 478 171 118 350 
319 427 115 157 369 24 417 18 503 
560 540 113 186 390 264 198 653 448 
398 96 143 212 60 265 196 15 403 
455 245 658 588 127 565 663 272 430 
374 193 83 507 475 170 314 624 262 
62 153 589 169 436 223 341 454 75 
295 47 726 246 326 446 9 283 302 
238 25 160 237 309 372 357 178 174 
708 392 731 215 190 292 881 485 698 
866 155 884 397 888 344 388 254 12 
626 487 874 882 181 887 460 394 419 
280 869 650 886 5 134 872 471 868 
11 64 870 241 875 867 877 871 58 
236 4 63 883 880 38 873 382 68 
346 204 622 737 240 89 687 543 184 
104 288 784 712 130 525 286 844 736 
711 707 304 384 93 117 207 22 410 
34 84 227 271 634 352 289 674 329 
840 284 50 191 370 345 699 771 747 
379 239 175 473 40 235 285 368 74 
453 255 823 808 842 775 149 229 492 
806 739 644 342 585 154 401 114 61 
556 320 820 819 6 782 638 735 531 
514 389 759 848 812 559 777 411 523 
828 786 103 851 562 742 672 158 776 
539 829 860 640 42 604 437 803 719 
760 111 508 728 651 865 607 41 208 
669 55 753 645 788 618 597 795 31 
864 316 214 553 667 167 335 504 648 
683 695 750 308 729 404 815 811 152 
287 159 303 693 843 432 583 798 566 
677 613 173 765 348 714 409 817 538 
694 785 574 526 339 659 176 637 740 
741 700 463 647 593 361 495 300 479 
273 451 846 375 488 340 797 456 813 
586 616 569 617 754 734 578 493 834 
371 825 752 690 762 745 483 810 603 
199 684 261 524 458 600 625 664 635 
573 243 387 567 679 257 599 671 605 
441 544 435 831 351 826 767 549 391 
713 768 859 691 716 144 412 761 833 
408 393 324 581 744 835 652 592 772 
293 799 628 675 232 662 459 633 794 
642 541 305 547 141 530 490 800 434 
450 358 632 858 338 399 850 796 591 
461 668 520 521 440 554 769 528 841 
862 688 512 511 496 423 452 537 497 
836 856 491 489 705 449 746 773 621 
415 575 502 407 689 464 849 306 570 
682 515 425 861 349 646 614 787 542 
431 676 438 789 422 654 757 476 721 
557 416 501 414 738 601 702 751 827 
466 484 732 725 627 764 551 673 552 
606 720 516 564 680 838 615 821 743 
536 500 584 579 474 510 594 656 623 
582 555 804 548 697 561 630 522 724 
770 854 807 852 639 863 643 571 517 
802 855 533 706 546 681 670 527 718 
629 649 763 550 685 727 781 722 532 
780 631 678 723 793 809 660 535 692 
830 595 709 596 686 620 701 783 666 
609 816 665 703 845 568 661 641 558 
612 818 715 636 590 832 704 824 837 
822 778 857 801 766 755 839 758 805 
814 748 790 779 756 749 696 853 792 
774 710 791 717 730 876 879 885 889 

type 1 873 int
1 1 1 1 1 1 1 1 1 
1 1 1 1 1 1 1 1 1 
1 1 1 1 1 1 1 1 1 
1 1 1 1 1 1 1 1 1 
1 1 1 1 1 1 1 1 1 
1 1 1 1 1 1 1 1 1 
1 1 1 1 1 1 1 1 1 
1 1 1 1 1 1 1 1 1 
1 1 1 1 1 1 1 1 1 
1 1 1 1 1 1 1 1 1 
1 1 1 1 1 1 1 1 1 
1 1 1 1 1 1 1 1 1 
1 1 1 1 1 1 1 1 1 
1 1 1 1 1 1 1 1 1 
1 1 1 1 1 1 1 1 1 
1 1 1 1 1 1 1 1 1 
1 1 1 1 1 1 1 1 1 
1 1 1 1 1 1 1 1 1 
1 1 1 1 1 1 1 1 1 
1 1 1 1 1 1 1 1 1 
1 1 1 1 1 1 1 1 1 
1 1 1 1 1 1 1 1 1 
1 1 1 1 1 1 1 1 1 
1 1 1 1 1 1 1 1 1 
1 1 1 1 1 1 1 1 1 
1 1 1 1 1 1 1 1 1 
1 1 1 1 1 1 1 1 1 
1 1 1 1 1 1 1 1 1 
1 1 1 1 1 1 1 1 1 
1 1 1 1 1 1 1 1 1 
1 1 1 1 1 1 1 1 1 
1 1 1 1 1 1 1 1 1 
1 1 1 1 1 1 1 1 1 
1 1 1 1 1 1 1 1 1 
1 1 1 1 1 1 1 1 1 
1 1 1 1 1 1 1 1 1 
1 1 1 1 1 1 1 1 1 
1 1 1 1 1 1 1 1 1 
1 1 1 1 1 1 1 1 1 
1 1 1 1 1 1 1 1 1 
1 1 1 1 1 1 1 1 1 
1 1 1 1 1 1 1 1 1 
1 1 1 1 1 1 1 1 1 
1 1 1 1 1 1 1 1 1 
1 1 1 1 1 1 1 1 1 
1 1 1 1 1 1 1 1 1 
1 1 1 1 1 1 1 1 1 
1 1 1 1 1 1 1 1 1 
1 1 1 1 1 1 1 1 1 
1 1 1 1 1 1 1 1 1 
1 1 1 1 1 1 1 1 1 
1 1 1 1 1 1 1 1 1 
1 1 1 1 1 1 1 1 1 
1 1 1 1 1 1 1 1 1 
1 1 1 1 1 1 1 1 1 
1 1 1 1 1 1 1 1 1 
1 1 1 1 1 1 1 1 1 
1 1 1 1 1 1 1 1 1 
1 1 1 1 1 1 1 1 1 
1 1 1 1 1 1 1 1 1 
1 1 1 1 1 1 1 1 1 
1 1 1 1 1 1 1 1 1 
1 1 1 1 1 1 1 1 1 
1 1 1 1 1 1 1 1 1 
1 1 1 1 1 1 1 1 1 
1 1 1 1 1 1 1 1 1 
1 1 1 1 1 1 1 1 1 
1 1 1 1 1 1 1 1 1 
1 1 1 1 1 1 1 1 1 
1 1 1 1 1 1 1 1 1 
1 1 1 1 1 1 1 1 1 
1 1 1 1 1 1 1 1 1 
1 1 1 1 1 1 1 1 1 
1 1 1 1 1 1 1 1 1 
1 1 1 1 1 1 1 1 1 
1 1 1 1 1 1 1 1 1 
1 1 1 1 1 1 1 1 1 
1 1 1 1 1 1 1 1 1 
1 1 1 1 1 1 1 1 1 
1 1 1 1 1 1 1 1 1 
1 1 1 1 1 1 1 1 1 
1 1 1 1 1 1 1 1 1 
1 1 1 1 1 1 1 1 1 
1 1 1 1 1 1 1 1 1 
1 1 1 1 1 1 1 1 1 
1 1 1 1 1 1 1 1 1 
1 1 1 1 1 1 1 1 1 
1 1 1 1 1 1 1 1 1 
1 1 1 1 1 1 1 1 1 
1 1 1 1 1 1 1 1 1 
1 1 1 1 1 1 1 1 1 
1 1 1 1 1 1 1 1 1 
1 1 1 1 1 1 1 1 1 
1 1 1 1 1 1 1 1 1 
1 1 1 1 1 1 1 1 1 
1 1 1 1 1 1 1 1 1 
1 1 1 1 1 1 1 1 1 

i 3 873 int
0 0 0 0 0 0 0 0 0 
0 0 0 0 0 0 0 0 0 
0 0 0 0 0 0 0 0 0 
0 0 0 0 0 0 0 0 0 
0 0 0 0 0 0 0 0 0 
0 0 0 0 0 0 0 0 0 
0 0 0 0 0 0 0 0 0 
0 0 0 0 0 0 0 0 0 
0 0 0 0 0 0 0 0 0 
0 0 0 0 0 0 0 0 0 
0 0 0 0 0 0 0 0 0 
0 0 0 0 0 0 0 0 0 
0 0 0 0 0 0 0 0 0 
0 0 0 0 0 0 0 0 0 
0 0 0 0 0 0 0 0 0 
0 0 0 0 0 0 0 0 0 
0 0 0 0 0 0 0 0 0 
0 0 0 0 0 0 0 0 0 
0 0 0 0 0 0 0 0 0 
0 0 0 0 0 0 0 0 0 
0 0 0 0 0 0 0 0 0 
0 0 0 0 0 0 0 0 0 
0 0 0 0 0 0 0 0 0 
0 0 0 0 0 0 0 0 0 
0 0 0 0 0 0 0 0 0 
0 0 0 0 0 0 0 0 0 
0 0 0 0 0 0 0 0 0 
0 0 0 0 0 0 0 0 0 
0 0 0 0 0 0 0 0 0 
0 0 0 0 0 0 0 0 0 
0 0 0 0 0 0 0 0 0 
0 0 0 0 0 0 0 0 0 
0 0 0 0 0 0 0 0 0 
0 0 0 0 0 0 0 0 0 
0 0 0 0 0 0 0 0 0 
0 0 0 0 0 0 0 0 0 
0 0 0 0 0 0 0 0 0 
0 0 0 0 0 0 0 0 0 
0 0 0 0 0 0 0 0 0 
0 0 0 0 0 0 0 0 0 
0 0 0 0 0 0 0 0 0 
0 0 0 0 0 0 0 0 0 
0 0 0 0 0 0 0 0 0 
0 0 0 0 0 0 0 0 0 
0 0 0 0 0 0 0 0 0 
0 0 0 0 0 0 0 0 0 
0 0 0 0 0 0 0 0 0 
0 0 0 0 0 0 0 0 0 
0 0 0 0 0 0 0 0 0 
0 0 0 0 0 0 0 0 0 
0 0 0 0 0 0 0 0 0 
0 0 0 0 0 0 0 0 0 
0 0 0 0 0 0 0 0 0 
0 0 0 0 0 0 0 0 0 
0 0 0 0 0 0 0 0 0 
0 0 0 0 0 0 0 0 0 
0 0 0 0 0 0 0 0 0 
0 0 0 0 0 0 0 0 0 
0 0 0 0 0 0 0 0 0 
0 0 0 0 0 0 0 0 0 
0 0 0 0 0 0 0 0 0 
0 0 0 0 0 0 0 0 0 
0 0 0 0 0 0 0 0 0 
0 0 0 0 0 0 0 0 0 
0 0 0 0 0 0 0 0 0 
0 0 0 0 0 0 0 0 0 
0 0 0 0 0 0 0 0 0 
0 0 0 0 0 0 0 0 0 
0 0 0 0 0 0 0 0 0 
0 0 0 0 0 0 0 0 0 
0 0 0 0 0 0 0 0 0 
0 0 0 0 0 0 0 0 0 
0 0 0 0 0 0 0 0 0 
0 0 0 0 0 0 0 0 0 
0 0 0 0 0 0 0 0 0 
0 0 0 0 0 0 0 0 0 
0 0 0 0 0 0 0 0 0 
0 0 0 0 0 0 0 0 0 
0 0 0 0 0 0 0 0 0 
0 0 0 0 0 0 0 0 0 
0 0 0 0 0 0 0 0 0 
0 0 0 0 0 0 0 0 0 
0 0 0 0 0 0 0 0 0 
0 0 0 0 0 0 0 0 0 
0 0 0 0 0 0 0 0 0 
0 0 0 0 0 0 0 0 0 
0 0 0 0 0 0 0 0 0 
0 0 0 0 0 0 0 0 0 
0 0 0 0 0 0 0 0 0 
0 0 0 0 0 0 0 0 0 
0 0 0 0 0 0 0 0 0 
0 0 0 0 0 0 0 0 0 
0 0 0 0 0 0 0 0 0 
0 0 0 0 0 0 0 0 0 
0 0 0 0 0 0 0 0 0 
0 0 0 0 0 0 0 0 0 
0 0 0 0 0 0 0 0 0 
0 0 0 0 0 0 0 0 0 
0 0 0 0 0 0 0 0 0 
0 0 0 0 0 0 0 0 0 
0 0 0 0 0 0 0 0 0 
0 0 0 0 0 0 0 0 0 
0 0 0 0 0 0 0 0 0 
0 0 0 0 0 0 0 0 0 
0 0 0 0 0 0 0 0 0 
0 0 0 0 0 0 0 0 0 
0 0 0 0 0 0 0 0 0 
0 0 0 0 0 0 0 0 0 
0 0 0 0 0 0 0 0 0 
0 0 0 0 0 0 0 0 0 
0 0 0 0 0 0 0 0 0 
0 0 0 0 0 0 0 0 0 
0 0 0 0 0 0 0 0 0 
0 0 0 0 0 0 0 0 0 
0 0 0 0 0 0 0 0 0 
0 0 0 0 0 0 0 0 0 
0 0 0 0 0 0 0 0 0 
0 0 0 0 0 0 0 0 0 
0 0 0 0 0 0 0 0 0 
0 0 0 0 0 0 0 0 0 
0 0 0 0 0 0 0 0 0 
0 0 0 0 0 0 0 0 0 
0 0 0 0 0 0 0 0 0 
0 0 0 0 0 0 0 0 0 
0 0 0 0 0 0 0 0 0 
0 0 0 0 0 0 0 0 0 
0 0 0 0 0 0 0 0 0 
0 0 0 0 0 0 0 0 0 
0 0 0 0 0 0 0 0 0 
0 0 0 0 0 0 0 0 0 
0 0 0 0 0 0 0 0 0 
0 0 0 0 0 0 0 0 0 
0 0 0 0 0 0 0 0 0 
0 0 0 0 0 0 0 0 0 
0 0 0 0 0 0 0 0 0 
0 0 0 0 0 0 0 0 0 
0 0 0 0 0 0 0 0 0 
0 0 0 0 0 0 0 0 0 
0 0 0 0 0 0 0 0 0 
0 0 0 0 0 0 0 0 0 
0 0 0 0 0 0 0 0 0 
0 0 0 0 0 0 0 0 0 
0 0 0 0 0 0 0 0 0 
0 0 0 0 0 0 0 0 0 
0 0 0 0 0 0 0 0 0 
0 0 0 0 0 0 0 0 0 
0 0 0 0 0 0 0 0 0 
0 0 0 0 0 0 0 0 0 
0 0 0 0 0 0 0 0 0 
0 0 0 0 0 0 0 0 0 
0 0 0 0 0 0 0 0 0 
0 0 0 0 0 0 0 0 0 
0 0 0 0 0 0 0 0 0 
0 0 0 0 0 0 0 0 0 
0 0 0 0 0 0 0 0 0 
0 0 0 0 0 0 0 0 0 
0 0 0 0 0 0 0 0 0 
0 0 0 0 0 0 0 0 0 
0 0 0 0 0 0 0 0 0 
0 0 0 0 0 0 0 0 0 
0 0 0 0 0 0 0 0 0 
0 0 0 0 0 0 0 0 0 
0 0 0 0 0 0 0 0 0 
0 0 0 0 0 0 0 0 0 
0 0 0 0 0 0 0 0 0 
0 0 0 0 0 0 0 0 0 
0 0 0 0 0 0 0 0 0 
0 0 0 0 0 0 0 0 0 
0 0 0 0 0 0 0 0 0 
0 0 0 0 0 0 0 0 0 
0 0 0 0 0 0 0 0 0 
0 0 0 0 0 0 0 0 0 
0 0 0 0 0 0 0 0 0 
0 0 0 0 0 0 0 0 0 
0 0 0 0 0 0 0 0 0 
0 0 0 0 0 0 0 0 0 
0 0 0 0 0 0 0 0 0 
0 0 0 0 0 0 0 0 0 
0 0 0 0 0 0 0 0 0 
0 0 0 0 0 0 0 0 0 
0 0 0 0 0 0 0 0 0 
0 0 0 0 0 0 0 0 0 
0 0 0 0 0 0 0 0 0 
0 0 0 0 0 0 0 0 0 
0 0 0 0 0 0 0 0 0 
0 0 0 0 0 0 0 0 0 
0 0 0 0 0 0 0 0 0 
0 0 0 0 0 0 0 0 0 
0 0 0 0 0 0 0 0 0 
0 0 0 0 0 0 0 0 0 
0 0 0 0 0 0 0 0 0 
0 0 0 0 0 0 0 0 0 
0 0 0 0 0 0 0 0 0 
0 0 0 0 0 0 0 0 0 
0 0 0 0 0 0 0 0 0 
0 0 0 0 0 0 0 0 0 
0 0 0 0 0 0 0 0 0 
0 0 0 0 0 0 0 0 0 
0 0 0 0 0 0 0 0 0 
0 0 0 0 0 0 0 0 0 
0 0 0 0 0 0 0 0 0 
0 0 0 0 0 0 0 0 0 
0 0 0 0 0 0 0 0 0 
0 0 0 0 0 0 0 0 0 
0 0 0 0 0 0 0 0 0 
0 0 0 0 0 0 0 0 0 
0 0 0 0 0 0 0 0 0 
0 0 0 0 0 0 0 0 0 
0 0 0 0 0 0 0 0 0 
0 0 0 0 0 0 0 0 0 
0 0 0 0 0 0 0 0 0 
0 0 0 0 0 0 0 0 0 
0 0 0 0 0 0 0 0 0 
0 0 0 0 0 0 0 0 0 
0 0 0 0 0 0 0 0 0 
0 0 0 0 0 0 0 0 0 
0 0 0 0 0 0 0 0 0 
0 0 0 0 0 0 0 0 0 
0 0 0 0 0 0 0 0 0 
0 0 0 0 0 0 0 0 0 
0 0 0 0 0 0 0 0 0 
0 0 0 0 0 0 0 0 0 
0 0 0 0 0 0 0 0 0 
0 0 0 0 0 0 0 0 0 
0 0 0 0 0 0 0 0 0 
0 0 0 0 0 0 0 0 0 
0 0 0 0 0 0 0 0 0 
0 0 0 0 0 0 0 0 0 
0 0 0 0 0 0 0 0 0 
0 0 0 0 0 0 0 0 0 
0 0 0 0 0 0 0 0 0 
0 0 0 0 0 0 0 0 0 
0 0 0 0 0 0 0 0 0 
0 0 0 0 0 0 0 0 0 
0 0 0 0 0 0 0 0 0 
0 0 0 0 0 0 0 0 0 
0 0 0 0 0 0 0 0 0 
0 0 0 0 0 0 0 0 0 
0 0 0 0 0 0 0 0 0 
0 0 0 0 0 0 0 0 0 
0 0 0 0 0 0 0 0 0 
0 0 0 0 0 0 0 0 0 
0 0 0 0 0 0 0 0 0 
0 0 0 0 0 0 0 0 0 
0 0 0 0 0 0 0 0 0 
0 0 0 0 0 0 0 0 0 
0 0 0 0 0 0 0 0 0 
0 0 0 0 0 0 0 0 0 
0 0 0 0 0 0 0 0 0 
0 0 0 0 0 0 0 0 0 
0 0 0 0 0 0 0 0 0 
0 0 0 0 0 0 0 0 0 
0 0 0 0 0 0 0 0 0 
0 0 0 0 0 0 0 0 0 
0 0 0 0 0 0 0 0 0 
0 0 0 0 0 0 0 0 0 
0 0 0 0 0 0 0 0 0 
0 0 0 0 0 0 0 0 0 
0 0 0 0 0 0 0 0 0 
0 0 0 0 0 0 0 0 0 
0 0 0 0 0 0 0 0 0 
0 0 0 0 0 0 0 0 0 
0 0 0 0 0 0 0 0 0 
0 0 0 0 0 0 0 0 0 
0 0 0 0 0 0 0 0 0 
0 0 0 0 0 0 0 0 0 
0 0 0 0 0 0 0 0 0 
0 0 0 0 0 0 0 0 0 
0 0 0 0 0 0 0 0 0 
0 0 0 0 0 0 0 0 0 
0 0 0 0 0 0 0 0 0 
0 0 0 0 0 0 0 0 0 
0 0 0 0 0 0 0 0 0 
0 0 0 0 0 0 0 0 0 
0 0 0 0 0 0 0 0 0 
0 0 0 0 0 0 0 0 0 
0 0 0 0 0 0 0 0 0 
0 0 0 0 0 0 0 0 0 
0 0 0 0 0 0 0 0 0 
0 0 0 0 0 0 0 0 0 
0 0 0 0 0 0 0 0 0 
0 0 0 0 0 0 0 0 0 
0 0 0 0 0 0 0 0 0 
0 0 0 0 0 0 0 0 0 
0 0 0 0 0 0 0 0 0 
0 0 0 0 0 0 0 0 0 
0 0 0 0 0 0 0 0 0 
0 0 0 0 0 0 0 0 0 
0 0 0 0 0 0 0 0 0 
0 0 0 0 0 0 0 0 0 
0 0 0 0 0 0 0 0 0 

v 3 873 double
0 0 -1.5399130938 0 0 -1.5442049688 0 0 -1.5570805938 
0 0 -1.5515624688 -0.055539816419 0.062619071604 -1.4883915928 -0.060793140402 0.030826519943 -1.5384086991 
0 0 -1.5233587188 0 0 -1.5104830938 -0.014550344256 -0.037722763265 -1.5172177164 
-0.019978490729 0.043680357017 -1.5479549572 -0.0054181833807 -0.030415464349 -1.5179414255 0 0 -1.5503362188 
0 0 -1.4835055938 -0.0086536763841 -0.039798913298 -1.5104907992 0.063167780873 -0.033933118396 -1.5008841423 
0 0 -1.4920893438 0 0 -1.4945418438 0.060637152115 -0.063027649914 -1.4832865624 
-0.0037898419935 0.01424348456 -1.4779502726 -0.018177638464 0.027444221501 -1.4360329544 0 0 -1.4418130938 
0 0 -1.3823399688 0.030816423866 -0.0034580395625 -1.4942878033 0.014550344256 0.037722763265 -1.5233684711 
0.02505346079 0.0077234519893 -1.3999362148 0.040540336081 0.07453391424 -1.4728622602 0.0021599466038 -0.084362801496 -1.4902943427 
0.037237482921 0.019914941484 -1.4207017136 -0.014098630416 -0.04932497926 -1.5012756374 0.020913108585 -0.024364305948 -1.4461892406 
0.094391257549 0.014960940923 -1.4053336334 -0.040897110062 -0.010862068416 -1.4185294702 -0.052206350564 0.049842012906 -1.4556873594 
-0.077623007153 0.057175628482 -1.479218401 0.037706334755 -0.059121487396 -1.4706114031 0.0055317684902 0.036144666254 -1.4405006232 
0 0 -1.4277112188 -0.013176349713 0.015310954235 -1.4455338074 0.05790090846 -0.078330903472 -1.426930432 
-0.0033753291515 0.024181933729 -1.461641421 0 0 -1.4602068438 0.13807053721 0.056794928461 -1.4733369584 
0.0035728637087 0.164652392 -1.4065469453 0.023779589535 0.018426752667 -1.3765124726 -0.015215579633 0.11049802175 -1.4087159835 
0.031112672464 -0.025409614935 -1.3268722224 -0.0019228565163 -0.053341416107 -1.3894229009 0.044133768247 -0.042851371588 -1.386069206 
0.00038046158655 -0.056012492109 -1.4025998119 0.084250602893 0.024897493563 -1.3946493615 0.093620127639 0.0081500213352 -1.3935917659 
-0.01856350868 -0.078926102463 -1.4892686002 -0.014548410769 0.045306561337 -1.4363783774 -0.033466046074 0.037793347162 -1.380636548 
-0.035977023251 -0.0038967639431 -1.4370631301 -0.020527128776 0.027659439214 -1.4055485019 0.044802597122 -0.044549043181 -1.4464770296 
-0.00064977972045 -0.0044627682163 -1.3649185564 0.07307784356 0.066265669711 -1.3945129282 -0.037063979449 -0.029856237408 -1.3686707139 
0.068172151934 -0.021249040851 -1.447154222 -0.031881365107 -0.021802508016 -1.4351344953 0.065726379268 -0.0054189787926 -1.3778487725 
0.0058402472046 0.013949576164 -1.4412746491 -0.038280302603 0.0029738429985 -1.4433210577 0.00027920069643 0.0031061846805 -1.3803017113 
0.037855022236 0.073704577063 -1.5521272377 -0.054198829215 0.010713603674 -1.4426618038 0.089273756969 0.032175974392 -1.4118765196 
0.076861045341 0.0049217979161 -1.4042952463 0.089759418453 -0.064714794041 -1.397130292 -0.090688444119 0.037415331149 -1.4166809091 
-0.0098960812914 0.020885435423 -1.4645300267 0.081381965879 -0.0023250178925 -1.4449959113 0.086455138766 0.028172714276 -1.5445025304 
-0.092249463559 -0.15541756048 -1.4005325049 0.1321352887 0.014803396644 -1.4037311559 -0.20687907004 0.029722018467 -1.3513528548 
-0.073771474962 0.11021254853 -1.2613207797 0.13654120618 0.045513379855 -1.4220968966 -0.0063444876904 -0.02434505206 -1.4577794611 
-0.026947985008 -0.037863339526 -1.3769040694 0.020882823695 -0.046212943052 -1.3530045155 0.062810205024 -0.02707939596 -1.4164187501 
-0.055199638737 0.0124715806 -1.2733702591 -0.028692403524 0.0902989244 -1.4451825961 0.0065939656494 -0.013594684117 -1.3680318283 
-0.014265256711 -0.011785350866 -1.3765856506 0.078281597102 0.0024993479536 -1.3388692211 0.0063001668666 -0.02225101966 -1.3291179558 
0.010809997211 -0.062624986106 -1.3681517653 -0.082525829716 0.040580833529 -1.3400863105 0.084849388434 -0.090549442789 -1.4108046608 
0.012559118115 0.056924643317 -1.4914948564 0.11633076647 -0.0073663514111 -1.3571365133 -0.081533137396 0.055920853899 -1.4186771558 
-0.057706818381 0.0050189469864 -1.3729317388 -0.0017311285488 0.036087469301 -1.3520567741 0.035053709269 0.012022287783 -1.3840228881 
-0.0052060366051 -0.16436211416 -1.3329952988 0.049739812565 -0.073138545945 -1.3364754379 -0.0050643044027 0.079714176219 -1.3992106161 
0.0022450790118 -0.017329517838 -1.3649083129 0.0145753015 -0.007529164016 -1.4587280087 0.048166211226 0.01460698769 -1.4218137101 
0.053755809431 0.088779310167 -1.3552574817 0.041860343046 0.13970930311 -1.37183272 -0.016534465619 -0.023278866991 -1.3148988028 
-0.020115564598 0.06276530577 -1.481696649 0.035920874305 0.031007062012 -1.3536350987 0.11160805288 0.018359765461 -1.3258232194 
0.13678625838 0.031428277624 -1.3060495107 0.0354587766 0.14203223935 -1.3664224127 0.097582875657 -0.0036251311966 -1.4091504062 
-0.020967149813 0.0036022059038 -1.3131702473 -0.054597233251 0.078082878993 -1.4387955701 0.0550706367 0.033290596144 -1.2843534887 
0.041553294407 0.014857137263 -1.3685758106 -0.046372618962 -0.092938514244 -1.3288296925 0.020318451811 -0.17808454244 -1.3301565357 
-0.016107683446 -0.072386528875 -1.2701220633 -0.047172544729 -0.085484716599 -1.3956131751 0.018080379553 -0.03922141433 -1.3160225093 
-0.005633120568 -0.10486825466 -1.3455804729 -0.084901114095 -0.0089247764882 -1.417241107 -0.080876167193 0.037377311363 -1.3311663996 
-0.018430413657 -0.051310648397 -1.3380234089 -0.04528486533 0.078936802093 -1.2714338597 0.0030550953266 -0.014635022379 -1.3408467532 
-0.049114640822 0.01420272351 -1.3356892679 0.064827406909 -0.00463435516 -1.451013295 0.0015303902039 -0.0071730541966 -1.3979072704 
-0.048494831225 0.029950365865 -1.321740477 -0.018785868791 0.024146246111 -1.4082234172 -0.023941237183 0.043690379071 -1.3404496162 
0.015264912622 -0.12584378784 -1.4272018792 0.089254140031 0.0097193849635 -1.3569479079 0.029683062537 0.013886055828 -1.4886934833 
0.070501718611 -0.073388541853 -1.277873694 -0.028919162069 0.033183117245 -1.4738037604 -0.093390603668 -0.006018851276 -1.3297583401 
-0.01360007523 0.052755211842 -1.3289514435 -0.056442831744 0.10770449061 -1.376004698 0.034560046305 -0.014096687401 -1.4522299284 
0.038637644901 -0.055031102334 -1.3672455813 0.045000953628 -0.033990028058 -1.2861485523 -0.063069541031 0.0589693108 -1.2963806651 
-0.06140265309 -0.048095902564 -1.411642455 -0.10224522707 0.08654035952 -1.275662395 -0.12307985214 0.094585352741 -1.2609415331 
0.010339770698 0.082010953801 -1.3759943264 0.015436140194 0.062590519068 -1.3425770223 0.013361031372 0.0080647271663 -1.4137660968 
0.0029548413411 -0.078351714687 -1.4859467227 -0.066999453405 0.06895264643 -1.4012652966 0.044799100899 -0.056019204704 -1.2503098935 
0.10066795274 0.086125632312 -1.3358840974 -0.19958397239 0.0092496730515 -1.4262493157 0.0062766775989 -0.033296978687 -1.4744464171 
-0.0028450944127 0.020611431942 -1.4119125101 0.027284951967 0.073644957987 -1.2401417067 -0.028302484484 -0.096477923665 -1.2976730893 
0.0099247098147 -0.1254820174 -1.3843478521 0.057118058774 0.010066510959 -1.2559629758 -0.006936991157 0.15341369321 -1.2554787785 
-0.072799994355 0.02033283513 -1.3608584776 0.028264865554 0.041772654752 -1.2363827771 0.076282983118 -0.089735149109 -1.3729402597 
0.0002823789154 -0.071901271507 -1.4592423299 -0.12123763018 -0.088277250883 -1.383304256 0.055892779298 -0.083220676515 -1.309663962 
0.048092288301 -0.10424134945 -1.4177181588 0.0069594266188 0.004131000406 -1.3182780916 0.015530243281 -0.051226245269 -1.3381419019 
-0.023611792949 0.049804063893 -1.2736985314 0.072039503594 -0.076500945334 -1.2680129551 0.1214019158 -0.04805489547 -1.3900277335 
0.15516012875 0.057015017304 -1.2558029831 0.099526618476 0.043524776976 -1.1529517338 -0.03909135535 -0.017798608217 -1.3666194703 
-0.039392313132 0.081718476811 -1.3101170523 0.019331694812 0.050615259392 -1.3991072799 0.1160400858 -0.09788607834 -1.3755834168 
0.085407205392 0.02846750549 -1.3175000366 -0.046655694161 0.061698239951 -1.3496774653 -0.015233368045 -0.012402255693 -1.2536677615 
-0.066721013664 0.0034938082421 -1.2823841349 0.024890954262 -0.019971326596 -1.3580133773 0.0023974350782 -0.026895868605 -1.3700525006 
0.091060228546 -0.11571719228 -1.2873329735 -0.11136190043 0.015751731413 -1.3824340152 -0.091981268177 -0.11240917347 -1.1754687567 
-0.13928336275 -0.0026537798754 -1.2474417548 -0.095117744054 0.045388561058 -1.2724451993 0.031611092265 0.017151579043 -1.252164576 
-0.011746955299 0.12199811014 -1.2732588858 -0.0066367171043 -0.08589240884 -1.364185215 0.079730386082 -0.02833176649 -1.3756145505 
0.048009574327 0.057852669621 -1.2606885948 0.0190675644 -0.052710156034 -1.4200758762 -0.1465997118 -0.041647972987 -1.3477416805 
-0.06384471659 0.083242987502 -1.2720644287 0.15393426401 -0.062181439558 -1.2670232612 -0.078006881882 0.032526068687 -1.3007647323 
-0.007711217687 0.049420920809 -1.1735617657 -0.067111154225 0.015018454901 -1.0815980556 -0.010418523108 0.037259058646 -1.3030323314 