# vtk DataFile Version 4.2
Generated by LIGGGHTS
ASCII
DATASET POLYDATA
POINTS 5261 float
-0.0247027 -0.035203 0.0121922 -0.0203804 -0.0378364 0.00599846 -0.0129997 -0.0409139 0.00599298 
-0.0165719 -0.0396783 0.013034 -0.00520742 -0.042691 0.00599908 -0.00836749 -0.0374993 0.0115448 
-0.00123907 -0.0429606 0.012953 -0.000467875 -0.0351304 0.0115205 0.00278184 -0.042913 0.00599713 
0.0106734 -0.0416411 0.00599557 0.00674591 -0.0424496 0.0129255 0.0170607 -0.0394701 0.0102818 
0.0230718 -0.0362534 0.00599977 -0.0341068 -0.026205 0.00599769 -0.0286529 -0.0320529 0.00599616 
-0.0240975 -0.0271331 0.0130277 -0.0319288 -0.0287334 0.0132652 -0.0263972 -0.024009 0.00599381 
-0.0209535 -0.0298614 0.00599755 -0.0135761 -0.0329407 0.0061218 -0.0175212 -0.0316864 0.0129864 
-0.0174574 -0.0238755 0.00998664 -0.0107189 -0.0254722 0.00599357 -0.00559463 -0.0324548 0.00599651 
-0.00288483 -0.0250934 0.00754394 -0.00977467 -0.029711 0.0127108 -0.00358335 -0.0254827 0.0154981 
0.00879885 -0.0346253 0.00934944 0.00287826 -0.0304167 0.00599671 0.00414863 -0.0262176 0.0126863 
0.0101903 -0.0271826 0.00599429 0.015837 -0.0328416 0.00599241 0.0195796 -0.0297864 0.0123617 
0.0179169 -0.0251231 0.00599199 0.011902 -0.0243326 0.0132622 0.012686 -0.0319352 0.0158021 
0.0293959 -0.0313555 0.00599833 0.0263816 -0.0339541 0.0129357 0.032204 -0.028473 0.0129299 
0.0258695 -0.0240019 0.00599972 0.0347155 -0.0253827 0.0059971 -0.0356022 -0.0183558 0.00629165 
-0.0399034 -0.0159933 0.0131224 -0.0411241 -0.012581 0.00599579 -0.0365178 -0.022709 0.015836 
-0.0283932 -0.0149061 0.00599503 -0.0301157 -0.020056 0.0118586 -0.030723 -0.0122141 0.0133151 
-0.0209888 -0.0179147 0.00599502 -0.0130032 -0.0175419 0.00598961 -0.0170605 -0.0161319 0.0127271 
-0.00500957 -0.0175433 0.00599578 -0.00905789 -0.0206893 0.0121851 -0.00585377 -0.0133885 0.0127969 
-0.000117126 -0.0191167 0.0121198 0.0042486 -0.021834 0.00599517 0.00654032 -0.0152607 0.00992903 
0.0122102 -0.0194401 0.00599972 0.0199363 -0.0170821 0.00599972 0.0194886 -0.0218197 0.0130943 
0.0143548 -0.0156978 0.0128508 0.031705 -0.0179771 0.00599046 0.0258959 -0.0173411 0.0114402 
0.033084 -0.0141453 0.0128671 0.039599 -0.0167154 0.00599658 0.0373586 -0.0211606 0.0122566 
-0.0374837 -0.0082747 0.0116657 -0.0427279 -0.00474859 0.00599778 -0.0429021 -0.00287366 0.0139829 
-0.0358038 -0.000750296 0.00599387 -0.0318734 -0.0077118 0.00599595 -0.0243158 -0.00509424 0.00599429 
-0.0296613 -0.00187237 0.0109907 -0.0231402 -0.011242 0.0109719 -0.0169846 -0.0100791 0.0059991 
-0.0188182 -0.00414821 0.0117204 -0.0121985 -0.00844802 0.0129903 -0.0125257 -0.00343795 0.00599636 
-0.00900405 -0.0106162 0.00599178 -0.0057739 -0.00461036 0.0101724 -0.00100598 -0.0106235 0.00602559 
8.42324e-06 -0.00254323 0.0152916 0.000813035 -0.00283393 0.0059971 0.00664414 -0.00830289 0.00599266 
0.00735497 -0.00489068 0.0131876 0.00144205 -0.0102487 0.0137015 0.0139263 -0.0116048 0.00599716 
0.0127198 -0.00332103 0.00746886 0.0199649 -0.0063629 0.00598984 0.0209388 -0.0111352 0.0123243 
0.0147623 -0.00702611 0.0152998 0.0230973 -0.00118877 0.0112128 0.0261683 -0.0114671 0.00599972 
0.0288067 -0.00740874 0.0123984 0.0289729 -0.0026362 0.00599126 0.034297 -0.0102263 0.00599945 
0.0428945 -0.00272669 0.00599444 0.0418297 -0.00985867 0.00945074 0.0363955 -0.00413006 0.0107354 
-0.0428903 0.00286981 0.00842051 -0.0363272 0.00169928 0.0135829 -0.0366228 0.00720324 0.0059955 
-0.0417621 0.0102369 0.0113158 -0.027971 0.00414049 0.00599769 -0.0284968 0.00915442 0.0122079 
-0.0237525 0.0109343 0.00599468 -0.0184381 0.00194892 0.00599478 -0.0132698 0.00168346 0.0120896 
-0.018001 0.00848293 0.0109743 -0.0231466 0.00253906 0.0124282 -0.0120063 0.00670535 0.00599541 
-0.00540511 0.00219695 0.00599431 -0.00284533 0.0107811 0.0133903 -0.0108392 0.0107815 0.0136985 
-0.00587359 0.00347097 0.0145459 0.000144714 0.01032 0.00599053 0.00751605 0.00257093 0.00599654 
0.00101334 0.00377422 0.0104926 0.00741949 0.0109568 0.0140041 0.00794316 0.0029885 0.0144006 
0.0129553 0.00710024 0.0097207 0.0181755 0.00233242 0.00599305 0.020964 0.00789715 0.011013 
0.0157468 0.000749856 0.0137032 0.0264673 0.00496338 0.00599972 0.0301548 0.00987622 0.0111253 
0.0299322 0.00225193 0.0135307 0.0353184 0.0022239 0.00599583 0.0426714 0.00536234 0.00599972 
0.036969 0.00605348 0.0128158 0.0362811 0.0101702 0.00599556 0.0430061 0.000164574 0.013446 
-0.0399458 0.0159234 0.00599614 -0.0367399 0.0221948 0.00978203 -0.0395285 0.0169151 0.0151002 
-0.0314029 0.0132569 0.0059906 -0.0289279 0.0208621 0.0059961 -0.0317388 0.0169087 0.0130877 
-0.024006 0.0171136 0.0110625 -0.0191813 0.0209987 0.00599961 -0.0151811 0.0140725 0.00599792 
-0.0134849 0.0188848 0.0121578 -0.00729491 0.0131004 0.00691185 -0.00881275 0.0208958 0.00599266 
-0.000879119 0.0218754 0.00599716 -0.00486821 0.0184689 0.012511 0.00810759 0.0125653 0.00599973 
0.00260818 0.0163582 0.0106114 0.00724761 0.0209539 0.00599758 0.013024 0.0163772 0.0122168 
0.0167873 0.0130423 0.00599525 0.0209291 0.0178609 0.0108519 0.0152445 0.0208854 0.00599338 
0.024779 0.0128133 0.00599219 0.0311828 0.0176035 0.00599605 0.0284711 0.0180871 0.0135007 
0.0250319 0.0227176 0.00599779 0.0360653 0.0204887 0.0127822 0.0391794 0.017623 0.00599725 
0.0410028 0.0129348 0.012216 -0.0326622 0.0279322 0.00599363 -0.0275238 0.0329584 0.00949085 
-0.0254325 0.0249389 0.0119197 -0.0324372 0.028195 0.0139833 -0.0215385 0.0286419 0.00599661 
-0.0201794 0.0325961 0.0128126 -0.0143227 0.034021 0.00599534 -0.0138045 0.0265187 0.00870697 
-0.0181324 0.0246559 0.0151651 -0.0125044 0.0335898 0.0148291 -0.00569606 0.0282597 0.00599542 
-0.0013551 0.0308208 0.0122049 -0.00752473 0.0259316 0.0136271 0.00141654 0.0235272 0.01394 
0.00395547 0.0282427 0.00602529 0.00838899 0.0272143 0.0126044 0.0151752 0.0316555 0.0129046 
0.0127176 0.0284701 0.00599544 0.0206164 0.0293238 0.00692194 0.0161425 0.0237347 0.0134053 
0.0277595 0.0328027 0.00599916 0.0317814 0.0289749 0.011757 0.0249299 0.0252735 0.0135755 
0.0351948 0.0246136 0.00599197 -0.0216793 0.037144 0.00599532 -0.0166154 0.0396694 0.0116464 
-0.0112592 0.0415028 0.00599711 -0.00713786 0.0354433 0.00919408 -0.0031309 0.0428835 0.00598946 
-0.00689943 0.0424558 0.0130213 0.000187982 0.0356108 0.00599335 0.0011368 0.0420608 0.0126972 
0.00816194 0.0350404 0.00599647 0.00546729 0.0426605 0.00599874 0.00530025 0.0352771 0.0134559 
0.0097249 0.0418969 0.0127272 0.0138904 0.0406128 0.00599579 0.0212137 0.0374009 0.00599605 
0.0172984 0.0393602 0.0131188 0.0241271 0.0351984 0.0131078 -0.0244914 -0.0352401 0.0260716 
-0.021265 -0.0373694 0.0190771 -0.0152456 -0.0401407 0.0235514 -0.0123614 -0.0350962 0.0180561 
-0.00753807 -0.0423488 0.0178462 -0.00771217 -0.0375438 0.0242337 -0.000346452 -0.0398054 0.0202492 
0.00705075 -0.0423937 0.0218456 0.00559036 -0.0355115 0.0167272 0.0130078 -0.0398414 0.0171621 
0.0146124 -0.0403834 0.0249753 0.0207077 -0.0376778 0.0171643 -0.0353678 -0.0244112 0.0235609 
-0.0277216 -0.0244794 0.0196466 -0.0281686 -0.0324573 0.0192618 -0.0306478 -0.0301547 0.0265088 
-0.0238472 -0.0259529 0.0265263 -0.0208 -0.0294396 0.0200036 -0.0160856 -0.0246531 0.0251097 
-0.0165301 -0.0326182 0.0259714 -0.00455948 -0.0333377 0.0181536 -0.00952006 -0.0298078 0.0233389 
-0.00350794 -0.0244982 0.0234327 -0.00228325 -0.0319572 0.0260344 0.00962429 -0.0342248 0.0235091 
0.00948619 -0.0263931 0.0205993 0.0020011 -0.0291152 0.0199147 0.0175376 -0.0332125 0.0229898 
0.0174062 -0.0259774 0.0195919 0.0229985 -0.0277392 0.0250239 0.014355 -0.0270091 0.0269115 
0.0251732 -0.0270252 0.0173626 0.0322525 -0.0284123 0.0209254 0.0264451 -0.0339008 0.0212538 
-0.0393684 -0.0172423 0.021005 -0.0315594 -0.0174703 0.0192834 -0.0293581 -0.0200525 0.0265189 
-0.0241429 -0.0171366 0.0163005 -0.0181554 -0.0222302 0.0177776 -0.0219535 -0.0186637 0.0238399 
-0.0158559 -0.0121556 0.0246555 -0.0104315 -0.0226997 0.0197975 -0.011578 -0.0144075 0.0182849 
-0.00239623 -0.0175547 0.0196234 -0.00928658 -0.0171451 0.0254351 0.00644915 -0.0195748 0.0166605 
0.00395819 -0.0216899 0.0239567 0.00765825 -0.014614 0.0243221 0.00859963 -0.0118746 0.0168733 
0.0183104 -0.0133282 0.019549 0.0131944 -0.0193143 0.0209534 0.0234292 -0.019468 0.0196375 
0.030628 -0.0212317 0.0165765 0.0331945 -0.014861 0.020829 0.0267361 -0.0145265 0.0259076 
0.0291321 -0.0220398 0.0246088 0.0261347 -0.0120562 0.0183293 0.04038 -0.0147118 0.0160797 
0.0369086 -0.0219149 0.0214739 0.0404928 -0.0144233 0.0240688 -0.0417904 -0.010107 0.0181982 
-0.0401842 -0.00300118 0.0214999 -0.0416259 -0.0107564 0.0263683 -0.026586 -0.0116363 0.0215635 
-0.0333133 -0.00453081 0.017591 -0.0252775 -0.00549431 0.0166113 -0.0347059 -0.0107957 0.0223617 
-0.028217 -0.00242557 0.0233866 -0.0186603 -0.00990047 0.0174708 -0.0146887 -0.00293667 0.0184608 
-0.0212383 -0.0062635 0.0241058 -0.0104863 -0.0037688 0.0252108 -0.00604426 -0.00706963 0.0179051 
-0.00437972 -0.000131995 0.0215249 -0.0039409 -0.0112973 0.0243566 0.00344934 -0.0071932 0.0208172 
0.00949245 -0.00166527 0.020712 0.0127639 -0.00863152 0.0228789 0.0175861 -0.00226398 0.0210685 
0.0235898 -0.00718117 0.0256486 0.0249707 -0.00392236 0.0184849 0.0322645 -0.0070121 0.0195991 
0.0424155 -0.00702248 0.0169035 0.0383167 -0.00676886 0.0248223 0.0429806 -0.000910863 0.0220261 
0.036267 -0.000205215 0.0177442 -0.0354617 0.00923026 0.0161406 -0.0426974 0.0048964 0.0171927 
-0.0351735 0.00371318 0.0228666 -0.0428564 0.00362923 0.0250827 -0.0294093 0.00299164 0.0173728 
-0.0233821 0.00827663 0.0182901 -0.0272466 0.00541296 0.0246767 -0.0343942 0.0111875 0.0256008 
-0.0156712 0.00616329 0.018261 -0.021619 0.000693702 0.0201159 -0.0194532 0.00711336 0.025242 
-0.0103345 0.00459519 0.0240025 0.00284125 0.000121804 0.0249542 0.00118181 0.0047172 0.0184274 
0.00913925 0.00505275 0.0250342 0.0136458 0.00674015 0.0185713 0.0222125 0.00353566 0.0175965 
0.0222173 0.00818556 0.0240942 0.0147778 0.0106989 0.0255809 0.0295287 0.00182498 0.0216671 
[...]
POINT_DATA 5261
FIELD FieldData 7
id 1 5261 int
72 102 27 85 126 116 225 69 433 
248 478 48 91 39 139 529 444 52 
322 297 209 233 122 275 65 307 157 
333 177 405 477 331 457 291 220 118 
211 66 323 163 385 353 179 256 277 
70 192 224 354 266 189 312 14 172 
420 311 201 426 234 545 610 250 231 
142 129 577 49 360 198 194 325 268 
119 318 185 94 244 168 98 206 7 
123 125 396 363 182 43 429 366 138 
373 380 110 51 124 37 36 367 347 
132 222 518 424 378 109 276 381 313 
35 402 281 505 202 598 16 33 150 
197 343 196 8 107 218 10 87 290 
480 135 1 462 482 430 337 336 193 
230 13 406 56 472 279 57 166 216 
200 377 467 164 120 2 3 21 28 
88 148 44 97 242 195 282 26 105 
253 151 17 32 45 315 133 534 270 
46 112 252 383 156 465 259 249 161 
162 469 106 299 413 221 53 506 80 
278 296 445 260 78 76 77 267 364 
334 108 622 90 86 115 447 485 121 
171 25 145 136 99 655 19 355 309 
382 319 737 258 274 96 254 698 155 
427 240 113 180 59 712 24 82 369 
687 73 204 443 587 18 212 588 395 
608 47 294 372 392 272 217 60 421 
188 29 264 626 317 499 147 15 350 
455 731 183 400 301 448 344 67 101 
302 560 165 265 663 359 241 356 439 
565 310 460 92 34 563 386 365 394 
417 228 23 83 634 238 624 143 280 
559 650 475 840 589 128 576 370 226 
137 468 263 494 699 403 237 245 374 
71 134 507 223 62 658 321 471 219 
759 170 269 146 580 205 332 50 140 
191 40 84 817 519 330 64 213 481 
246 175 473 742 657 251 298 169 127 
20 100 442 30 247 79 436 131 328 
38 236 11 498 153 341 187 95 327 
428 388 215 924 9 190 104 368 453 
806 346 775 384 292 397 543 823 235 
719 68 288 886 740 89 788 574 526 
12 808 867 342 186 607 31 887 653 
647 229 255 74 184 401 503 549 784 
6 495 848 820 644 638 174 130 892 
181 207 5 390 504 58 844 819 523 
398 711 154 419 540 61 726 669 55 
304 320 707 645 973 747 683 553 149 
410 411 708 271 487 674 208 729 514 
286 525 214 114 667 490 736 404 782 
329 971 586 771 906 812 22 210 891 
585 326 531 811 239 117 851 103 93 
786 340 953 562 167 583 829 432 735 
968 287 454 389 409 158 160 672 357 
803 352 289 159 664 945 776 750 714 
625 635 284 539 295 42 446 777 63 
178 684 262 875 4 257 765 437 283 
604 860 785 81 75 520 435 554 508 
339 637 605 826 511 842 618 760 617 
488 917 285 831 1056 994 739 391 795 
335 728 716 463 753 393 865 628 651 
1068 768 556 581 659 967 361 456 885 
41 597 371 741 882 408 451 152 306 
305 544 308 915 652 492 864 375 797 
923 176 744 1037 300 700 479 834 974 
111 641 412 1130 1063 948 868 261 949 
603 379 910 227 616 632 613 694 754 
173 533 734 303 985 578 662 899 813 
648 422 1008 942 199 614 314 592 640 
880 416 541 828 762 316 927 570 866 
966 738 858 702 530 1015 693 745 956 
600 984 493 434 1112 1079 358 922 677 
557 538 671 752 690 547 141 1160 483 
414 670 349 798 889 348 983 909 450 
567 476 642 566 810 387 345 458 706 
338 243 524 573 679 599 668 440 399 
841 720 767 769 497 512 1161 441 528 
883 561 713 761 516 675 656 452 859 
621 537 691 351 1181 946 1077 943 423 
815 1099 673 569 833 1001 1131 959 595 
877 779 807 970 593 1168 571 950 415 
582 688 1108 646 1280 633 1035 1013 1201 
496 689 894 489 854 846 1196 548 1110 
743 1246 584 1048 1139 908 835 1054 1244 
1009 1065 1171 491 1113 407 825 870 1219 
1011 273 705 746 438 232 1143 639 1187 
459 682 789 564 1086 1017 515 845 869 
144 918 772 431 697 1234 695 799 517 
464 1103 1055 425 546 863 636 852 804 
794 1283 751 934 527 1038 757 501 542 
1082 591 1127 676 916 1293 612 521 874 
800 1074 717 522 921 802 957 827 461 
721 850 643 932 601 730 796 843 715 
1134 1007 1085 484 1178 1405 1211 1408 1039 
1042 999 1251 997 552 990 732 1036 1046 
836 1116 324 895 725 1170 824 809 1034 
900 856 502 781 1096 1253 903 935 623 
1122 627 536 1179 615 1214 749 654 978 
1162 925 474 821 680 1534 976 980 1472 
1279 1125 770 1297 1052 1180 1014 764 1020 
1277 1109 1387 1126 993 1361 1016 861 596 
940 551 579 838 1177 1378 692 862 594 
535 787 1005 928 500 555 1117 773 1374 
1095 893 1281 1218 1289 1000 1092 1032 1189 
902 901 1156 1093 849 724 1075 449 718 
575 1027 1138 871 709 1260 1434 590 568 
1381 1390 969 1226 1306 510 1120 920 1415 
293 1318 1089 987 855 606 1033 466 988 
818 1394 1357 681 1159 1111 1371 961 888 
630 1467 1257 1023 1271 661 609 873 1176 
1133 1090 963 1021 1321 1225 1202 1308 791 
1213 1141 832 1311 1284 933 958 1136 763 
876 995 1259 1334 629 1307 837 685 1267 
964 905 1543 766 1155 778 1409 1567 1660 
1386 1004 1025 532 914 722 972 822 1509 
926 965 1383 991 919 1305 727 801 660 
1128 1266 550 1302 696 1144 996 1106 830 
1347 1684 678 1154 1199 758 1044 1328 1501 
805 897 1547 1049 1399 857 620 898 1493 
1146 755 1223 1209 780 748 890 1206 952 
1061 955 1148 1360 1678 1124 1330 1389 701 
1268 1320 1166 793 723 1129 1149 960 1263 
1468 783 790 1087 1528 1343 1286 1222 1224 
941 1235 1331 1262 944 1053 1072 1440 1348 
1167 1575 1057 1372 686 1395 1217 1215 710 
1198 558 1080 1083 1076 814 1375 1342 1441 
1388 792 703 1323 1153 1150 1608 774 1430 
1081 1220 1505 881 1186 1367 704 939 1205 
1010 1067 1384 1175 1132 1194 1332 1273 1059 
1185 1024 1774 1519 1457 1470 1560 913 1379 
1254 1069 1574 1272 1340 1135 1413 1169 1469 
1098 1763 1454 1809 1628 992 1690 1669 1285 
904 1385 1530 1668 649 1569 1573 1400 1380 
912 1695 1508 1601 872 1425 1402 962 1642 
1629 1737 1455 1510 954 1392 1123 1115 938 
1756 1589 839 1245 756 1022 1622 1582 1512 
1677 1742 1393 1304 1730 1592 1568 1309 1477 
666 1337 1497 1274 1549 1437 981 1101 631 
1426 1406 884 907 1047 1152 1197 1773 1191 
931 1522 1028 951 1456 1452 1556 1247 929 
1536 1473 1576 1210 1515 1252 1288 1158 1706 
816 1188 1366 1240 1295 1084 1203 1078 1630 
1670 1233 1527 1479 1610 1370 1495 1094 1471 
853 1313 1018 1681 1298 1282 1062 977 1105 
930 1521 1163 1597 1627 1118 982 937 1100 
1045 911 1102 936 1291 1114 1529 1403 1256 
665 1097 1727 1073 1026 1391 998 1051 1012 
1494 1699 1563 1577 1636 1591 1559 1398 1531 
1613 1173 1243 1625 1315 1327 1820 1478 1438 
1659 1598 1511 1896 1356 1611 1137 1707 1656 
1448 1621 1200 1875 1542 1207 1182 1623 989 
1397 1195 1619 1679 1157 1341 1736 1683 1346 
1275 1884 1236 1866 1665 1907 1655 1771 1344 
1708 1554 1983 1029 1446 1947 1674 1740 1499 
1066 1754 1524 1459 1335 1040 1871 1729 1312 
1653 1355 1701 1382 1421 1794 1687 1145 1431 
1147 1840 1565 1445 1420 1532 1503 1350 1676 
1662 1030 1208 1733 1606 1641 1516 1368 1359 
1930 1776 1881 1827 1031 1874 1486 1588 1250 
1579 1626 1333 1731 1365 1518 1535 1496 979 
1435 1296 1002 1710 1290 1738 1064 1373 1050 
1550 1190 1817 1229 1853 1174 947 1726 879 
1058 1314 975 1868 1594 1561 1460 1474 1444 
1003 1404 1401 1319 1719 1463 1329 1632 1963 
1795 1732 1596 1481 1886 1006 1723 1762 1433 
1828 1475 1142 1107 1204 1718 1411 1787 2050 
1041 1520 1183 1303 1104 1476 1790 1429 1703 
1572 1287 1301 1465 1645 1228 1504 1164 1436 
1843 1724 1416 1339 1651 1487 1514 1119 1911 
1060 1658 1858 1269 1548 1538 1634 1985 1745 
1993 2019 1586 2167 1358 1956 2163 1877 1580 
1825 1249 1854 1788 1300 1552 1921 1338 1121 
1551 1943 1239 1369 1977 1232 2022 1680 1688 
1091 1265 1241 1939 1422 1789 1363 1781 1498 
1816 1526 1238 1377 1859 2004 1851 1882 1826 
1599 2176 1712 1539 2017 1638 1714 1618 1255 
1948 1345 1427 1647 1959 1697 1140 2028 1654 
1364 1270 1258 2011 1417 1324 1878 2047 1540 
1292 1349 1964 1595 2051 1833 1237 1351 1423 
1326 1227 1316 1294 1231 1898 1019 1537 1325 
1639 1261 1759 1765 1151 1570 1770 1689 1264 
1172 1480 1278 1071 1672 1193 1821 1230 1450 
1322 1803 1483 1700 1484 1571 1739 1507 2203 
1412 1513 1604 1617 1581 1957 1216 2013 1566 
2084 2015 1955 1584 1212 1488 1952 1989 1442 
1410 2069 1766 1414 1966 1352 2202 1544 1972 
1904 2058 1709 1891 1798 1702 1428 2061 1492 
1846 1462 1545 1517 1675 1949 1698 1890 1808 
1913 1860 2210 1746 2107 1797 1353 1555 1872 
1810 1221 2056 1974 1600 1525 2148 1772 2091 
1693 2100 1482 1883 1533 1806 1990 2246 1885 
2223 1396 2065 1419 1950 1910 1648 1248 2086 
1912 2055 2096 1317 1758 1564 1461 1562 2173 
2190 1453 1184 1728 1778 1970 1986 1768 1909 
1043 1901 1856 1757 1711 1458 2261 1242 2073 
1887 1764 2030 1793 2034 1980 1491 2123 1941 
2020 1831 2343 2193 1927 1822 2093 1376 1767 
1667 1749 1553 1862 2126 1432 1780 1997 1593 
2127 1899 1673 1489 1847 1755 2146 1814 1811 
1994 1807 2097 1971 1786 1869 1614 1661 1424 
2155 2111 1931 1616 1587 2151 2188 1813 1945 
1439 1607 1650 1870 1635 2147 2179 2089 1779 
2240 2120 2081 1791 1558 2007 2233 1691 1418 
1991 1796 2088 1666 1908 1443 2075 2113 2095 
1992 2016 2144 1893 2057 1750 1753 2085 1631 
2003 2244 2170 1925 1914 2353 1585 2345 1735 
1407 1449 2049 2014 1717 1506 2006 1976 1490 
1906 2201 2026 2185 1968 1761 1823 2137 1888 
1686 2119 1546 1464 1682 2290 1451 1837 1612 
2264 1466 1919 2375 2078 2077 2012 1844 2282 
1578 2256 1969 1954 1946 1643 2231 1602 1696 
1741 1984 1652 1784 1920 1937 1982 1819 1936 
1752 2124 2001 1924 1892 1336 1876 1705 1747 
2182 2258 1902 1897 1447 2171 2323 1590 2098 
1850 2222 2105 1829 1720 1624 1834 1799 1855 
1760 2174 1664 1903 1615 1981 1918 1769 1849 
2060 1838 1951 1832 1785 2402 2367 1751 2027 
2226 1935 2178 1942 2036 1961 2392 2480 1502 
2129 2318 1748 1620 2295 1830 1845 2531 1863 
2271 2381 1777 2284 2230 1734 2400 2227 1605 
2125 2444 1848 1916 2439 2308 2419 2484 2198 
1938 2293 2237 1958 2287 2008 2470 2298 2368 
2365 2196 1783 2302 1864 1815 1633 2550 1640 
2370 1802 2427 1967 2360 2472 2507 2080 1940 
2247 2564 2166 2054 2639 2369 2391 1801 2377 
1934 2046 2070 1663 2459 2503 2009 2374 2317 
1835 2510 2511 2441 1894 1998 2436 2486 2494 
2424 2463 2457 1744 1841 1644 2347 2109 1978 
2404 2159 2307 1836 2257 2405 1932 2194 2315 
2478 2499 1657 2647 2437 2490 1879 1792 1500 
2448 2388 2048 2454 2571 1782 2266 1713 2157 
2547 2053 2389 2035 2383 1861 2372 1609 2018 
2361 2515 2330 1975 2280 2249 1944 1583 2485 
1839 2263 2466 2532 2052 1722 2445 2587 1805 
1895 2332 2346 2228 2557 2426 2177 1646 2546 
1852 2066 2331 2277 1671 2232 2505 2574 1725 
2042 2382 2175 2142 2580 1818 2149 2136 1923 
2563 2430 2324 1541 1889 1926 2311 2449 2321 
2076 2398 2617 2192 2102 2542 2079 2568 2000 
2225 2072 2040 1649 2358 2753 2461 2252 2489 
2115 1715 2329 2407 2339 2349 2378 2394 2068 
2474 2242 2279 2234 2538 2761 2316 1962 2108 
2254 2512 2396 2204 2554 2421 2380 2522 2440 
2306 2180 2366 2283 2154 2217 2777 2540 2243 
2354 2164 2387 1804 2289 2273 2214 2067 2218 
2303 2038 2530 2296 2272 2320 2083 2116 2418 
2495 2213 2477 2267 2646 2595 2351 2376 2191 
2304 2406 2117 1880 2409 2090 2301 2186 2325 
2417 2099 1900 2362 2356 2514 2211 2260 2744 
2393 2585 2570 2141 2334 2270 2435 2386 2462 
1922 1716 1775 2025 2527 2322 2456 2468 2219 
2122 2312 2024 2333 1824 2002 2268 2508 2269 
1905 2278 1933 2195 2160 2491 2071 2150 2062 
2664 2709 2567 2337 2889 2780 2403 2874 2250 
2471 1694 2544 2101 2326 2416 2460 2624 2518 
2251 2207 2199 2134 2220 2215 2297 2408 2103 
2355 2756 2693 2805 2063 2713 2703 2350 2156 
2364 2087 2209 2241 2667 2253 2776 2634 2653 
2181 2733 2496 1996 2236 2152 2959 2021 2275 
2844 2692 2184 1867 2183 2139 1800 2121 2420 
2132 2039 2145 2106 2200 1704 2138 2475 2130 
2525 2224 2118 2929 2255 2161 2569 2820 2832 
1960 2338 2740 2488 1857 2340 2189 2029 2239 
2310 1995 2112 1928 2423 2031 2935 1965 2592 
1979 2602 2819 2135 2043 2682 2110 1988 2964 
2114 2348 1987 2363 2450 2521 2059 2589 2033 
2327 2528 2610 2140 2158 2206 2846 1973 2625 
2841 2285 2044 2476 2168 1721 2700 2274 2104 
2245 2172 2615 2037 2276 2286 2787 2584 2371 
2690 2878 2946 2720 2502 2545 2092 2412 2986 
2675 2229 2526 2781 2169 2446 2410 2685 2895 
3079 2813 2509 1999 2872 2681 2023 2904 2537 
2395 2808 2818 2893 2842 2785 2482 2860 2797 
2775 2443 2497 2735 2504 2288 2809 2652 2344 
2758 2045 2996 2765 2519 2958 2704 2786 2607 
2500 2948 2762 2886 2899 3032 2783 2802 2927 
2688 2696 2747 2064 2669 2162 2187 2680 2816 
2523 2698 2493 2640 2623 2616 3042 2871 2789 
2950 2855 2143 2153 2662 2862 2847 2265 2953 
2559 2041 2975 2708 2216 2671 3036 2588 2586 
2764 3123 2699 2608 2341 2208 2885 2702 2597 
2969 2292 2609 2971 2434 2600 2131 2791 2834 
2294 2891 3012 2082 2714 2235 2335 2648 2205 
2739 2738 2411 2638 2313 2827 2579 2534 2535 
2452 2575 2399 2815 2197 2954 3047 3050 2836 
2428 2998 3081 2492 2385 2839 3046 2788 2800 
3040 2715 2212 2319 2552 2133 2770 2221 3078 
2853 2880 2562 1873 2414 2520 2697 3161 2465 
2513 2859 2985 2982 3006 3086 3028 2596 2767 
2300 3257 2128 3155 2892 3054 2909 2594 2336 
2384 2838 2359 2379 2447 2451 2729 2817 3076 
3013 3071 3143 3069 2900 3180 2915 2943 2968 
2978 2605 2438 2922 2928 3149 2806 2967 2578 
2539 2867 2429 3108 2665 2803 2467 2807 3171 
3085 2979 2952 2936 2963 3049 3004 3035 2533 
2032 2910 2501 2248 2642 2906 2868 2799 2689 
2790 2941 3075 3041 3037 3168 3160 2672 2632 
2873 2599 2972 2695 3060 3106 2773 2536 2911 
2373 2352 2431 2481 2981 2572 2314 2635 2849 
2549 2932 2636 2796 3030 2506 2731 2551 2792 
3017 2498 2843 2866 2390 2651 2947 2305 3018 
2656 2291 3142 3124 2774 3103 2262 3280 2930 
3276 2916 2581 2746 3053 2676 3153 2737 2719 
2743 2995 2925 3175 3178 2999 2974 2811 2861 
2931 3247 2529 3087 3026 2655 3132 3105 3282 
3072 2919 2870 2736 3188 3093 2751 2732 2401 
2565 2716 2840 2962 3147 2629 2988 3205 2730 
2643 2994 2865 2769 3212 3345 3001 2912 3019 
3011 3068 3343 2863 2957 2920 3003 3005 2907 
2903 3182 2603 3107 2897 2422 3024 2560 2005 
2548 2749 3096 2432 2679 2882 2724 2710 2433 
2997 2469 2763 2553 2583 3262 2944 3288 2631 
3033 2960 2828 3285 2593 2644 2582 3305 3302 
2543 2857 2757 3338 2541 2674 3240 2598 3326 
2966 2755 2425 2727 3007 2524 2645 2822 2734 
2281 2801 2712 2833 2864 2837 2896 3111 3066 
2992 2637 2901 2926 2627 2558 3283 2752 2848 
2726 2561 2771 2723 2328 3126 2641 2458 2825 
2654 3200 2741 3074 2649 3187 2989 2913 3058 
3051 3264 3088 2902 2622 2722 2633 2795 2965 
3190 2956 3385 3382 3406 2576 3089 3267 2923 
3277 3196 2742 2618 3387 3223 3317 2397 3077 
2887 3459 3327 3304 3370 3505 3104 2955 2875 
3408 3091 3488 3063 3008 2684 2626 2830 3065 
3204 3031 3059 3134 2556 3323 2455 3210 2921 
2611 2721 3398 3263 2890 3354 3220 3138 2851 
3512 3355 2591 2555 2784 3381 3424 3347 3311 
3433 2933 2772 2473 3116 2657 3336 2854 3471 
2621 3306 2879 3156 2829 3515 3258 3191 3083 
3278 3052 3110 2810 2917 2668 3418 3010 2990 
2918 3420 2707 3246 2711 3362 3172 3048 3483 
3380 3413 3231 2717 2728 3152 2660 3209 2793 
3399 2940 2794 3529 2630 3423 3308 3000 3022 
2725 2619 3407 2590 2650 3141 2604 2573 3183 
2980 2677 3206 3516 3389 3092 2973 2934 2694 
2606 2768 2831 2614 3201 2678 3131 2804 2984 
3014 3467 3038 3509 3194 3463 3165 2824 3023 
3229 3245 2991 3628 3430 3383 3117 2908 2687 
3039 3145 2898 3162 2483 3416 2845 3021 2701 
3157 3314 3136 3445 3635 2705 3388 3666 3514 
2883 3517 3316 3310 3226 3167 2782 3439 3477 
3214 3044 3195 2814 2745 3248 3122 2760 3084 
3350 3492 3441 3474 3616 2945 2949 3534 3537 
3056 3732 3625 3159 3082 2826 3349 2415 2487 
2951 3491 3329 3452 3587 3419 3202 3640 3592 
3612 3435 3631 2673 3496 3027 2852 2165 3737 
3148 3392 3233 2628 3591 3436 2881 3272 3513 
2748 3150 3064 3002 3502 3450 3542 3552 3151 
3275 3550 3608 3356 3520 3328 3045 3100 3244 
3016 3101 3461 2937 2683 3137 2750 3020 3295 
3057 2938 3526 2718 2663 3090 3549 2987 2666 
3197 3440 3456 3166 2961 2914 3451 3411 2658 
3115 2798 2479 2858 3268 3015 3562 3595 2876 
3216 2835 3334 3601 2894 2905 3773 3140 3373 
3674 3213 3495 3744 3725 3648 3875 3228 3633 
2691 3029 3271 3125 3718 3677 3511 3583 3361 
3299 3357 3594 2993 3482 3775 3753 3678 3404 
3255 3300 3466 3523 3530 3722 3400 3848 3723 
3567 3469 3672 3686 2976 3566 2869 3384 3360 
3638 3254 3127 3270 2613 3113 3169 3589 3394 
3414 3335 3578 3669 3547 3189 3734 3460 3830 
3184 3609 3500 3119 3232 3490 3144 3522 3238 
3715 3426 3470 3532 3745 3577 3429 3279 3536 
3320 3478 3743 3225 3221 3330 3602 2924 3112 
2812 3755 3690 3215 3844 3259 3252 3564 3080 
3489 3211 3235 3403 3097 3535 3770 3546 3174 
3510 3735 3281 3218 3560 3173 3158 3337 3750 
3395 3415 2939 3253 3464 2942 3475 2766 3293 
3525 3287 3761 3405 3528 2977 3260 2754 3179 
3351 3368 3062 3009 3421 3130 3203 3544 2821 
3582 3333 3073 3454 3094 3177 3095 3296 3043 
2612 2877 3607 3120 3663 3222 3070 3170 2983 
3315 3581 3843 3297 3446 3772 3453 3468 3312 
3457 3455 3551 3518 3615 3401 3501 3449 3369 
3584 3390 3176 3199 3842 3192 3376 3067 3273 
3358 3866 3634 3432 3892 3217 3313 3812 3647 
3706 3422 3701 3659 3476 3724 3133 3498 3391 
3366 2453 3269 3728 3561 3227 3499 3146 3164 
3256 3827 3321 3604 3494 3639 3286 3365 3448 
3888 3636 3795 3319 3784 3874 3447 3274 3606 
3822 4008 3163 3363 3553 3372 3375 3055 3557 
3486 3539 3367 3788 3493 3781 3838 3877 3914 
2661 3533 3649 3348 2884 3685 3644 3114 3109 
3741 3128 3207 3799 3332 3208 3325 3676 3650 
3291 3908 3331 3099 3824 3684 3632 3554 3596 
3186 3129 3198 3681 3585 3621 3102 3568 3181 
3402 3484 3438 3480 3717 3664 3826 3504 3527 
3261 3793 3702 3789 3393 3599 3318 3379 3689 
3193 3034 3765 3558 3241 2970 3410 3412 3693 
3652 3572 3340 3377 3760 3243 3307 3397 3524 
3342 3817 3780 3657 3396 4091 3711 3939 4083 
3540 3473 3990 3154 3746 3894 3749 3603 3250 
3565 3857 3118 3700 3481 3497 3374 3487 3425 
4074 3359 4079 3290 3352 3960 3697 3386 3952 
3617 3630 4029 3710 3882 3776 3845 3428 3671 
3590 3545 3135 4078 3437 3917 3785 3642 3769 
4027 3185 4056 4001 3870 3346 2464 3975 3576 
4022 3668 3695 4030 3953 3378 3654 3555 2601 
3868 3796 3485 3434 3956 3371 4020 3627 4116 
3586 3364 3819 3895 3986 3219 3816 3289 3804 
3251 3637 3688 3292 3973 4032 3322 3687 3763 
3729 4058 3840 3912 3619 3571 3739 3651 3855 
3303 3821 3891 3759 4025 3284 3691 3610 3948 
3139 3869 3575 3861 3237 3266 3748 4019 3121 
3679 3301 3854 3754 3716 3658 3236 3896 3508 
3692 3230 3699 3265 3294 3907 4096 2856 3417 
3730 3862 3462 3945 3742 3719 3818 3611 3597 
3893 3972 3887 3442 3971 3541 3675 3709 3573 
3444 3958 4138 3919 4044 3707 3913 3660 3872 
4002 3309 3712 2850 3801 3556 4051 4123 4202 
4047 4360 4257 3472 4113 3720 3984 3802 4181 
4064 3705 4063 3885 3731 3849 3673 3850 3926 
3563 4049 3864 3574 3458 3930 4247 3941 3839 
4211 3959 3871 4244 4087 3967 4009 4035 4264 
3570 3427 3756 4209 3721 4284 3829 4156 3629 
3969 3682 4080 3834 3762 3803 3324 3783 4198 
4073 3815 3600 4332 4107 4199 4236 4122 4117 
3920 3613 3588 3786 3905 3696 3998 3344 3626 
3531 3605 3714 4041 3667 3813 3740 4191 3867 
3825 4220 4026 4039 4086 3465 3995 4076 4144 
4132 3733 3782 3683 3353 3996 3506 3431 4088 
4259 4160 3991 4195 3618 4053 3982 3810 3932 
3341 4075 3811 3443 3521 3806 3614 3904 2670 
3622 4168 3339 4042 4045 4028 3409 3507 3620 
3579 3791 3828 3897 3548 4106 3779 3931 4093 
3656 3856 4126 4043 3921 4362 4178 3661 4155 
4070 3680 4241 3790 4157 3624 4288 4150 4357 
3964 3820 3646 4319 4015 4109 3944 3983 3923 
4379 4183 4459 4555 4318 4359 4136 4068 3936 
3538 4303 3852 3503 4082 4317 4101 3479 3757 
4386 3641 4323 4018 4399 4349 3889 3768 3777 
4351 4212 4111 3851 4307 4286 4145 4164 4172 
3758 4248 4243 4187 4176 3598 4215 3987 3963 
4112 3985 4265 4114 4282 3794 4188 3884 4061 
3890 4378 3835 3853 3662 4234 4394 3878 4033 
3593 3559 3752 4038 3916 4291 4119 4099 4057 
4277 4474 3906 3974 4179 4004 3623 3543 3808 
4298 4031 3708 3778 3873 3655 3713 3989 3962 
4121 4218 4250 4369 3898 4006 3876 4372 4281 
3999 3883 3766 3670 4120 3940 4197 4171 4077 
3929 4065 4130 4270 4196 4279 2566 3981 3809 
3580 4266 4208 4261 3694 4571 3900 3771 4435 
3993 4184 4142 4301 3832 4190 4400 4462 4100 
4273 4505 4356 4205 4023 4413 4485 4442 4481 
3955 3643 4420 4562 4431 4139 4310 4207 4456 
4239 4240 4437 4540 4306 4377 4398 4177 4334 
3797 4415 4347 4242 4422 4000 4186 4233 3738 
4174 4040 3918 4429 4108 3800 4330 4337 4496 
4389 4482 4552 3736 4488 4601 4493 3910 4010 
4472 3979 3947 4225 4224 4253 4340 4189 4443 
4200 3519 4436 4445 4216 4125 4314 4567 4659 
4201 4290 4393 4526 4374 4419 3901 3569 4021 
3886 3698 4297 4421 4593 3863 4439 3726 4517 
4192 4231 4342 4151 4397 3997 4329 4162 4092 
4324 4052 3858 4274 4016 4255 4095 3814 4262 