# vtk DataFile Version 4.2
Generated by LIGGGHTS
ASCII
DATASET POLYDATA
POINTS 70 float
0.00415463 -0.0398914 0.00499925 0.00189331 -0.0127272 0.00918618 0.0161664 -0.00511959 0.00499963 
-0.0288731 0.000683811 0.00499951 -0.00627622 -0.00307519 0.00840947 -0.00173169 -0.00115005 0.00499867 
-0.00954384 0.0115412 0.00499923 0.00596364 0.0067348 0.00499935 0.034077 0.00940817 0.00942642 
-0.0244976 0.0129951 0.00499909 -0.00413071 0.0187455 0.00499898 -0.0271457 0.0228517 0.01022 
0.00848483 0.0222272 0.00737971 0.0327017 0.0237786 0.00499893 -0.0158004 0.0300754 0.00499936 
0.0104887 0.0321007 0.00810017 0.0193373 0.0303733 0.00744596 -0.0120432 -0.0345829 0.018388 
0.0180697 -0.0197106 0.0181489 0.0357457 -0.0185345 0.0178799 0.031029 -0.00345836 0.0187753 
0.00221154 0.011842 0.0116273 -0.0318749 0.0152471 0.0189962 0.0274982 0.0234341 0.0175247 
0.00626411 -0.0387443 0.0202854 0.0222686 -0.0233558 0.0262158 -0.0203187 -0.0151885 0.021603 
0.00678314 -0.0144132 0.0242332 0.0249597 -0.0106361 0.0227673 0.011572 -0.00156322 0.0247216 
0.0176547 -0.00338256 0.0199045 0.0254961 -0.00154088 0.0263904 -0.0305904 0.0071055 0.0246424 
0.00935547 0.00965154 0.0251507 0.0275189 0.00990879 0.0261827 -0.00030817 0.0141261 0.0236588 
0.0125088 0.0175187 0.0272189 0.00184313 0.0281875 0.0214579 0.0228226 0.0375984 0.0195493 
-0.0145585 -0.0310339 0.032851 -0.010359 -0.0324735 0.0287771 0.016791 -0.0311122 0.0346448 
0.0263484 -0.0317271 0.0280191 -0.0418205 -0.0136199 0.0322057 -0.00841226 -0.0153001 0.0317959 
0.0200132 -0.0163744 0.0317398 0.00855048 -0.00731594 0.0353744 -0.0170789 0.00802935 0.0292565 
0.035766 0.00753715 0.0279136 -0.00440421 0.0223088 0.0280027 0.0131928 0.0212309 0.0318824 
-0.0275159 0.0323081 0.0333748 -0.00252421 0.0405105 0.0293863 -0.00337847 -0.0208856 0.0400041 
-0.0125358 -0.0166588 0.0424125 0.00325235 -0.0159539 0.0365206 0.0263872 -0.0175727 0.0382567 
-0.0319993 -0.00926989 0.0411704 -0.0143467 -0.00758229 0.0433045 -0.00847361 -0.00787378 0.0421132 
-0.0249206 0.00132678 0.03753 -0.026906 -0.00358547 0.0443499 -0.00458335 0.0105025 0.0433803 
0.0210925 0.00651766 0.0360969 -0.00420116 0.0197373 0.0439462 -0.0130053 0.0259172 0.0402099 
0.0192862 0.0319925 0.0364117 0.000513984 -0.0272944 0.0448254 0.0256082 -0.00272952 0.0448913 
-0.0121959 0.0308987 0.0466202 
VERTICES 70 140
1 0 
1 1 
1 2 
1 3 
1 4 
1 5 
1 6 
1 7 
1 8 
1 9 
1 10 
1 11 
1 12 
1 13 
1 14 
1 15 
1 16 
1 17 
1 18 
1 19 
1 20 
1 21 
1 22 
1 23 
1 24 
1 25 
1 26 
1 27 
1 28 
1 29 
1 30 
1 31 
1 32 
1 33 
1 34 
1 35 
1 36 
1 37 
1 38 
1 39 
1 40 
1 41 
1 42 
1 43 
1 44 
1 45 
1 46 
1 47 
1 48 
1 49 
1 50 
1 51 
1 52 
1 53 
1 54 
1 55 
1 56 
1 57 
1 58 
1 59 
1 60 
1 61 
1 62 
1 63 
1 64 
1 65 
1 66 
1 67 
1 68 
1 69 

POINT_DATA 70
FIELD FieldData 7
id 1 70 int
203 1744 375 597 1457 912 661 54 958 
394 467 1373 717 1174 728 934 844 1779 
1976 1593 2267 1428 2154 1925 2673 3155 2824 
2476 2255 2736 2121 2909 2812 3525 3244 2597 
3108 2539 2172 3802 3049 3936 3264 3766 3877 
3960 4218 3395 3241 3303 3862 4092 3557 4774 
5469 4537 4044 4863 5064 5129 4669 5429 5196 
4333 5591 4215 4415 5493 5453 5477 
type 1 70 int
2 2 2 2 2 2 2 2 2 
2 2 2 2 2 2 2 2 2 
2 2 2 2 2 2 2 2 2 
2 2 2 2 2 2 2 2 2 
2 2 2 2 2 2 2 2 2 
2 2 2 2 2 2 2 2 2 
2 2 2 2 2 2 2 2 2 
2 2 2 2 2 2 2 
i 3 70 int
0 0 0 0 0 0 0 0 0 
0 0 0 0 0 0 0 0 0 
0 0 0 0 0 0 0 0 0 
0 0 0 0 0 0 0 0 0 
0 0 0 0 0 0 0 0 0 
0 0 0 0 0 0 0 0 0 
0 0 0 0 0 0 0 0 0 
0 0 0 0 0 0 0 0 0 
0 0 0 0 0 0 0 0 0 
0 0 0 0 0 0 0 0 0 
0 0 0 0 0 0 0 0 0 
0 0 0 0 0 0 0 0 0 
0 0 0 0 0 0 0 0 0 
0 0 0 0 0 0 0 0 0 
0 0 0 0 0 0 0 0 0 
0 0 0 0 0 0 0 0 0 
0 0 0 0 0 0 0 0 0 
0 0 0 0 0 0 0 0 0 
0 0 0 0 0 0 0 0 0 
0 0 0 0 0 0 0 0 0 
0 0 0 0 0 0 0 0 0 
0 0 0 0 0 0 0 0 0 
0 0 0 0 0 0 0 0 0 
0 0 0 
v 3 70 double
1.3869672986e-06 -1.9845307661e-06 -3.7014178518e-08 7.5290892372e-07 -7.4359159436e-07 4.1120584192e-07 2.8879276031e-07 1.4289290791e-06 -2.0223090588e-06 
-2.2036376314e-07 8.1666485848e-08 -1.8723901573e-08 -6.0191312981e-07 -2.2792402534e-07 1.3827658416e-07 3.0940711368e-07 4.5061766383e-07 -8.8979610532e-08 
-3.0998577958e-07 2.5133709745e-06 1.540734536e-06 5.5722025973e-07 -1.5738978337e-07 -3.2892673139e-07 -1.206120742e-07 9.3251303718e-07 1.29707e-07 
-1.5761291654e-06 -2.7514367803e-06 3.2042414442e-06 -3.4467496243e-06 1.4016712414e-06 4.7895442466e-06 -6.4603426864e-07 2.1951505003e-06 -1.1782754556e-06 
-8.2049071577e-07 1.1102248624e-06 9.4837288154e-07 -1.86522741e-07 6.6665963409e-08 1.86454569e-08 -1.1812370529e-06 8.9545340766e-07 -3.2502119251e-06 
-8.9319431389e-07 -1.8234132454e-06 8.658448383e-08 1.0943373541e-07 -5.8205499556e-08 3.5123868978e-07 9.0453252331e-08 2.3805422448e-07 -8.9801065595e-08 
-1.1836376665e-07 1.0724206821e-06 3.1139381611e-07 1.1038996954e-07 -3.5563417434e-07 -3.9802053006e-07 -6.8009756934e-07 5.125257273e-07 -7.9023479008e-07 
-7.2179218802e-07 8.2051215962e-07 6.9651284428e-07 -1.0756758767e-07 -4.0817390495e-07 3.6914412151e-07 7.9441788841e-08 -5.9488255977e-07 -1.0254132972e-07 
9.7019451337e-07 3.2974829172e-06 -1.0176482085e-06 -2.2819074003e-07 1.3979054657e-07 -1.2142360568e-07 -1.7996181815e-07 1.8999418619e-07 6.2282686111e-08 
6.3977299957e-07 5.4944181064e-07 1.8015727495e-08 8.9787254339e-07 -6.9496689198e-08 1.1474906679e-06 2.5337347619e-07 3.3393601998e-08 -1.079676106e-06 
9.8535219137e-07 -3.104402087e-08 -3.8371592004e-08 7.0190896669e-07 -1.6639303723e-07 3.7150388946e-07 5.1045894545e-07 -5.5031967577e-10 2.2666607705e-07 
-3.5397025163e-07 5.932993043e-07 -2.6202488769e-07 2.7860383669e-07 5.8658237765e-07 -8.7797177349e-07 4.8588343785e-08 4.9449603121e-07 -3.3146155836e-09 
7.1076101851e-07 -4.3380514734e-07 -3.5953706829e-07 4.5156115667e-07 5.9968387863e-07 -1.3658459342e-07 -1.7728910469e-07 1.3526782987e-07 1.7450297595e-08 
1.267083215e-07 -4.0846681833e-08 -2.557673712e-07 2.1772852439e-07 4.3746728021e-07 -5.048981965e-08 -1.9664508157e-07 -4.9591507579e-07 7.7150831282e-07 
1.4457092905e-06 -1.8347978486e-06 1.3983701999e-06 2.2892883655e-07 -6.377399604e-08 3.007313409e-07 4.8724690435e-08 1.2757298223e-07 -2.431381717e-07 
-1.9225037633e-07 -1.8901941554e-07 -2.446582149e-07 -2.0045783548e-07 -1.2002615849e-07 4.4002826997e-07 1.5044765498e-07 -5.1200704002e-07 -1.9193558233e-07 
1.8865987457e-07 2.4940032701e-07 -2.2341482389e-07 2.6636557586e-07 6.420738645e-07 -1.5152210832e-07 -4.3651549582e-07 4.2364455687e-07 2.3686078721e-07 
5.520092442e-07 -8.4256312896e-08 -2.6376341118e-07 -8.0423242007e-08 -5.0881619636e-07 -3.7123990043e-07 9.3119411982e-08 1.3676984002e-07 -3.9878434734e-07 
2.8861371676e-08 7.1501059401e-08 -3.983117159e-07 2.0311932499e-07 -1.5707003998e-07 2.9914837955e-07 -1.1725158657e-08 -1.0050407651e-07 -1.6800044697e-07 
6.2076735436e-08 9.1638304587e-08 3.3815161673e-08 -1.6692215493e-08 2.1147289305e-07 2.8318148931e-08 -3.4057674698e-08 -6.5608307418e-09 -2.0408619654e-07 
-4.383406224e-07 -3.6725845483e-07 5.1806824892e-07 -4.1989153528e-08 -1.426749464e-07 9.4562397526e-08 -1.6315873882e-07 -1.6137341038e-08 -1.0381044653e-08 
4.2349412546e-07 -1.0676535152e-07 5.4075524332e-08 -4.9128298446e-07 -1.5161734967e-07 -1.4386140674e-07 4.516250754e-07 -2.8730284508e-07 8.3433814536e-08 
1.2631807907e-07 1.2293240665e-07 2.3305637997e-07 -1.0552495839e-07 9.4898107499e-09 1.22128851e-07 1.0915762811e-07 9.1069761206e-08 4.7079828028e-08 
-1.3825904269e-07 1.519382942e-07 -1.1245274516e-07 
f 3 70 double
3.5093316316e-05 2.028199837e-05 0.00011348797985 4.5431118698e-05 6.5428469011e-05 -1.8048019659e-05 -4.4305465249e-05 1.1687554788e-06 -2.1517389599e-05 
-9.6970196011e-06 1.0710191771e-05 -1.7206759539e-05 -2.9975804221e-05 -2.980787152e-05 2.9053499606e-05 -2.2997205755e-05 3.6922722299e-05 2.3279862644e-05 
1.0314322073e-05 -3.3458963325e-05 3.7664634923e-05 -2.1349026313e-05 -1.6824895674e-05 4.9351077313e-05 7.4798667299e-06 -4.4245974202e-06 -6.6218549208e-05 
3.3770259087e-05 2.8966217932e-06 4.2992831883e-05 -5.3233650128e-05 -5.483073641e-05 -5.0924199966e-05 2.1393379278e-05 2.3675428629e-05 2.1629512569e-05 
0.00015131205703 6.4523359782e-05 -6.9892340611e-05 -0.00011554557828 -3.9821252442e-05 3.1405295271e-05 -0.00011064838598 6.5681773073e-05 8.8347488631e-05 
-8.3725358775e-05 -4.534125173e-05 4.6638228249e-05 -5.0465384284e-06 3.4868295732e-05 -7.268272478e-05 2.7772376713e-05 -3.4384802419e-05 -3.723673104e-06 
4.2942472637e-05 3.6028477943e-05 5.6676030076e-05 5.7186723319e-07 7.8972828792e-06 3.8813440807e-05 1.7188249702e-05 -3.7243357193e-06 -2.7113527047e-05 
1.6453339173e-05 3.2659849195e-05 -6.4679053053e-06 3.7811163611e-05 1.2839150593e-05 -2.4242995493e-06 1.0727117492e-05 -8.9448360103e-06 -1.8456954387e-05 
1.8108073225e-05 1.7253111923e-05 5.8388014856e-05 2.4343266082e-05 -1.2687010539e-06 -7.5505430464e-06 7.2031702838e-06 2.0485322239e-05 9.5900608795e-06 
8.8036682445e-05 9.2253482091e-06 6.6997012351e-06 1.5940969339e-06 5.6463323907e-06 -6.1271202939e-05 -2.0861598256e-05 -1.7609134646e-05 1.1919683855e-05 
4.8381911036e-05 -9.1987556237e-06 -1.0078491281e-05 6.7738370881e-05 2.1393229754e-05 2.0640344152e-06 3.946430308e-05 -1.4829915461e-05 2.8234417795e-05 
-5.6395477016e-05 8.8817500725e-06 3.6582531052e-05 -1.2755481883e-05 3.9250113742e-05 -3.1352534995e-05 -4.6565100536e-05 4.2092472213e-06 6.4636964619e-05 
4.9323339449e-05 -6.9414694936e-06 -4.6282695681e-06 -2.4076010053e-05 2.1890379065e-05 4.8866146815e-06 2.3529305286e-05 2.3169319249e-05 -2.2701619235e-05 
2.4873427283e-05 -3.4558810365e-05 2.9350389229e-05 3.8546813561e-05 -7.3371175002e-06 -1.2682075661e-05 2.8206911471e-06 -2.2532101938e-05 -3.3242981604e-06 
-3.1696342535e-05 1.1290822199e-05 -2.5187946317e-05 4.032446926e-05 1.864046197e-06 -1.9053422442e-07 1.7899379764e-06 -1.8623358185e-05 -9.713652722e-06 
-2.2213764328e-05 1.4356997364e-05 -1.20270743e-05 3.0651263684e-06 -7.770195835e-06 1.1933033987e-05 -3.7108549724e-05 -3.6745023224e-05 4.1193123738e-06 
2.5461296604e-05 1.7193117999e-05 -3.5596820806e-05 3.4410958699e-05 -1.2289577516e-06 1.097669456e-05 2.5829335452e-05 -2.4521251433e-05 -1.7419678984e-05 
1.7833575471e-05 -2.271678887e-05 1.2238497678e-05 -1.0688291334e-05 -1.5082756303e-05 -2.2428586894e-05 -3.8251568857e-05 4.0783296501e-06 1.9028618626e-05 
7.3914014426e-06 -1.1971196775e-05 3.1236990368e-06 -1.1618498633e-05 -1.2952425743e-05 -1.2749427711e-06 -1.0613543631e-06 -4.2956835195e-06 3.9399893267e-06 
-1.0047837512e-05 -4.8989166096e-07 -7.2693283658e-07 9.0187445721e-07 5.8079067485e-06 -7.3945036302e-06 -7.2330161025e-09 -6.4547282564e-06 9.3686433083e-06 
-1.0932130121e-08 4.1779238915e-06 -2.4571230249e-05 7.8538141763e-06 2.2087869893e-06 -6.5077854697e-06 5.2205230006e-06 -1.0784631589e-06 2.4509636155e-06 
-1.7135833425e-05 7.7865057891e-06 6.2308558151e-06 -3.1485268919e-05 -2.4620141638e-06 7.4642828341e-06 -3.2263652521e-06 -5.7711015089e-06 1.0245376168e-05 
-9.6795121118e-06 -1.812633906e-05 8.1531121094e-06 1.3813969526e-05 -1.5954373221e-06 -1.8995005539e-06 -3.8049380825e-07 -1.0319162652e-05 -3.3048897649e-06 
-1.5090389962e-05 -1.7735276599e-06 -8.211300596e-06 
radius 1 70 double
0.003 0.003 0.003 0.003 0.003 0.003 0.003 0.003 0.003 
0.003 0.003 0.003 0.003 0.003 0.003 0.003 0.003 0.003 
0.003 0.003 0.003 0.003 0.003 0.003 0.003 0.003 0.003 
0.003 0.003 0.003 0.003 0.003 0.003 0.003 0.003 0.003 
0.003 0.003 0.003 0.003 0.003 0.003 0.003 0.003 0.003 
0.003 0.003 0.003 0.003 0.003 0.003 0.003 0.003 0.003 
0.003 0.003 0.003 0.003 0.003 0.003 0.003 0.003 0.003 
0.003 0.003 0.003 0.003 0.003 0.003 0.003 
omega 3 70 double
0.00065903590076 -3.9857396316e-06 0.00014907350189 -6.8671492601e-05 0.00032918902673 0.00021410551552 0.00048595290528 0.00089101120527 -0.00049742163762 
-5.4697586868e-05 -5.0007980722e-05 9.1161374193e-05 0.0001726948867 5.095846574e-06 -0.00020826171015 -7.775853265e-05 1.9870719547e-05 4.5180854282e-05 
-4.4209192375e-05 0.00078984689831 -0.00044732281013 -0.0002471438286 0.0004588642292 0.00024613361996 -0.00019199518313 -0.00014482263656 0.00013451912064 
9.4351345769e-05 0.00010077235423 0.00025768260665 0.00070955149441 0.00024589271214 0.0010595904606 0.0012909037274 0.0019867466113 0.0017707646124 
0.00080556158042 0.00049892635846 6.7158465086e-05 -0.00021998874292 0.0001709942226 -7.0141201955e-05 6.0801027288e-05 -0.0003263023277 -0.0021424613779 
3.8022257888e-05 -0.00057042282973 0.00058936502744 -5.1573282394e-05 -9.4366444575e-05 5.3580634053e-05 -0.00018892494545 1.6657124935e-05 -7.3065464718e-05 
-9.3249709258e-06 -0.00031789875743 -0.00042324652093 -0.0013565723183 -0.00014416355894 -0.00048942583905 0.00025894289784 0.00041688048257 -0.00017639302375 
-0.00022897033797 -0.00012498490156 -0.00028717460511 0.00038646540748 -0.00089614440662 0.00012850131827 -0.00010801207551 0.00016518180906 -2.0168486192e-05 
0.00075890910386 0.00064114784815 0.0025952920348 0.00010410562573 9.5147377426e-05 7.9281137204e-05 7.9865366242e-05 8.4031262241e-05 8.0492888183e-05 
-0.00063939435597 0.0011786494432 -0.00011621143142 -0.00022122276197 -0.00036736109204 6.6304602959e-05 5.9903482714e-05 0.00018562996457 0.00025269335247 
-0.00012357379245 -0.00016652070205 0.00030731431301 -6.8806103603e-06 3.7723903481e-05 -0.00026105422965 -0.00027059232073 0.00056637486086 0.00056638660817 
-4.301215182e-05 -0.00033257102813 0.00056549550656 -0.00031265027488 -0.00080780487914 -2.592289478e-05 0.00041611989538 0.00012137661918 -0.00032373325206 
-0.00064484680029 -5.4766102523e-05 0.0005604368941 1.4189991064e-05 0.00039394185701 -0.00020720086868 -0.00015809158381 9.1304899024e-05 0.00011496517879 
-6.3785353339e-05 0.00012329768842 -6.6138023258e-05 -2.1661972689e-05 -0.000106309399 -2.3638814094e-05 -4.5699214055e-05 0.0003612328955 -0.00040791072014 
-0.0014286976912 0.00085711863932 0.0016137187009 0.00055425929099 2.4402964864e-05 -0.00013250878811 3.5458524759e-05 -3.7269866003e-05 2.7439514291e-06 
-0.00014858161128 -2.0989826807e-07 -0.00011124860701 7.4431545623e-05 -0.00011052651895 -0.00015979740997 -0.00067680307338 -0.00033501746919 -0.00043698460434 
-0.00013887630336 0.00015778113033 0.00029967395193 0.00048939168951 0.00010987197502 -9.6823692251e-05 3.3407254101e-05 0.00033292451549 -1.3174841474e-05 
0.00024901586627 -0.0001127565025 -0.00011040327363 0.00011766804254 1.3976018979e-05 -0.00011896260549 0.00010448661714 0.00017959030056 9.5863441443e-06 
0.00011650567256 0.00011318959834 0.00020739940004 0.00016557862928 -4.602721341e-05 -0.00029133728414 -1.6139013221e-05 5.480939534e-05 8.9218851565e-05 
-0.00013798337154 -0.00032014611797 -0.00014631714565 3.6400581168e-05 0.00024497052686 9.5215712426e-05 9.5951666215e-05 0.00014260438718 0.00012162680304 
-5.4770867911e-05 -0.00049220217875 -0.00018859180665 -0.00027521423863 1.8053078968e-05 -0.00016457471607 -2.3000755356e-05 -7.350375912e-05 0.00021609600136 
-8.4955770388e-05 7.9250351084e-05 -0.00023383445101 -5.4331741423e-05 0.00039917177479 0.00027015807095 0.00016897460503 8.2532020843e-05 -6.1156817436e-05 
0.00030320218607 4.9041594566e-05 6.6877105314e-05 4.8308845813e-05 7.4226246258e-05 5.5735775755e-05 3.6335519923e-05 -0.00014581295938 2.2783111655e-05 
5.7757999753e-05 0.00011245751786 -0.00013754527954 
