# vtk DataFile Version 4.2
Generated by LIGGGHTS
ASCII
DATASET POLYDATA
POINTS 70 float
0.00415463 -0.0398914 0.00499925 0.00189331 -0.0127272 0.00918618 0.0161664 -0.00511959 0.00499963 
-0.0288731 0.000683811 0.00499951 -0.00627622 -0.00307519 0.00840947 -0.00173169 -0.00115005 0.00499867 
-0.00954385 0.0115412 0.00499923 0.00596364 0.0067348 0.00499935 0.034077 0.00940817 0.00942642 
-0.0244976 0.0129951 0.00499909 -0.00413072 0.0187455 0.00499898 -0.0271457 0.0228517 0.01022 
0.00848483 0.0222272 0.00737971 0.0327017 0.0237786 0.00499893 -0.0158004 0.0300754 0.00499936 
0.0104887 0.0321007 0.00810017 0.0193373 0.0303733 0.00744596 -0.0120432 -0.0345829 0.018388 
0.0180697 -0.0197106 0.0181489 0.0357457 -0.0185345 0.0178799 0.031029 -0.00345836 0.0187753 
0.00221154 0.011842 0.0116273 -0.0318749 0.0152471 0.0189962 0.0274982 0.0234341 0.0175247 
0.00626411 -0.0387443 0.0202854 0.0222686 -0.0233558 0.0262158 -0.0203187 -0.0151885 0.021603 
0.00678314 -0.0144132 0.0242332 0.0249597 -0.0106361 0.0227673 0.011572 -0.00156322 0.0247216 
0.0176547 -0.00338256 0.0199045 0.0254961 -0.00154088 0.0263904 -0.0305904 0.0071055 0.0246424 
0.00935547 0.00965154 0.0251507 0.0275189 0.00990879 0.0261827 -0.00030817 0.0141261 0.0236588 
0.0125088 0.0175187 0.0272189 0.00184313 0.0281875 0.0214579 0.0228226 0.0375984 0.0195493 
-0.0145585 -0.0310339 0.032851 -0.010359 -0.0324735 0.0287771 0.016791 -0.0311122 0.0346448 
0.0263484 -0.0317271 0.0280191 -0.0418205 -0.0136199 0.0322057 -0.00841226 -0.0153001 0.0317959 
0.0200132 -0.0163745 0.0317398 0.00855048 -0.00731594 0.0353744 -0.0170789 0.00802935 0.0292565 
0.035766 0.00753715 0.0279136 -0.00440421 0.0223088 0.0280027 0.0131928 0.0212309 0.0318824 
-0.0275159 0.0323081 0.0333748 -0.00252421 0.0405105 0.0293863 -0.00337847 -0.0208856 0.0400041 
-0.0125358 -0.0166588 0.0424125 0.00325235 -0.0159539 0.0365206 0.0263872 -0.0175727 0.0382567 
-0.0319993 -0.00926989 0.0411704 -0.0143467 -0.00758229 0.0433045 -0.0084736 -0.00787378 0.0421132 
-0.0249206 0.00132678 0.0375301 -0.026906 -0.00358547 0.0443499 -0.00458335 0.0105025 0.0433803 
0.0210925 0.00651766 0.0360969 -0.00420116 0.0197373 0.0439462 -0.0130053 0.0259172 0.0402099 
0.0192862 0.0319925 0.0364117 0.000513986 -0.0272944 0.0448254 0.0256082 -0.00272952 0.0448913 
-0.0121959 0.0308987 0.0466202 
VERTICES 70 140
1 0 
1 1 
1 2 
1 3 
1 4 
1 5 
1 6 
1 7 
1 8 
1 9 
1 10 
1 11 
1 12 
1 13 
1 14 
1 15 
1 16 
1 17 
1 18 
1 19 
1 20 
1 21 
1 22 
1 23 
1 24 
1 25 
1 26 
1 27 
1 28 
1 29 
1 30 
1 31 
1 32 
1 33 
1 34 
1 35 
1 36 
1 37 
1 38 
1 39 
1 40 
1 41 
1 42 
1 43 
1 44 
1 45 
1 46 
1 47 
1 48 
1 49 
1 50 
1 51 
1 52 
1 53 
1 54 
1 55 
1 56 
1 57 
1 58 
1 59 
1 60 
1 61 
1 62 
1 63 
1 64 
1 65 
1 66 
1 67 
1 68 
1 69 

POINT_DATA 70
FIELD FieldData 7
id 1 70 int
203 1744 375 597 1457 912 661 54 958 
394 467 1373 717 1174 728 934 844 1779 
1976 1593 2267 1428 2154 1925 2673 3155 2824 
2476 2255 2736 2121 2909 2812 3525 3244 2597 
3108 2539 2172 3802 3049 3936 3264 3766 3877 
3960 4218 3395 3241 3303 3862 4092 3557 4774 
5469 4537 4044 4863 5064 5129 4669 5429 5196 
4333 5591 4215 4415 5493 5453 5477 
type 1 70 int
2 2 2 2 2 2 2 2 2 
2 2 2 2 2 2 2 2 2 
2 2 2 2 2 2 2 2 2 
2 2 2 2 2 2 2 2 2 
2 2 2 2 2 2 2 2 2 
2 2 2 2 2 2 2 2 2 
2 2 2 2 2 2 2 2 2 
2 2 2 2 2 2 2 
i 3 70 int
0 0 0 0 0 0 0 0 0 
0 0 0 0 0 0 0 0 0 
0 0 0 0 0 0 0 0 0 
0 0 0 0 0 0 0 0 0 
0 0 0 0 0 0 0 0 0 
0 0 0 0 0 0 0 0 0 
0 0 0 0 0 0 0 0 0 
0 0 0 0 0 0 0 0 0 
0 0 0 0 0 0 0 0 0 
0 0 0 0 0 0 0 0 0 
0 0 0 0 0 0 0 0 0 
0 0 0 0 0 0 0 0 0 
0 0 0 0 0 0 0 0 0 
0 0 0 0 0 0 0 0 0 
0 0 0 0 0 0 0 0 0 
0 0 0 0 0 0 0 0 0 
0 0 0 0 0 0 0 0 0 
0 0 0 0 0 0 0 0 0 
0 0 0 0 0 0 0 0 0 
0 0 0 0 0 0 0 0 0 
0 0 0 0 0 0 0 0 0 
0 0 0 0 0 0 0 0 0 
0 0 0 0 0 0 0 0 0 
0 0 0 
v 3 70 double
-5.9429106345e-07 7.8495822801e-07 -2.7169194842e-06 6.3249371734e-07 -2.9367098123e-07 -2.994896242e-07 4.0279709854e-06 -4.2560615493e-07 2.6164540083e-07 
-3.0492343918e-07 9.8237950716e-08 -2.0946002273e-07 -7.9598711134e-08 -3.3013171158e-08 1.6426320756e-07 4.2985922161e-07 5.1447597139e-07 9.6266356982e-08 
-3.8722881935e-07 3.3549874675e-06 1.7812247765e-06 3.5654838262e-08 8.3719154364e-07 -3.3197112204e-07 -5.2181650016e-07 5.8127783291e-07 -2.2283537179e-07 
-1.5463081619e-06 -2.166373831e-06 1.383483148e-06 -4.1173558491e-07 2.5519525297e-06 5.3337965597e-06 -5.5146241809e-07 1.0195807693e-06 -1.8731227207e-06 
-1.8431735137e-06 -3.1388681115e-07 1.4229570254e-06 4.7845909654e-08 1.263680304e-07 -4.0757815908e-07 1.1570593825e-06 -6.1529396408e-07 -5.4663128018e-06 
-9.2338420633e-08 3.4921695e-07 1.0406780026e-06 -1.0020221751e-07 -6.8140720585e-08 2.2872630971e-07 -6.6122042034e-07 2.8421104443e-07 4.0524815534e-07 
3.7247518317e-07 -3.9002039986e-07 -9.7370208095e-07 -8.1298928463e-07 -1.2242104987e-06 -1.5805568649e-06 -5.9329086028e-07 3.4908263322e-08 6.2114415502e-07 
-1.1379596638e-06 6.3712385159e-07 3.2193086161e-07 -1.2219422576e-07 -3.1063601758e-07 5.3270210901e-07 3.1900946096e-07 -2.1588879106e-07 -1.5675059272e-07 
1.8882480333e-06 -2.2303918436e-06 -3.5565968231e-06 1.1459446339e-07 -1.8191479654e-07 4.2678670979e-07 -1.524592654e-07 5.6527649403e-09 -7.2637480691e-08 
-2.3912459248e-09 2.0463645202e-07 4.0721929786e-08 -7.5244401328e-07 3.0125268175e-07 1.3696045536e-06 6.6142075289e-07 7.1402448603e-08 -2.9896678637e-07 
-1.1259656368e-06 -3.1882295311e-07 -1.3784772396e-06 1.2704359569e-07 -7.4884199371e-08 -4.9347096991e-07 1.7425415796e-07 1.1886504837e-07 1.2154199879e-07 
-4.1790205723e-07 9.7626346454e-07 -3.258642904e-08 6.4432568034e-07 4.3351398138e-08 -1.5738970773e-06 1.4967130827e-07 1.3056435385e-07 1.439006581e-08 
4.944859831e-07 -2.0882094744e-07 9.0454076796e-08 5.4307024591e-07 2.6994208908e-07 -1.7713092899e-07 -1.5301859178e-07 -1.6005008192e-08 3.9383738329e-08 
2.8286957531e-07 2.8850857188e-07 -1.1847463273e-07 2.3845304549e-07 8.1920948226e-08 -2.8631393547e-07 -2.741928977e-07 -1.7164363477e-07 -2.4566342613e-07 
7.5850986855e-07 8.3623499632e-07 1.2234627057e-06 4.3038346771e-07 -2.9918281568e-07 3.3390670011e-07 7.3233551226e-08 2.5443997666e-07 -9.4462750845e-08 
2.8803432297e-07 2.7567505863e-07 -1.9379167369e-07 -1.6368125829e-07 2.299351077e-08 1.5396948142e-07 4.0300139652e-07 -3.5874373666e-07 1.0492499825e-07 
2.6099381965e-07 -8.6534895982e-09 -4.3986920816e-07 2.8715664806e-07 8.0032383415e-07 2.3964039359e-07 7.2769754857e-09 2.1921649157e-07 1.9208864956e-07 
3.2050137143e-07 1.1780358955e-07 -3.9224496871e-07 6.8106839125e-08 -8.207782461e-07 -2.0180651526e-07 -2.0584339654e-07 1.9055305514e-07 5.9469117139e-07 
3.3769403848e-07 -1.7487785008e-07 5.9098916147e-07 -1.2532724157e-07 1.4157225784e-07 -3.2303028654e-07 -1.939292158e-07 3.0196979845e-07 -1.7939653137e-07 
7.9522119946e-08 1.2062218588e-07 -1.2441421078e-07 -1.8331000313e-07 -4.2409888734e-08 2.3586725433e-07 -4.8150637242e-08 -2.1586099668e-08 9.2253990774e-08 
-3.3848057078e-07 -3.0542508967e-08 1.6274668062e-07 3.4808395216e-08 -5.9371565728e-09 -1.2789445787e-07 -1.2384778141e-07 5.3450268476e-09 -5.1626046781e-09 
4.2209668818e-08 8.8439441287e-09 2.1355287312e-08 -8.9715993145e-08 -5.551387509e-08 -1.0726489698e-07 2.5549424898e-07 -1.6277881114e-07 1.261001535e-07 
-5.391993554e-08 -6.2658481211e-08 -2.029913793e-07 1.7217733186e-07 -1.0037599943e-07 -8.4764915184e-09 1.1314398441e-07 1.0279233522e-08 5.2008290318e-08 
-1.385914297e-07 2.0639686494e-07 -1.6809781654e-07 
f 3 70 double
5.3558219985e-05 8.3466272571e-07 0.00010535566738 6.720704072e-05 8.3037748135e-05 -3.2581287887e-05 -3.6207484792e-06 1.8685622175e-05 -3.3058117849e-05 
-1.1013677698e-05 1.0517512505e-05 -1.9114259782e-05 -3.3990932109e-05 -3.0238386198e-05 3.1285094407e-05 -2.2611396413e-05 4.627158302e-05 2.2731091793e-05 
5.9823321286e-06 -2.6519585319e-05 7.2388678578e-05 -1.4452977879e-05 -1.3976646835e-05 4.8154838474e-05 -3.6170222285e-06 1.5095499681e-05 -5.8227920565e-05 
2.4905891947e-05 -1.4673456138e-05 7.0626473767e-05 -9.6103969671e-05 -5.6795517016e-05 -4.2126196822e-05 -1.332255779e-05 4.4359325891e-05 3.1669419157e-05 
6.5239557528e-05 4.1982591635e-05 -1.0925973046e-05 -5.7483602299e-05 -2.4957615086e-07 1.3968568292e-05 -9.8683953972e-05 5.8322236348e-05 6.7100217324e-05 
-0.00010217743499 5.5952643483e-05 6.4288830777e-05 -2.4881990746e-06 2.9387991541e-05 -6.529137922e-05 2.4749746435e-05 -2.8016171503e-05 1.700768036e-06 
4.7590788068e-05 4.5227247887e-05 4.2781704572e-05 -1.0828011644e-05 -3.9249309575e-06 1.270368932e-05 3.8358444515e-06 1.4355839249e-06 -3.1132245683e-05 
-4.5594693348e-06 3.2962025794e-05 6.112027958e-06 4.2758578176e-05 3.1465506543e-05 1.8528637849e-06 1.2620158925e-05 -1.1935663548e-05 -2.0051903584e-05 
5.4584171226e-05 3.4717332874e-05 -7.5003778948e-06 3.4199262973e-05 -4.5768581264e-06 -5.6663205481e-06 1.2787188672e-05 2.6076650342e-05 8.7524519416e-06 
-3.4804180466e-05 -3.7089256352e-05 8.7730712208e-07 1.1912890482e-05 8.303427327e-06 -3.6377163988e-05 -7.3700661215e-06 -1.0667163491e-05 -1.142486719e-05 
4.0370939035e-05 -3.1489671988e-06 -1.9429741355e-05 8.5901512093e-05 1.511363573e-05 9.6032221049e-06 4.7572631784e-05 -9.912686413e-07 2.9874764272e-05 
-4.182842392e-05 1.6653882007e-05 1.3912949918e-05 -4.4233715577e-05 7.4240842337e-06 3.5919135062e-06 -3.6616348841e-05 -9.0878718051e-06 4.2659346791e-05 
5.8440901759e-05 -9.2118708222e-06 -2.762398994e-06 -2.503979441e-05 2.6430125179e-05 2.8607887778e-06 2.7395585553e-05 2.4774723756e-05 -2.5074872139e-05 
2.5705142305e-05 -3.6224186238e-05 2.9534130586e-05 3.4626269093e-05 4.5972143547e-06 -1.5954977054e-05 -8.9477085216e-06 -3.305998154e-05 5.8648374397e-05 
3.5336460184e-05 -0.0001181761578 8.1787791918e-05 4.0910156462e-05 -4.4535523504e-06 6.2125077231e-06 2.8317963269e-06 -1.796247696e-05 -8.0229169663e-06 
-3.5588641475e-06 5.1359866051e-06 -1.9090038869e-05 2.1538777974e-06 -1.5790215368e-05 4.1938750078e-06 -3.2111992025e-05 -2.8350104439e-05 1.7562531652e-05 
4.2704658172e-05 9.9815307753e-06 -4.5216629647e-05 4.184959392e-05 -4.2491118201e-05 2.3682544414e-05 1.8089728519e-05 -2.8924738805e-05 -1.1498020138e-05 
1.939607871e-05 -1.7541004705e-05 1.1273671205e-05 8.6694544278e-06 -1.0997825667e-05 -2.1491104783e-06 -3.6523536925e-05 5.6665191878e-06 2.6520541521e-05 
2.7447414344e-06 -1.2502835602e-05 -8.2837198294e-07 -2.0625235755e-05 -7.8711831516e-06 -1.9448258626e-05 2.8480253139e-06 -3.8268616988e-06 8.1372981114e-06 
-1.6511554326e-05 2.637930932e-06 8.1567027336e-06 1.0156520473e-05 4.3417441852e-06 -3.7806420154e-06 5.8587281313e-06 -1.073635501e-05 1.0572953098e-05 
1.2036169748e-05 2.1128884769e-05 -4.6283039416e-05 4.6687724197e-06 2.4039483395e-06 -3.6652831175e-06 1.0267240102e-05 -5.0819768534e-06 3.9030310123e-06 
-2.1998787075e-05 1.2053994972e-05 6.0425270138e-06 -5.8159798237e-06 5.9589489908e-06 5.0331004691e-06 -9.6753843638e-06 -1.6799733953e-06 1.3034148206e-05 
-1.570680152e-05 -1.5055533068e-05 1.5203768105e-05 1.6383908199e-05 -3.9565421513e-06 -1.4435714725e-06 -2.0408808975e-06 -4.1676703728e-06 -3.3007267227e-06 
-4.9194395369e-06 -3.0473487758e-06 -1.2117883085e-06 
radius 1 70 double
0.003 0.003 0.003 0.003 0.003 0.003 0.003 0.003 0.003 
0.003 0.003 0.003 0.003 0.003 0.003 0.003 0.003 0.003 
0.003 0.003 0.003 0.003 0.003 0.003 0.003 0.003 0.003 
0.003 0.003 0.003 0.003 0.003 0.003 0.003 0.003 0.003 
0.003 0.003 0.003 0.003 0.003 0.003 0.003 0.003 0.003 
0.003 0.003 0.003 0.003 0.003 0.003 0.003 0.003 0.003 
0.003 0.003 0.003 0.003 0.003 0.003 0.003 0.003 0.003 
0.003 0.003 0.003 0.003 0.003 0.003 0.003 
omega 3 70 double
-0.00064032514966 8.2422124166e-05 -0.00064773568183 0.00065141401575 0.00049861750054 0.0012011648465 -0.00051514797064 -0.00096734793075 0.00070203606522 
-4.3660147996e-05 -7.8515574112e-05 0.0001838245332 -2.1325759746e-06 2.6260495573e-05 -0.00010457353835 6.8157599835e-05 -9.3464818317e-05 -2.7925513854e-05 
-6.5442395494e-06 0.00082173139786 -0.00062405548343 -0.00017399158211 0.00034093417425 0.00021841638512 0.00010889299785 -3.6517187676e-06 -0.00029852722234 
0.00022835294501 0.0002608590785 0.00097662637779 0.0014405502377 0.00037225568163 -0.0003497442898 0.0013150273202 0.0019400977988 0.0010747028588 
-0.00064491336234 0.0010739234829 -0.0006447931245 -2.0116471064e-05 9.1490035397e-05 0.00038416494874 1.2754362484e-05 -0.0002592827535 -0.0014758114685 
-0.00029742588379 -6.7785543775e-05 4.0967093679e-05 1.2907710144e-05 -0.00010631684887 6.850617835e-05 0.00033772362459 4.3424710275e-05 -0.00013396375185 
0.00054563847578 -0.00055886006856 -0.0006140839063 -0.00041946749411 0.00010780891848 -0.00097332387168 -6.1864492124e-05 0.00015564407388 -0.00011613194676 
-0.0001567574397 0.00028228708735 -0.00033153329569 0.00020142712382 -0.0005373343196 0.00010323158598 -9.9288108104e-05 0.00011343727619 -1.7968411768e-05 
0.00026424568478 -0.0002327652814 -0.00048358216311 0.00014883807597 -3.3739534411e-05 -0.00021475799115 2.4665033659e-05 5.7244929301e-05 -1.72612463e-05 
-0.00044227021401 -0.00021701853349 -0.00016859183031 1.5255318421e-05 -3.0921513772e-05 -2.7593634004e-05 -6.1131486639e-05 0.00029429194452 0.00018640679995 
0.00057279658882 0.0005033465824 0.00043972177971 9.853908047e-05 0.00011096971199 -0.00013324027597 -0.00011038156686 0.0001256080449 0.00045076687809 
6.2898213879e-05 -0.00050399326829 0.00046779379262 -0.00027909189821 -0.00081645922526 -0.00051003252047 0.00032165175288 0.00010994881063 -0.00021299398018 
-0.00082360783635 -0.00014574395613 0.00069368932032 -9.7804114969e-05 -7.5316587157e-05 7.666583581e-06 -0.0002558655205 8.4869552939e-05 0.00016044258588 
0.00017146740147 1.3501014053e-05 -6.3743765817e-06 -3.376481487e-05 2.8604498378e-05 0.00018701671115 -0.00023151522329 0.00049182622932 0.00012450645138 
0.0002687851286 -0.00073011387675 0.00026502285556 0.00034494619727 -2.7976659914e-05 -0.00015511826865 -1.8141403359e-05 -6.7735440176e-05 0.00010417030996 
-7.9116955185e-05 9.8840135658e-05 -2.2210669708e-05 0.00024350689925 -7.5525069263e-05 8.8050182249e-05 0.00017177464181 -0.00044951118201 -0.00017669861296 
-0.00027398018774 -0.00029620734104 -0.00012230368011 0.00063712834452 0.00043017197387 -0.00010496453399 -2.6598739191e-05 0.00011921419565 -4.7262971782e-05 
0.00015027363157 -0.00028579131281 -0.00030688602622 0.00026675304972 -0.00022655817774 -0.00025778792129 8.6783847767e-05 -0.00024729718141 -0.00016474324163 
-7.6516713348e-05 5.7531127245e-05 -5.4063269721e-05 -3.7369060451e-05 -8.5148795038e-06 5.6465029163e-05 5.6311810683e-05 -2.9061510625e-05 -0.0002608199101 
0.00026618695692 6.2815369319e-05 -0.00015644785086 0.00013265285907 5.3005543165e-05 2.2665275866e-05 7.8243191084e-06 1.0867011472e-06 1.1587720216e-05 
-0.0001128488042 -6.833857131e-05 0.00021125607253 0.00020650346141 -0.00018810479382 0.00021524810056 0.00014841353979 0.00011625363463 -8.531535231e-06 
-0.00011924678185 -9.7830680569e-05 -0.00011999318654 1.9385586432e-05 3.8322624214e-05 -2.1874462305e-05 0.00014336275279 0.00022806180895 -0.00012772744009 
0.00012873643495 5.8381322195e-05 -1.8909893326e-07 -0.00069143943602 -0.00015251491071 -0.00014392305633 -6.9431001112e-05 -1.6114891248e-05 -1.4993082731e-06 
0.00014132256487 0.00016589531072 -3.0210834608e-05 
