# vtk DataFile Version 4.2
Generated by LIGGGHTS
ASCII
DATASET POLYDATA
POINTS 70 float
0.00415463 -0.0398914 0.00499925 0.00189331 -0.0127272 0.00918618 0.0161664 -0.00511959 0.00499963 
-0.0288731 0.000683813 0.00499951 -0.00627622 -0.00307519 0.00840947 -0.00173169 -0.00115005 0.00499867 
-0.00954384 0.0115412 0.00499923 0.00596364 0.0067348 0.00499935 0.034077 0.00940817 0.00942642 
-0.0244976 0.0129951 0.00499909 -0.00413071 0.0187455 0.00499898 -0.0271457 0.0228517 0.01022 
0.00848483 0.0222272 0.00737971 0.0327017 0.0237786 0.00499893 -0.0158004 0.0300754 0.00499936 
0.0104887 0.0321007 0.00810017 0.0193373 0.0303733 0.00744596 -0.0120432 -0.0345829 0.018388 
0.0180697 -0.0197106 0.0181489 0.0357457 -0.0185345 0.0178799 0.031029 -0.00345836 0.0187753 
0.00221154 0.011842 0.0116273 -0.0318749 0.0152471 0.0189962 0.0274982 0.0234341 0.0175247 
0.00626411 -0.0387443 0.0202854 0.0222686 -0.0233558 0.0262158 -0.0203187 -0.0151885 0.021603 
0.00678314 -0.0144132 0.0242332 0.0249597 -0.0106361 0.0227673 0.011572 -0.00156322 0.0247216 
0.0176547 -0.00338256 0.0199045 0.0254961 -0.00154088 0.0263904 -0.0305904 0.0071055 0.0246424 
0.00935547 0.00965154 0.0251507 0.0275189 0.00990879 0.0261827 -0.00030817 0.0141261 0.0236588 
0.0125088 0.0175187 0.0272189 0.00184313 0.0281875 0.0214579 0.0228226 0.0375984 0.0195493 
-0.0145585 -0.0310339 0.032851 -0.010359 -0.0324735 0.0287771 0.016791 -0.0311122 0.0346448 
0.0263484 -0.0317271 0.0280191 -0.0418205 -0.0136199 0.0322057 -0.00841226 -0.0153001 0.0317959 
0.0200132 -0.0163745 0.0317398 0.00855048 -0.00731594 0.0353744 -0.0170789 0.00802935 0.0292565 
0.035766 0.00753715 0.0279136 -0.00440421 0.0223088 0.0280027 0.0131928 0.0212309 0.0318824 
-0.0275159 0.0323081 0.0333748 -0.00252421 0.0405105 0.0293863 -0.00337847 -0.0208856 0.0400041 
-0.0125358 -0.0166588 0.0424125 0.00325235 -0.0159539 0.0365206 0.0263872 -0.0175727 0.0382567 
-0.0319993 -0.00926988 0.0411704 -0.0143467 -0.00758229 0.0433045 -0.00847361 -0.00787377 0.0421132 
-0.0249206 0.00132678 0.03753 -0.026906 -0.00358547 0.0443499 -0.00458335 0.0105025 0.0433803 
0.0210925 0.00651766 0.0360969 -0.00420116 0.0197373 0.0439462 -0.0130053 0.0259172 0.0402099 
0.0192862 0.0319925 0.0364117 0.000513981 -0.0272944 0.0448254 0.0256082 -0.00272952 0.0448913 
-0.0121959 0.0308987 0.0466202 
VERTICES 70 140
1 0 
1 1 
1 2 
1 3 
1 4 
1 5 
1 6 
1 7 
1 8 
1 9 
1 10 
1 11 
1 12 
1 13 
1 14 
1 15 
1 16 
1 17 
1 18 
1 19 
1 20 
1 21 
1 22 
1 23 
1 24 
1 25 
1 26 
1 27 
1 28 
1 29 
1 30 
1 31 
1 32 
1 33 
1 34 
1 35 
1 36 
1 37 
1 38 
1 39 
1 40 
1 41 
1 42 
1 43 
1 44 
1 45 
1 46 
1 47 
1 48 
1 49 
1 50 
1 51 
1 52 
1 53 
1 54 
1 55 
1 56 
1 57 
1 58 
1 59 
1 60 
1 61 
1 62 
1 63 
1 64 
1 65 
1 66 
1 67 
1 68 
1 69 

POINT_DATA 70
FIELD FieldData 7
id 1 70 int
203 1744 375 597 1457 912 661 54 958 
394 467 1373 717 1174 728 934 844 1779 
1976 1593 2267 1428 2154 1925 2673 3155 2824 
2476 2255 2736 2121 2909 2812 3525 3244 2597 
3108 2539 2172 3802 3049 3936 3264 3766 3877 
3960 4218 3395 3241 3303 3862 4092 3557 4774 
5469 4537 4044 4863 5064 5129 4669 5429 5196 
4333 5591 4215 4415 5493 5453 5477 
type 1 70 int
2 2 2 2 2 2 2 2 2 
2 2 2 2 2 2 2 2 2 
2 2 2 2 2 2 2 2 2 
2 2 2 2 2 2 2 2 2 
2 2 2 2 2 2 2 2 2 
2 2 2 2 2 2 2 2 2 
2 2 2 2 2 2 2 2 2 
2 2 2 2 2 2 2 
i 3 70 int
0 0 0 0 0 0 0 0 0 
0 0 0 0 0 0 0 0 0 
0 0 0 0 0 0 0 0 0 
0 0 0 0 0 0 0 0 0 
0 0 0 0 0 0 0 0 0 
0 0 0 0 0 0 0 0 0 
0 0 0 0 0 0 0 0 0 
0 0 0 0 0 0 0 0 0 
0 0 0 0 0 0 0 0 0 
0 0 0 0 0 0 0 0 0 
0 0 0 0 0 0 0 0 0 
0 0 0 0 0 0 0 0 0 
0 0 0 0 0 0 0 0 0 
0 0 0 0 0 0 0 0 0 
0 0 0 0 0 0 0 0 0 
0 0 0 0 0 0 0 0 0 
0 0 0 0 0 0 0 0 0 
0 0 0 0 0 0 0 0 0 
0 0 0 0 0 0 0 0 0 
0 0 0 0 0 0 0 0 0 
0 0 0 0 0 0 0 0 0 
0 0 0 0 0 0 0 0 0 
0 0 0 0 0 0 0 0 0 
0 0 0 
v 3 70 double
-1.1945094752e-06 4.1286730507e-07 1.3711440358e-06 9.1263487482e-07 -1.7102391002e-06 2.6481774648e-07 2.1004599947e-08 1.3120254531e-06 -2.0025542597e-06 
2.4421450343e-07 7.2258957759e-08 5.2813790341e-07 -1.7084260836e-07 -2.1605955113e-07 2.3923920722e-07 -9.9038716683e-08 2.3173928672e-08 -9.0170021243e-08 
-8.7772248675e-08 -1.0303709947e-06 -9.1770961615e-07 2.2965288036e-07 -3.9963494076e-07 1.8921799694e-07 8.1925668857e-09 9.8648356185e-07 2.6275475272e-07 
6.5361536915e-07 2.1989279883e-06 -2.0761673199e-06 5.2667439071e-06 9.5011475266e-08 -3.0385960696e-06 -1.4110793469e-07 -1.808658657e-06 -1.0999649215e-08 
-3.8013111873e-07 -2.2092172545e-07 2.5425933741e-07 -7.5172090566e-07 7.4724967805e-08 1.8112184163e-07 4.6803284946e-06 -3.1807722604e-06 2.5917807797e-07 
7.9333420527e-07 3.1975640021e-07 -1.4681827042e-07 1.26714371e-07 5.3214124459e-08 -2.9403369489e-07 9.4545098276e-07 -4.0678398963e-07 -3.625737744e-07 
8.7546537874e-08 -7.1764849313e-07 4.8745361959e-07 3.0749166859e-07 7.5048379509e-08 6.5978490995e-07 9.3761121431e-09 4.5267543967e-07 -7.7253555971e-07 
7.2660056857e-07 -7.1995941378e-07 -1.4446372907e-07 -3.7128197209e-07 -1.6486741474e-08 -2.7277715965e-07 6.427700733e-08 -6.0717914581e-07 -2.84259755e-07 
-1.8698853395e-06 -2.1796074946e-07 2.2540437944e-06 -7.1515014412e-07 -1.1997502453e-06 1.0474883677e-07 2.9122898506e-07 1.4093016913e-07 -3.0421755329e-08 
8.1027722669e-07 6.6862660518e-07 -3.3385292734e-07 1.0971032991e-06 -2.1476118654e-08 9.8019644444e-07 -1.8692450983e-07 -2.0078992614e-07 -9.2423265418e-07 
-4.6338348665e-08 7.4818239188e-07 1.1892306348e-07 4.6953774743e-07 -1.5948018033e-07 3.2990625474e-07 6.8384260661e-07 -4.6799766838e-07 1.5878378883e-07 
-2.1181856032e-07 4.408547501e-07 -3.0291703137e-07 -8.0761527035e-08 2.8871569879e-07 1.0791099083e-07 -1.5432177503e-07 -1.3150112939e-07 1.8493018453e-07 
1.3331905514e-06 1.6521909177e-07 2.4367024689e-07 -1.4197243457e-07 -6.2464256467e-07 5.11813575e-09 3.0799466284e-08 1.9930916408e-07 6.9506357307e-08 
-3.280709225e-08 -1.5602660724e-07 3.0308342155e-07 -1.8843181738e-07 -5.0310219527e-08 -2.5884507812e-09 -1.0876582204e-07 -3.3097923661e-07 3.3519560135e-07 
2.5928973481e-06 -1.8454500668e-06 3.0879694082e-07 2.0457055011e-07 -1.9489738186e-07 -1.0942632757e-07 -2.7949915027e-08 -4.2143417295e-08 2.022173947e-07 
1.6359833358e-07 -3.1067043666e-07 -3.4798009086e-09 3.3837963588e-08 2.0467175816e-07 5.8380458491e-08 3.0367952164e-07 1.1199740178e-07 -3.5872279303e-07 
5.2037760007e-07 1.5858180941e-07 -8.5062075706e-08 -2.5224912765e-07 -1.8187914285e-07 4.389080283e-07 -3.9880686623e-07 -4.7430629775e-07 2.0790881218e-07 
-2.723200575e-07 1.5267341537e-07 2.1897791865e-08 3.0631233823e-07 6.6741884587e-07 3.1498930986e-07 -8.9891994418e-08 -1.4164862814e-07 4.3866932938e-07 
-2.8423119133e-07 -3.391071666e-07 2.0723275469e-08 -3.0170238307e-07 3.70110639e-07 1.1905672138e-07 -2.4519933119e-07 -2.8660975021e-07 -1.1841719294e-07 
-3.1139679151e-07 1.630317791e-07 1.0474509156e-07 -1.4968605497e-07 1.89260397e-07 1.6150967483e-08 1.3524606182e-07 -4.0413687291e-08 2.4527850824e-08 
1.6530581147e-07 2.3679209411e-07 -1.2374705281e-07 -1.3510364193e-07 4.9001444558e-08 1.7846005841e-07 1.6672084081e-08 -1.3820571363e-07 -1.1193897007e-08 
-1.1775208363e-07 1.4297690064e-08 -1.8480858451e-07 1.7800003497e-07 8.3283893154e-09 -1.9560447723e-07 4.3557029676e-07 -9.0267750096e-08 3.6500134628e-08 
1.7284704956e-07 -1.066501247e-07 1.4546205962e-07 2.3429098262e-07 5.9004122608e-09 -3.123220819e-07 1.350600279e-07 2.257665621e-07 2.8655776276e-08 
6.741936617e-09 2.1435132518e-07 5.2110307541e-08 
f 3 70 double
4.0821049368e-06 4.1998134268e-05 0.00010360023147 2.5898466868e-05 -3.38706311e-05 2.4392194609e-06 -3.7685049133e-05 9.3204742531e-06 -9.2121789697e-06 
-7.2407009458e-06 7.4585778946e-06 -1.8365309673e-05 -2.5315567438e-05 -2.6450376176e-05 3.4649440592e-05 -1.2296279845e-05 3.9828137977e-05 2.9807477978e-05 
-1.0432868317e-05 3.1090653003e-05 9.3364181429e-05 -1.6469070234e-05 -1.9911902543e-05 4.1243417592e-05 6.319591645e-06 -2.7365638684e-06 -5.8185906459e-05 
1.6447213577e-06 -1.8801263089e-05 4.4044460435e-05 2.6884354255e-05 8.2631694194e-06 4.8446652095e-05 0.00012385640393 -3.8480278063e-05 -5.9611973088e-05 
1.3028433287e-05 4.3633878358e-06 3.114726532e-05 -6.1019853503e-05 -3.6863631008e-06 1.7879379139e-05 2.8085179203e-05 -1.6419222783e-05 -0.00010258919018 
-5.920354153e-05 5.7551897137e-05 0.00010270140033 -1.4880265194e-05 2.9749509837e-05 -6.9929898343e-05 2.5313630918e-05 -3.3322806872e-05 6.8059811878e-06 
3.0075270927e-05 -1.4237555342e-05 3.2734603212e-05 -1.6392373202e-06 5.7084819005e-06 4.0659996197e-05 8.8195281783e-06 -6.1785057686e-06 -3.4242287382e-05 
1.1200271343e-05 3.2884853789e-05 -1.3841414765e-06 6.2189351558e-05 5.9916038977e-05 4.381949475e-05 1.2656749835e-05 -5.6523757917e-06 -2.5811778958e-05 
4.6599616917e-05 -5.451794486e-05 -1.946029135e-05 1.141765462e-05 -2.3864148101e-06 -8.5971249764e-06 6.8275385576e-06 2.0458122554e-05 8.8018632363e-06 
-2.6089983098e-06 -8.4785968348e-06 1.2851431245e-05 1.7366659007e-06 8.3380295992e-06 -5.7469457744e-05 -5.0546127828e-06 1.0877049725e-05 -7.7677433025e-06 
6.4360054801e-05 -2.6314477402e-05 -2.7328271947e-05 6.7226007105e-05 6.8440330064e-06 1.814107144e-05 -2.8276739206e-05 4.8079403239e-06 -1.004053283e-05 
7.9950498477e-05 -5.6646516056e-05 -2.4326126882e-05 -7.2599950375e-05 -1.4750602722e-05 4.4337293275e-05 -3.716524235e-05 -1.6659637235e-05 4.8939124942e-05 
-8.9442134028e-05 -1.8608773731e-05 -9.0463441118e-06 -4.0291865365e-06 2.3271531008e-05 -3.994424152e-06 2.7766164115e-05 2.4327831695e-05 -1.8552294293e-05 
2.8625033847e-05 -3.6205690361e-05 3.0342674048e-05 3.6070803629e-05 -6.0809125585e-06 -1.8761542467e-05 -7.9308759725e-06 -2.8279894593e-05 2.2741291523e-05 
-4.5263138826e-05 2.9627153019e-05 -2.2270674149e-05 1.637761967e-05 3.036982342e-05 -1.7896269478e-05 8.3390060254e-06 -1.3398803184e-05 8.7807881523e-07 
8.7693215652e-06 1.2965109064e-05 -1.8116061551e-05 7.2908581841e-06 -7.3448867588e-06 9.9291685356e-07 -1.0232457866e-06 -2.1703367988e-06 2.617934612e-05 
5.6527578736e-05 -2.6210542572e-06 -3.8814085301e-05 5.2059969066e-06 -4.2098623783e-05 1.3592086568e-05 4.0102475054e-05 -2.5575110243e-05 -2.2320374532e-06 
1.6343812591e-05 -2.2005880234e-05 6.6061213736e-06 -9.8999977669e-06 -1.652387823e-05 -1.9727256595e-05 -2.9996332229e-05 4.2843640898e-06 3.2544786433e-05 
3.0729976197e-06 -1.6363814848e-05 -4.7959903193e-06 -1.579947191e-05 -1.0661454742e-05 -1.8159754128e-05 1.2444955084e-05 -2.8694250698e-06 1.2460057365e-05 
-1.2691731855e-05 -4.3260390823e-07 3.6222490102e-06 1.9260277277e-05 -2.674510628e-06 -1.0442109392e-05 -1.0973253902e-06 -4.7299131244e-06 1.2373048786e-05 
8.2202071829e-06 2.0965017871e-05 -4.1691690713e-05 6.8258649968e-06 3.6388035249e-06 2.7679142604e-07 3.0605950584e-06 -5.1277882679e-06 2.3671089496e-06 
-2.2616358189e-05 1.0090041337e-05 4.333849481e-06 -4.4360118277e-05 -3.6836640144e-06 9.8505885186e-06 6.6888410617e-06 -7.1232430872e-06 1.0607405768e-05 
-1.4478093238e-05 -9.2959887481e-06 1.1355887996e-05 1.5875676818e-05 -6.0034571791e-06 -4.8725337932e-07 1.0858936798e-06 -1.455906882e-05 -4.4808540796e-06 
-1.3834758421e-05 2.7959965241e-06 -9.5024563784e-06 
radius 1 70 double
0.003 0.003 0.003 0.003 0.003 0.003 0.003 0.003 0.003 
0.003 0.003 0.003 0.003 0.003 0.003 0.003 0.003 0.003 
0.003 0.003 0.003 0.003 0.003 0.003 0.003 0.003 0.003 
0.003 0.003 0.003 0.003 0.003 0.003 0.003 0.003 0.003 
0.003 0.003 0.003 0.003 0.003 0.003 0.003 0.003 0.003 
0.003 0.003 0.003 0.003 0.003 0.003 0.003 0.003 0.003 
0.003 0.003 0.003 0.003 0.003 0.003 0.003 0.003 0.003 
0.003 0.003 0.003 0.003 0.003 0.003 0.003 
omega 3 70 double
0.00019254054446 -0.00010204248094 0.00034861614639 -0.00077819642132 -0.00059934728555 -0.0013094198909 0.00061706657289 0.0011257392051 -0.00053413576423 
9.0450688234e-05 0.00025226141629 -0.00013423457704 -0.00020766835575 7.7973399323e-05 0.00015817722381 -5.4201089962e-05 5.6574923715e-05 -7.8757336224e-05 
-1.7629120038e-05 -0.00046375116156 6.6264905917e-05 -2.9298025844e-05 1.7972160221e-05 -0.00010271579257 -1.9127092327e-05 -0.00013506662502 -0.00021296780978 
-0.00050066455477 -0.00073131177303 -0.00055095107849 0.00065306314961 0.00016540990055 -0.0010976150067 -0.00052620692953 -0.00091895499322 -0.00047435549038 
-0.00020220897237 0.00025773849632 -8.4728445437e-05 0.00027503045019 -0.00025679884455 -5.1851751017e-05 -2.2076032068e-05 0.00021614564806 0.0028668753047 
-0.00026973396758 -0.00081482347054 1.0052182897e-05 6.3477733603e-05 -0.00014999142681 -8.6078686094e-06 1.7015636977e-06 1.2761970175e-05 0.00012117244577 
-2.1099711294e-05 0.00047089503734 0.00041712775124 -0.0010390363085 -0.00025386246719 1.7897061552e-05 0.00019173997227 0.00035065539819 -8.1740443611e-05 
0.0003364695013 0.00034721980714 8.3977114865e-05 -0.000129728051 -8.0827548276e-05 8.585550493e-05 -5.799376272e-05 -2.9540183713e-05 -1.2691135234e-05 
-0.0009221208988 -0.00030059001733 -0.0013784460545 -0.00049293559671 0.00049695172037 -0.0002645461444 -0.00010052617171 -0.00011168667619 4.5218527929e-06 
-0.00090255549785 0.00063075864805 -0.00011474496646 -3.6112208571e-05 -0.00083021638997 -0.00013932533315 -3.1532388341e-05 0.00017435797805 0.00015416575387 
0.00039658561781 0.00062530213592 0.00040634707258 9.1316635748e-06 -4.354754934e-05 -0.00011473511453 -0.00015825417424 0.00094250841206 9.4319368234e-05 
-9.0510400826e-05 -0.00069009847249 0.00054668331097 0.00036873093974 0.00047913876998 -0.00015523285782 -0.00033650921753 6.3707032346e-05 0.00017192726808 
0.00022189244493 1.9999415937e-05 0.00040393879273 -0.00010352760143 -0.00053826181783 0.00039058546689 -9.7343035013e-05 0.00010900422884 7.6880499768e-05 
-1.2820778547e-05 6.3648147764e-05 -3.6878166321e-05 -3.7701309032e-05 0.00020470720907 -8.0384284723e-05 4.5021267238e-05 -0.00010548274954 -0.00095870025492 
-0.0021084972901 0.0015714962203 0.0016815020335 0.00026782666498 0.00020505136344 0.00011457644595 -0.00011541302169 1.3290408432e-05 -9.0796436249e-06 
-0.00012024640795 0.00010936809645 -6.6169465671e-05 7.4224067522e-05 -9.8314709966e-05 -9.4805879209e-05 0.00016172144279 0.00023263899546 0.00016552590311 
-8.9280915881e-05 -6.2773041809e-05 -2.2856513614e-05 -0.00011883938762 7.6014611194e-07 1.445810756e-05 -0.00016890524289 -0.00038328239688 -9.252251403e-05 
8.0131513519e-05 -0.00016763634897 -0.00031461299865 -0.00027378952362 9.3463073244e-05 0.00039231055272 -0.00012859133862 -0.0002638993906 -0.00016839669398 
-0.00018478114774 -0.00018251633604 2.1955351013e-05 0.00017016039539 2.7723496431e-05 -0.00016878047977 0.0001925759899 -0.00024219342831 -3.1737243015e-05 
-0.00026571286606 -0.00024295477341 1.6524033115e-05 0.00010329249312 0.00017765939829 0.00012515913713 4.8179877454e-05 7.6321789884e-05 -9.3564955184e-05 
8.2188282832e-05 0.00025790982118 0.00011592262378 -0.00026146843338 3.9462371792e-05 -4.8175959001e-05 -8.6344121603e-05 -3.1830034993e-05 0.00013031594908 
0.00010819974424 0.00019063316988 9.6896944555e-05 -5.0538119401e-05 -5.9457379528e-05 -0.00012225440538 -2.1070011994e-05 -0.00022734326524 5.1971507408e-06 
-6.617682312e-05 7.7968329527e-05 1.067385219e-05 -0.00061711421634 -0.00012559625344 -0.0001587699902 3.3774026717e-06 -0.00015812071896 5.0988793107e-06 
0.00018423421057 2.1549104118e-05 -0.00014295774375 
