# vtk DataFile Version 4.2
Generated by LIGGGHTS
ASCII
DATASET POLYDATA
POINTS 70 float
0.00415463 -0.0398914 0.00499925 0.00189331 -0.0127272 0.00918618 0.0161664 -0.00511959 0.00499963 
-0.0288731 0.000683811 0.00499951 -0.00627622 -0.00307519 0.00840947 -0.00173169 -0.00115005 0.00499867 
-0.00954385 0.0115412 0.00499923 0.00596364 0.0067348 0.00499935 0.034077 0.00940817 0.00942642 
-0.0244976 0.0129951 0.00499909 -0.00413072 0.0187455 0.00499898 -0.0271457 0.0228517 0.01022 
0.00848483 0.0222272 0.00737971 0.0327017 0.0237786 0.00499893 -0.0158004 0.0300754 0.00499936 
0.0104887 0.0321007 0.00810017 0.0193373 0.0303733 0.00744596 -0.0120432 -0.0345829 0.018388 
0.0180697 -0.0197106 0.0181489 0.0357457 -0.0185345 0.0178799 0.031029 -0.00345836 0.0187753 
0.00221154 0.011842 0.0116273 -0.0318749 0.0152471 0.0189962 0.0274982 0.0234341 0.0175247 
0.00626411 -0.0387443 0.0202854 0.0222686 -0.0233558 0.0262158 -0.0203187 -0.0151885 0.021603 
0.00678314 -0.0144132 0.0242332 0.0249597 -0.0106361 0.0227673 0.011572 -0.00156322 0.0247216 
0.0176547 -0.00338256 0.0199045 0.0254961 -0.00154088 0.0263904 -0.0305904 0.0071055 0.0246424 
0.00935547 0.00965154 0.0251507 0.0275189 0.00990879 0.0261827 -0.00030817 0.0141261 0.0236588 
0.0125088 0.0175187 0.0272189 0.00184313 0.0281875 0.0214579 0.0228226 0.0375984 0.0195493 
-0.0145585 -0.0310339 0.032851 -0.010359 -0.0324735 0.0287771 0.016791 -0.0311122 0.0346448 
0.0263484 -0.0317271 0.0280191 -0.0418205 -0.0136199 0.0322057 -0.00841226 -0.0153001 0.0317959 
0.0200132 -0.0163744 0.0317398 0.00855048 -0.00731594 0.0353744 -0.0170789 0.00802935 0.0292565 
0.035766 0.00753715 0.0279136 -0.00440421 0.0223088 0.0280027 0.0131928 0.0212309 0.0318824 
-0.0275159 0.0323081 0.0333748 -0.00252421 0.0405105 0.0293863 -0.00337847 -0.0208856 0.0400041 
-0.0125358 -0.0166588 0.0424125 0.00325235 -0.0159539 0.0365206 0.0263872 -0.0175727 0.0382567 
-0.0319993 -0.00926989 0.0411704 -0.0143467 -0.00758229 0.0433045 -0.00847361 -0.00787378 0.0421132 
-0.0249206 0.00132678 0.03753 -0.026906 -0.00358547 0.0443499 -0.00458335 0.0105025 0.0433803 
0.0210925 0.00651766 0.0360969 -0.00420116 0.0197373 0.0439462 -0.0130053 0.0259172 0.0402099 
0.0192862 0.0319925 0.0364117 0.000513984 -0.0272944 0.0448254 0.0256082 -0.00272952 0.0448913 
-0.0121959 0.0308987 0.0466202 
VERTICES 70 140
1 0 
1 1 
1 2 
1 3 
1 4 
1 5 
1 6 
1 7 
1 8 
1 9 
1 10 
1 11 
1 12 
1 13 
1 14 
1 15 
1 16 
1 17 
1 18 
1 19 
1 20 
1 21 
1 22 
1 23 
1 24 
1 25 
1 26 
1 27 
1 28 
1 29 
1 30 
1 31 
1 32 
1 33 
1 34 
1 35 
1 36 
1 37 
1 38 
1 39 
1 40 
1 41 
1 42 
1 43 
1 44 
1 45 
1 46 
1 47 
1 48 
1 49 
1 50 
1 51 
1 52 
1 53 
1 54 
1 55 
1 56 
1 57 
1 58 
1 59 
1 60 
1 61 
1 62 
1 63 
1 64 
1 65 
1 66 
1 67 
1 68 
1 69 

POINT_DATA 70
FIELD FieldData 7
id 1 70 int
203 1744 375 597 1457 912 661 54 958 
394 467 1373 717 1174 728 934 844 1779 
1976 1593 2267 1428 2154 1925 2673 3155 2824 
2476 2255 2736 2121 2909 2812 3525 3244 2597 
3108 2539 2172 3802 3049 3936 3264 3766 3877 
3960 4218 3395 3241 3303 3862 4092 3557 4774 
5469 4537 4044 4863 5064 5129 4669 5429 5196 
4333 5591 4215 4415 5493 5453 5477 
type 1 70 int
2 2 2 2 2 2 2 2 2 
2 2 2 2 2 2 2 2 2 
2 2 2 2 2 2 2 2 2 
2 2 2 2 2 2 2 2 2 
2 2 2 2 2 2 2 2 2 
2 2 2 2 2 2 2 2 2 
2 2 2 2 2 2 2 2 2 
2 2 2 2 2 2 2 
i 3 70 int
0 0 0 0 0 0 0 0 0 
0 0 0 0 0 0 0 0 0 
0 0 0 0 0 0 0 0 0 
0 0 0 0 0 0 0 0 0 
0 0 0 0 0 0 0 0 0 
0 0 0 0 0 0 0 0 0 
0 0 0 0 0 0 0 0 0 
0 0 0 0 0 0 0 0 0 
0 0 0 0 0 0 0 0 0 
0 0 0 0 0 0 0 0 0 
0 0 0 0 0 0 0 0 0 
0 0 0 0 0 0 0 0 0 
0 0 0 0 0 0 0 0 0 
0 0 0 0 0 0 0 0 0 
0 0 0 0 0 0 0 0 0 
0 0 0 0 0 0 0 0 0 
0 0 0 0 0 0 0 0 0 
0 0 0 0 0 0 0 0 0 
0 0 0 0 0 0 0 0 0 
0 0 0 0 0 0 0 0 0 
0 0 0 0 0 0 0 0 0 
0 0 0 0 0 0 0 0 0 
0 0 0 0 0 0 0 0 0 
0 0 0 
v 3 70 double
-2.3900137672e-06 9.0851395999e-07 3.4575271214e-08 -4.2144709904e-07 8.4672101158e-07 5.0751321751e-07 -6.1755778935e-08 3.6914909336e-07 -6.5254157412e-08 
-2.7019224481e-07 -6.9249993232e-07 -2.8451361924e-07 6.6808460814e-07 -1.2398994827e-06 -2.995651855e-07 -6.1892367057e-07 -2.2538576574e-07 -7.6629497307e-07 
4.9775564659e-07 1.6112734484e-06 1.5592577102e-07 2.3330027414e-09 3.5329344243e-07 5.9309016195e-07 1.4262711849e-06 5.2419838899e-08 -1.1651097816e-07 
-2.709714946e-07 -5.9565513309e-07 -8.4078591985e-07 -8.0237759761e-07 4.2674182277e-06 -5.7101596963e-06 5.4554363226e-07 -8.6289225648e-07 3.6646997261e-07 
-4.7631423424e-06 -9.4100703165e-07 2.4485183833e-06 6.7707182192e-07 -1.2957547477e-07 -6.0780768507e-07 2.1009421907e-06 3.4308445623e-06 5.6266689821e-06 
1.5060674066e-06 -2.4671214367e-06 1.1025932519e-06 -1.057755283e-07 -1.3695645841e-07 -7.7813501908e-08 -4.2943420547e-07 3.9578403949e-07 6.7257626783e-07 
-1.7222306932e-06 -2.7390277374e-07 1.9682717148e-06 -2.0683555158e-06 6.5650656541e-07 1.1283349065e-05 3.6801942403e-06 -4.4105113339e-06 -2.2159412072e-06 
5.3309152639e-07 -9.0609674985e-08 -6.5964576502e-10 8.5044953466e-07 3.4613346953e-07 -4.5147839629e-07 2.2684568571e-07 -4.7170108843e-07 1.6099373895e-07 
9.8161825157e-07 -1.9490753239e-06 -3.9196107412e-06 1.230109457e-06 4.2285049873e-07 6.5111598541e-07 2.1144417811e-07 -9.0411098868e-09 1.1713452061e-07 
1.5510368597e-07 1.2604400863e-07 -1.3245812555e-07 1.1066983286e-06 2.4416553891e-07 6.6111278296e-07 -3.8549076188e-08 5.9529417873e-07 6.973356024e-07 
-1.4650985293e-07 -1.310212565e-07 2.3428769303e-07 -9.8693230912e-07 1.5207709096e-07 1.3122504501e-06 -4.7273361594e-07 -7.2818630979e-07 -4.1769907917e-07 
3.6802688346e-07 4.2229972264e-07 3.3676279663e-07 3.8383074405e-07 9.729959385e-07 -1.6666516417e-07 4.9149618133e-07 4.6696813428e-07 8.1787304419e-07 
9.3568377224e-07 -2.3698492407e-07 -3.7513132143e-08 -3.8632181742e-07 5.49860242e-07 2.3323748194e-07 1.3044145379e-08 1.7062743056e-07 -2.7833927104e-07 
-1.2514938822e-08 1.4234022749e-07 -2.172016257e-07 9.7501671942e-08 -8.3140098807e-08 -2.3036236886e-08 1.3526803428e-07 7.3565725866e-07 -5.8051253516e-07 
-1.2115059337e-06 3.414621838e-06 9.1231854864e-07 2.2622439242e-07 2.8181707732e-08 5.9456512538e-08 -1.0993731551e-07 -2.8482695183e-08 -2.23158752e-10 
-2.3111670335e-07 -1.7309347667e-07 3.7264495075e-07 -3.3951641264e-07 5.4729615755e-07 4.685506137e-07 2.095080014e-07 2.5967231781e-07 1.426648231e-07 
-1.8832426752e-07 1.069937568e-06 1.0477384641e-06 -2.0920881722e-07 2.2749647061e-07 3.8912611032e-07 -3.5682431647e-07 5.5043170962e-07 5.8803432652e-08 
-9.3906823288e-07 -1.1380536549e-06 6.9447979684e-07 -3.0485305693e-07 -3.8411481844e-07 7.0122853953e-07 1.0444536203e-06 1.0041393102e-06 5.5363768519e-07 
9.4666164806e-08 2.8381398417e-07 3.5442097785e-07 3.6601719295e-07 1.3013783368e-07 2.3233338834e-07 -5.0228120414e-08 7.7794838423e-08 -3.2435474771e-07 
7.9065065386e-08 -2.080737942e-07 -7.1109676401e-08 -8.9572781102e-08 6.8591805395e-07 2.6060336291e-07 -7.2789387313e-08 7.2411546468e-07 3.5675304259e-07 
-2.8316784014e-07 3.0583862615e-07 -1.0578590013e-07 -3.5063362247e-07 4.8427616331e-07 1.2729868351e-08 1.0789609901e-07 6.3494615673e-07 6.5830592205e-07 
7.3901369356e-07 -3.5471378833e-07 -1.6594476229e-07 -5.5854153149e-07 1.4634818177e-06 8.2167960155e-07 6.552384581e-07 4.7211014401e-07 -8.9106581406e-07 
7.3388015199e-07 2.9466080549e-07 6.0446521693e-07 2.0391217524e-07 -4.9645736555e-07 -3.9300820563e-07 2.9990288328e-07 -5.4879639466e-08 -2.0585139538e-07 
-7.3128666087e-07 -1.151161245e-07 1.4442014483e-07 
f 3 70 double
-9.7772117392e-06 -1.264754519e-05 0.00016540844039 -1.3963341468e-05 -1.8298073333e-05 1.9514558818e-05 3.3476951055e-06 4.2992568894e-06 -4.118041869e-06 
-1.269836476e-05 3.5021179211e-05 -5.6950738034e-05 1.3963435512e-05 2.7381164821e-05 -4.0172749319e-05 -2.6542836146e-05 -3.0458013412e-05 -3.0687362553e-05 
-1.8467501771e-05 4.4012214859e-05 4.1729685624e-05 -2.8801274242e-05 2.0409857094e-05 -2.045119114e-05 -3.5578788353e-05 -5.429860439e-05 3.1106599415e-05 
-3.2942050885e-05 -2.7917867255e-05 1.1440958116e-05 3.6284455315e-05 -1.7214170188e-05 -0.00014383097207 2.1300403201e-05 -8.3450639277e-05 -4.3939684953e-05 
2.7329110451e-05 -0.00018118572121 -7.4392557348e-05 -9.919402997e-05 -4.0045091763e-05 6.6561204604e-05 7.8055367619e-07 1.9307865328e-05 -2.4736890657e-05 
-2.0006320706e-05 -8.70627102e-05 0.0001263980673 3.5904159361e-05 2.9198018329e-05 6.3839042563e-07 1.6239855328e-05 3.8966192207e-05 -3.6942132092e-05 
2.8103092995e-05 4.7954602468e-05 1.0252141799e-05 1.5087375418e-06 -9.6651783521e-06 -0.00014900794002 -3.4908410482e-05 1.6223750501e-05 -1.3704493534e-05 
1.566397163e-05 5.9883331093e-05 -1.8779857439e-05 9.3993284881e-05 0.00011034599616 6.0820489534e-05 -3.7149120993e-06 -4.3066355647e-06 1.8302693793e-05 
-1.4633160596e-06 1.5344348872e-05 -5.6829859013e-05 1.8442623119e-05 3.9103846015e-06 1.2663909621e-05 2.7475476928e-05 -9.8989410016e-06 8.7433358477e-06 
7.8778658467e-07 1.141274431e-05 2.3931882492e-05 2.4898135789e-05 -5.6386108868e-06 1.7880481431e-05 2.7411062695e-05 3.3533206697e-05 1.3519581891e-07 
-3.7808173674e-05 4.3204810333e-05 1.2429615922e-05 5.9829254337e-05 4.9150980345e-05 5.2251030677e-06 1.2933869185e-05 -4.1767658977e-06 3.3164663551e-05 
-8.0474364007e-05 0.00011126356208 3.609529315e-05 2.9945943263e-05 -1.4605825608e-05 3.2647878502e-05 2.9842547835e-07 1.1734187458e-05 2.9568031158e-05 
0.0001597509196 1.3245900813e-05 4.0094834339e-05 -9.4342836021e-07 -1.2814224618e-05 -4.2834492174e-06 -1.6943949926e-05 -1.0887239879e-05 1.0016090929e-05 
1.2936834527e-05 -3.0727354668e-06 -7.6267625462e-06 1.4643321702e-05 -1.6366017832e-05 1.3755264258e-05 1.1448627692e-05 1.7343929281e-05 8.9585526424e-06 
6.9560225363e-05 -2.7868247665e-05 1.8040508302e-05 3.3688143855e-05 5.5607968156e-06 1.294732938e-06 1.1381439254e-05 1.207519572e-05 1.8187789991e-05 
1.5560653816e-05 3.5577894983e-06 1.7225750935e-05 -1.2355431134e-05 -2.0357744744e-06 3.9757084458e-05 -1.7591700103e-05 2.3689230643e-05 8.8414854536e-05 
1.6148481719e-05 1.4310975462e-05 9.3200342677e-06 7.9623557003e-05 -2.9206977042e-05 4.8398850727e-05 1.2854489593e-05 -6.0934644007e-06 7.5678783744e-07 
-3.1285575841e-05 4.4164642847e-05 -2.9891080963e-05 1.0505270491e-05 3.2808025897e-06 1.4625821003e-05 3.336420202e-06 1.5852639569e-06 3.5734163042e-07 
-1.4896905353e-07 -9.4752307122e-06 5.1830321822e-07 -1.3202014488e-05 1.7105102186e-05 9.3642566087e-06 8.8287458186e-06 -8.0609773843e-06 8.5604704715e-06 
6.3354608903e-06 1.8534160014e-05 1.1226832814e-05 7.6204669286e-06 4.195485287e-06 -9.686829934e-06 1.3762380803e-06 -2.5057788634e-06 1.0180018192e-05 
5.6052606663e-06 -1.0597328704e-05 2.0348422576e-05 -4.6196481137e-06 -6.736784864e-06 7.5923846318e-06 1.4690445654e-07 -5.9275197888e-06 2.5993805705e-06 
-1.1724928846e-06 1.684556933e-05 1.5156769877e-05 1.235998078e-05 -2.7497611681e-05 -2.1183950007e-05 4.9206128504e-05 -1.2701947493e-05 -9.8231711762e-06 
1.2338132412e-05 -4.2665090402e-06 -2.1715955924e-07 5.1966112115e-06 -5.792460191e-06 -8.6484868752e-06 4.9729508967e-06 1.3092208491e-05 -6.4430500948e-07 
-9.5247201788e-06 -2.2022658926e-06 -9.9906223216e-06 
radius 1 70 double
0.003 0.003 0.003 0.003 0.003 0.003 0.003 0.003 0.003 
0.003 0.003 0.003 0.003 0.003 0.003 0.003 0.003 0.003 
0.003 0.003 0.003 0.003 0.003 0.003 0.003 0.003 0.003 
0.003 0.003 0.003 0.003 0.003 0.003 0.003 0.003 0.003 
0.003 0.003 0.003 0.003 0.003 0.003 0.003 0.003 0.003 
0.003 0.003 0.003 0.003 0.003 0.003 0.003 0.003 0.003 
0.003 0.003 0.003 0.003 0.003 0.003 0.003 0.003 0.003 
0.003 0.003 0.003 0.003 0.003 0.003 0.003 
omega 3 70 double
0.00022584401071 0.00012542358848 -8.7123091094e-06 -0.0013775605269 0.00062015919469 -0.00017856232555 0.00069923071049 3.9012436803e-05 0.00044853623189 
-0.00014253413748 -0.00024230928399 0.00021520851415 0.00089096850184 0.00040566848739 0.00063647040772 0.00069798239977 -0.00057027568854 -0.0001549689068 
0.00057512112819 0.0018072125369 -0.0010748134764 -7.0301365274e-06 -4.2673097172e-05 -0.00011355957101 -7.7464319723e-05 -0.00017893515303 -0.00019789414925 
0.00080955796318 0.00025946236965 -0.00033465065931 -0.0017686810959 4.8225989447e-05 -0.00092287175235 -0.00037167814576 -0.00078995678968 -0.0012376244326 
-0.0010265396203 0.0055769769053 -0.0036627952731 -7.1924117608e-05 -0.00019982979911 -0.00046456030535 -0.00050425498135 0.00020041915717 0.00053650178951 
-0.0012739373376 -0.00033712097744 -0.0015376989886 -4.6626328768e-05 -0.00019751812778 -6.8049574823e-05 0.00027674046693 -0.000250228692 -0.00029078727524 
0.00024262652377 -5.5235018779e-05 -0.00012410922905 -0.00012715990074 -0.0025527394805 -0.0004871984596 0.00032508249685 -9.5115165396e-05 -0.0003055237035 
-0.00045941523831 -0.00032396634502 -0.00026749772194 -0.00091716295944 0.0011745776887 0.00031904686874 -4.0102707285e-05 -0.00011175983957 2.1647689318e-05 
-0.0022551841461 -0.00037529158127 -0.0020803586787 -0.00018396263626 7.1948577973e-05 3.2106261142e-05 0.00010770225432 -4.2848231191e-05 -0.00011374363775 
-0.00027540407402 -0.00019877237378 0.00034238278597 1.9465584296e-06 0.00020372458704 -0.00016419827166 0.00014724491219 0.00013583134706 0.00020150279221 
-7.4888888556e-05 -0.00021641142697 5.4013883603e-05 4.9178506446e-05 6.7648507508e-05 -0.00029516351017 -0.00044558741396 0.00035492919354 0.00039840821287 
-0.00018637017894 0.00030592873446 0.00052251116322 0.00022277896575 0.00033364841229 8.8929169034e-05 -0.00015044829757 -0.00011956574709 -7.5891944607e-05 
-0.00037312133562 -0.00014317980753 0.00039462916984 0.00011619263258 -0.00011540776421 3.8008304549e-05 5.2512614338e-05 0.0001276544136 -6.1976145375e-05 
2.4522690398e-05 -0.00031960476295 -1.4187054574e-05 -0.00017511371718 3.5891944152e-05 -0.00018725893646 0.00016875245759 -0.00019799350987 -4.1823003522e-05 
0.0013900709454 -0.00013046681209 -0.0017919435147 4.6309928868e-05 3.5071419896e-05 9.0495988321e-06 -0.00011508012977 -5.3725630187e-06 -6.2730595146e-05 
7.3963376759e-05 -0.00022462577071 -0.00018044009924 0.00016476786403 0.00015362399166 -2.2986575095e-05 0.00042924610006 -0.00029231760423 0.00050573039957 
5.1426693254e-05 0.0001723000158 -7.2959749468e-05 -0.00011484315222 0.00026859080416 5.5725192326e-06 2.5258211159e-06 -8.7759010093e-05 -7.0872117334e-05 
-0.00063567247167 -2.8283841217e-05 0.00019355523267 -0.00045055685112 0.0002478138328 -0.00019153903834 0.00044285084516 -0.0008784105282 0.0002410461728 
9.9963523654e-05 7.1841592304e-06 2.4760735902e-05 -0.00011057835253 -2.638633452e-05 0.00021867350607 -0.00042594483665 2.3110750169e-05 -2.033115478e-05 
0.00014387371474 9.2963472168e-06 7.7960178187e-06 3.4312568225e-05 -4.1078077788e-06 -8.2761933206e-05 0.00016613544672 6.0126921428e-06 9.7273248548e-05 
-3.1893223302e-05 -4.0846340376e-05 -5.9186006474e-05 0.00014648158464 3.0145136933e-05 -4.9441373482e-05 -6.1685117729e-06 -0.00015240651969 5.0239320958e-05 
0.00017831485389 7.798074177e-05 -0.00011453102283 0.00052246216701 0.00015848290941 0.00014583516143 -0.0002461385483 0.00023091663353 -0.00070073481835 
0.0011318508008 0.00013938623147 0.00015330673106 -2.0978862709e-05 -0.00010325492564 -2.2149214552e-05 9.9651170913e-05 -7.2153836391e-05 -3.2028256035e-05 
0.00013496312322 -6.9487628133e-05 0.00029456316798 
