# vtk DataFile Version 4.2
Generated by LIGGGHTS
ASCII
DATASET POLYDATA
POINTS 70 float
0.00415463 -0.0398914 0.00499925 0.00189331 -0.0127272 0.00918618 0.0161664 -0.00511958 0.00499963 
-0.0288731 0.000683811 0.00499951 -0.00627622 -0.00307519 0.00840947 -0.00173169 -0.00115005 0.00499867 
-0.00954385 0.0115412 0.00499923 0.00596364 0.0067348 0.00499935 0.034077 0.00940817 0.00942642 
-0.0244976 0.0129951 0.00499909 -0.00413072 0.0187455 0.00499898 -0.0271457 0.0228517 0.01022 
0.00848483 0.0222272 0.00737971 0.0327017 0.0237786 0.00499893 -0.0158004 0.0300754 0.00499936 
0.0104887 0.0321007 0.00810017 0.0193373 0.0303733 0.00744596 -0.0120432 -0.0345829 0.018388 
0.0180697 -0.0197106 0.0181489 0.0357457 -0.0185345 0.0178799 0.031029 -0.00345836 0.0187753 
0.00221154 0.011842 0.0116273 -0.0318749 0.0152471 0.0189962 0.0274982 0.0234341 0.0175247 
0.00626411 -0.0387443 0.0202854 0.0222686 -0.0233558 0.0262158 -0.0203187 -0.0151885 0.021603 
0.00678314 -0.0144132 0.0242332 0.0249597 -0.0106361 0.0227673 0.011572 -0.00156322 0.0247216 
0.0176547 -0.00338256 0.0199045 0.0254961 -0.00154088 0.0263904 -0.0305904 0.0071055 0.0246424 
0.00935547 0.00965154 0.0251507 0.0275189 0.00990879 0.0261827 -0.00030817 0.0141261 0.0236588 
0.0125088 0.0175187 0.0272189 0.00184313 0.0281875 0.0214579 0.0228226 0.0375984 0.0195493 
-0.0145585 -0.0310339 0.032851 -0.010359 -0.0324735 0.0287771 0.016791 -0.0311122 0.0346448 
0.0263484 -0.0317271 0.0280191 -0.0418205 -0.0136199 0.0322057 -0.00841226 -0.0153001 0.0317959 
0.0200132 -0.0163745 0.0317398 0.00855048 -0.00731594 0.0353744 -0.0170789 0.00802935 0.0292565 
0.035766 0.00753715 0.0279136 -0.00440421 0.0223088 0.0280027 0.0131928 0.0212309 0.0318824 
-0.0275159 0.0323081 0.0333748 -0.00252421 0.0405105 0.0293863 -0.00337847 -0.0208856 0.0400041 
-0.0125358 -0.0166588 0.0424125 0.00325235 -0.0159539 0.0365206 0.0263872 -0.0175727 0.0382567 
-0.0319993 -0.00926989 0.0411704 -0.0143467 -0.00758229 0.0433045 -0.0084736 -0.00787378 0.0421132 
-0.0249206 0.00132678 0.03753 -0.026906 -0.00358547 0.0443499 -0.00458335 0.0105025 0.0433803 
0.0210925 0.00651766 0.0360969 -0.00420116 0.0197373 0.0439462 -0.0130053 0.0259172 0.0402099 
0.0192862 0.0319925 0.0364117 0.000513985 -0.0272944 0.0448254 0.0256082 -0.00272952 0.0448913 
-0.0121959 0.0308987 0.0466202 
VERTICES 70 140
1 0 
1 1 
1 2 
1 3 
1 4 
1 5 
1 6 
1 7 
1 8 
1 9 
1 10 
1 11 
1 12 
1 13 
1 14 
1 15 
1 16 
1 17 
1 18 
1 19 
1 20 
1 21 
1 22 
1 23 
1 24 
1 25 
1 26 
1 27 
1 28 
1 29 
1 30 
1 31 
1 32 
1 33 
1 34 
1 35 
1 36 
1 37 
1 38 
1 39 
1 40 
1 41 
1 42 
1 43 
1 44 
1 45 
1 46 
1 47 
1 48 
1 49 
1 50 
1 51 
1 52 
1 53 
1 54 
1 55 
1 56 
1 57 
1 58 
1 59 
1 60 
1 61 
1 62 
1 63 
1 64 
1 65 
1 66 
1 67 
1 68 
1 69 

POINT_DATA 70
FIELD FieldData 7
id 1 70 int
203 1744 375 597 1457 912 661 54 958 
394 467 1373 717 1174 728 934 844 1779 
1976 1593 2267 1428 2154 1925 2673 3155 2824 
2476 2255 2736 2121 2909 2812 3525 3244 2597 
3108 2539 2172 3802 3049 3936 3264 3766 3877 
3960 4218 3395 3241 3303 3862 4092 3557 4774 
5469 4537 4044 4863 5064 5129 4669 5429 5196 
4333 5591 4215 4415 5493 5453 5477 
type 1 70 int
2 2 2 2 2 2 2 2 2 
2 2 2 2 2 2 2 2 2 
2 2 2 2 2 2 2 2 2 
2 2 2 2 2 2 2 2 2 
2 2 2 2 2 2 2 2 2 
2 2 2 2 2 2 2 2 2 
2 2 2 2 2 2 2 2 2 
2 2 2 2 2 2 2 
i 3 70 int
0 0 0 0 0 0 0 0 0 
0 0 0 0 0 0 0 0 0 
0 0 0 0 0 0 0 0 0 
0 0 0 0 0 0 0 0 0 
0 0 0 0 0 0 0 0 0 
0 0 0 0 0 0 0 0 0 
0 0 0 0 0 0 0 0 0 
0 0 0 0 0 0 0 0 0 
0 0 0 0 0 0 0 0 0 
0 0 0 0 0 0 0 0 0 
0 0 0 0 0 0 0 0 0 
0 0 0 0 0 0 0 0 0 
0 0 0 0 0 0 0 0 0 
0 0 0 0 0 0 0 0 0 
0 0 0 0 0 0 0 0 0 
0 0 0 0 0 0 0 0 0 
0 0 0 0 0 0 0 0 0 
0 0 0 0 0 0 0 0 0 
0 0 0 0 0 0 0 0 0 
0 0 0 0 0 0 0 0 0 
0 0 0 0 0 0 0 0 0 
0 0 0 0 0 0 0 0 0 
0 0 0 0 0 0 0 0 0 
0 0 0 
v 3 70 double
-1.354965633e-06 1.9265898114e-06 -1.1407680655e-06 1.2739856515e-06 7.2651435013e-07 -3.0270686438e-07 2.0441424254e-06 6.9442234693e-07 -1.6990650157e-06 
-1.5038098938e-07 -1.3057232032e-07 -3.8084777111e-08 -3.8169739548e-07 -2.5528107847e-07 -1.2593206665e-07 -1.2162207187e-07 3.0039958876e-07 -1.100367911e-07 
-2.9993515681e-07 2.0035614478e-06 1.0362596858e-06 8.2129905287e-08 3.6463179072e-07 -4.9528410538e-07 -4.3991548854e-07 1.0884817428e-06 3.6912268774e-07 
-1.2120798733e-06 -2.7353138771e-06 2.3724458706e-06 -4.1290374738e-06 1.1760544193e-06 4.2511312362e-06 -6.110100381e-07 1.9807154961e-06 -6.4306103337e-07 
-1.5073177171e-06 1.5273185809e-06 5.4668827567e-07 -1.8022911142e-08 1.8110867084e-07 -2.0137894187e-07 -2.8284753938e-06 2.0342580083e-06 -2.2016304975e-06 
-1.2714782407e-06 -1.8691674862e-06 -2.4812682193e-07 1.9469618544e-07 -1.1397830697e-07 3.9179331311e-07 2.8232118509e-07 -4.1718787755e-07 -1.1658039858e-07 
-5.4839866504e-07 -1.0751084703e-06 -6.036121237e-07 1.1434417346e-06 3.1582852923e-07 2.7036801251e-06 -2.0789829883e-07 -1.2492174521e-09 -4.7494899468e-07 
-8.4984145003e-07 8.7050506687e-07 4.6444587475e-07 2.1388148325e-07 -1.3695543798e-07 -2.1286880992e-07 1.6474941772e-07 -4.9996056412e-07 -1.9694793337e-07 
-1.2491147488e-06 -1.8347939479e-06 1.514990386e-06 -5.242939585e-07 -2.3118635791e-07 -2.4092309292e-07 2.6356215062e-07 2.4832602488e-07 -1.7857719246e-08 
-6.1850959341e-07 -6.512676036e-08 -9.9046354939e-08 1.2120822887e-07 6.4580404451e-08 1.3773386257e-06 6.819471145e-08 -9.0884009326e-07 -3.7463089461e-07 
-1.0544669404e-06 2.3965482244e-07 -2.9181508881e-07 2.1049096866e-07 -2.2716595155e-07 -2.1254942347e-08 3.835040141e-07 1.9209228678e-07 5.2503728919e-07 
1.3459281667e-07 -4.5615170252e-07 2.2325210992e-07 3.6382247408e-07 3.5538539788e-07 -8.601126254e-07 1.660945626e-08 5.8048632734e-07 8.1376230057e-08 
-5.691361159e-07 -1.3899463519e-07 -2.2608142514e-07 3.879602932e-07 6.2234401227e-07 -2.6584165849e-07 -1.2649507234e-07 8.7261386792e-08 6.3123011587e-08 
8.3856287811e-08 3.3628137146e-08 -1.0917315834e-08 8.1574615675e-08 -4.2643077246e-07 -1.4062006128e-07 -1.6566208011e-08 5.1351735809e-08 -3.4360100034e-07 
-6.9218421756e-07 -5.109369422e-07 -9.6408173884e-07 2.5002156387e-07 -1.1064622816e-07 -2.1163966901e-07 6.0800516634e-08 -9.828696646e-08 9.4710004819e-08 
4.9195880399e-07 3.084212515e-07 4.3703379471e-08 2.3259311415e-08 2.7947763609e-07 -4.7334225563e-08 -4.7759458464e-07 -8.4613565564e-08 4.2761902904e-08 
6.4456254521e-07 1.3516702915e-07 -4.4046820166e-07 4.9012321586e-07 7.3702728592e-07 -3.757735938e-07 -8.1578073056e-07 1.4436787834e-07 -7.1534185124e-08 
3.7021674195e-07 3.1824411007e-07 -2.367455031e-07 -3.4940756022e-07 -2.4257810142e-07 -9.0011261533e-07 1.0484928193e-07 7.8630760412e-08 -8.8799880142e-09 
5.1292453505e-07 7.1848348939e-09 4.3550159945e-07 -9.1173740413e-09 1.7562342988e-07 3.9599141595e-07 1.3222799211e-07 -1.2235592065e-07 1.0516039634e-07 
-1.64241625e-08 -1.0579486482e-07 4.9937984999e-08 -9.0508580778e-08 -1.4574355403e-07 5.5498018401e-08 -6.3889996899e-08 -1.9366890055e-08 7.1438403954e-08 
-2.8437605589e-07 -3.2425067702e-07 4.6434137683e-07 -6.7521606861e-08 -1.5756489042e-08 -2.1611149361e-07 6.3644683383e-08 1.036370617e-07 2.4688452827e-07 
-2.5737618602e-07 2.1613447206e-07 6.2657971519e-08 -2.209240103e-07 -1.2116209103e-07 1.1291942846e-08 -1.8919806173e-07 -3.2451968112e-08 9.2175883253e-08 
6.0457412601e-08 3.1254814505e-08 8.1560584985e-08 -2.7408762785e-07 2.2716499062e-07 2.7661837902e-07 -4.7256478825e-08 2.1039497405e-07 1.5456262093e-07 
1.0519123232e-07 6.1372816916e-08 6.4358856448e-08 
f 3 70 double
1.2461661074e-05 1.8750532676e-05 0.00010634775987 1.9457432745e-05 -0.00015899490891 1.2938363209e-05 -3.7379636457e-05 7.9016495205e-06 -2.7862142626e-05 
-7.7578104807e-06 4.018962835e-06 -1.6299963812e-05 -3.1474067849e-05 -2.0202670534e-05 3.0959912145e-05 -2.5342339465e-05 4.2333516286e-05 2.3016054647e-05 
1.6799728402e-05 -5.4303042442e-05 3.9791689935e-05 -1.9577990843e-05 -1.6654827383e-05 4.7094429867e-05 6.7685736922e-06 5.2910593428e-06 -6.4783571668e-05 
-7.2976220466e-06 -4.0159425171e-06 7.5423448821e-05 -5.7964302111e-05 -6.2964252975e-05 -0.0001113517026 5.762904044e-05 3.3174085077e-05 4.0527919033e-05 
-6.9123490391e-05 6.1465922046e-05 5.3730678652e-05 -6.2363568006e-05 -6.6272635604e-06 1.9457091023e-05 -9.2442747397e-05 5.0043868407e-05 0.00010295213034 
-0.00010388530056 -7.3978077135e-05 1.8135011249e-05 -2.8462751708e-06 3.215181709e-05 -7.119202584e-05 1.3962437343e-05 -3.0148327207e-05 1.0007766692e-05 
1.7512114529e-05 -6.5922859147e-06 1.9406218935e-05 -2.4404554469e-06 6.289105289e-06 2.2954236823e-05 4.5891090972e-06 -2.4880808483e-06 -3.0733904494e-05 
1.7795951967e-05 1.7887883296e-05 -9.0052698195e-06 6.2525138422e-05 4.0078346118e-05 -1.756960221e-05 7.7397648941e-06 -9.613866496e-06 -1.9229425508e-05 
5.4957429192e-05 -5.8579226375e-05 -2.7896021307e-05 2.1723182968e-05 7.2762905398e-06 -5.7118091232e-06 9.3859794768e-06 2.9026273163e-05 9.662276706e-06 
-2.2037627245e-05 -2.7734736159e-05 1.137567813e-05 4.0057143126e-06 1.1187970535e-05 -5.3937250373e-05 -2.4401747165e-05 -6.7803575509e-06 9.4089108004e-07 
3.8247987664e-05 -8.0719899028e-06 -1.6276060576e-05 6.9079848951e-05 7.504248531e-06 1.767145694e-05 4.123807025e-06 1.1513918201e-05 1.853965303e-06 
9.4748306815e-05 -6.9693546687e-05 -5.4627671132e-06 -2.1650597991e-05 3.2545297984e-05 -3.1358554084e-05 -3.578704806e-05 -2.2234770735e-05 1.4290729605e-05 
-0.00010961750853 -6.333462167e-06 -8.3800947306e-06 -2.8542871706e-05 1.8900150467e-05 3.2092386987e-06 3.0257081254e-05 2.5167467076e-05 -2.6553727902e-05 
2.8434159423e-05 -3.8043992937e-05 2.6226744152e-05 3.7408931017e-05 -6.3422843294e-06 -1.8714912421e-05 -8.8815661368e-06 -1.7873686267e-05 -9.3904994267e-06 
-2.8769371561e-05 6.8195565995e-05 -4.8305078587e-06 1.8598937907e-05 2.4746380278e-05 -1.5219372139e-05 5.2973607958e-06 -1.481000303e-05 -7.4699983116e-06 
4.6310127048e-06 1.5306866551e-05 -2.1858306469e-05 3.6285515362e-06 -2.1955605984e-05 7.7075339449e-06 -4.2739633498e-05 6.7824935627e-06 2.5652295194e-05 
1.8989493906e-05 2.0538306857e-05 -3.9761267609e-05 3.3350805304e-05 -3.3280792872e-05 2.4126906087e-05 3.6628726198e-05 -1.4462585711e-05 4.7360766767e-06 
2.0383413346e-05 -2.4631624799e-05 9.3721608258e-06 -6.7066180924e-06 -7.8817678441e-06 -1.8021367059e-05 -1.2170957736e-05 -7.6079004668e-06 -1.1771732708e-05 
3.3001406078e-06 -1.1298897773e-05 1.4034040673e-06 -9.4407382204e-06 -2.5010826957e-05 2.7343339874e-06 1.2303498015e-05 -1.4075083213e-06 2.3996197438e-05 
-1.3672021015e-05 -1.2376171646e-06 8.9261617867e-06 2.9472972059e-06 1.0328404305e-05 -3.4029080338e-06 1.8254765936e-06 -1.0205580712e-05 1.3511084696e-05 
1.3324453983e-05 1.8918999035e-05 -4.0159198054e-05 6.3746015782e-06 4.019083463e-06 1.2995814111e-06 4.9113578078e-06 -6.1329016637e-06 2.8816498013e-06 
-2.1331086282e-05 7.0232538608e-06 3.6679233257e-06 -1.0871031373e-05 1.2233708832e-06 3.330981016e-06 -7.9723461255e-06 4.3595273029e-06 1.2430114367e-05 
-1.2070392179e-05 -1.8204215382e-05 5.317509001e-06 -9.7389024274e-06 -8.1283071116e-08 3.3832953916e-06 -8.4772095e-07 -7.428775614e-06 -4.6148843289e-06 
1.3196529469e-07 7.1636505459e-07 6.8166556956e-08 
radius 1 70 double
0.003 0.003 0.003 0.003 0.003 0.003 0.003 0.003 0.003 
0.003 0.003 0.003 0.003 0.003 0.003 0.003 0.003 0.003 
0.003 0.003 0.003 0.003 0.003 0.003 0.003 0.003 0.003 
0.003 0.003 0.003 0.003 0.003 0.003 0.003 0.003 0.003 
0.003 0.003 0.003 0.003 0.003 0.003 0.003 0.003 0.003 
0.003 0.003 0.003 0.003 0.003 0.003 0.003 0.003 0.003 
0.003 0.003 0.003 0.003 0.003 0.003 0.003 0.003 0.003 
0.003 0.003 0.003 0.003 0.003 0.003 0.003 
omega 3 70 double
-0.00069172053672 -2.5684091647e-05 -6.3442776746e-05 -0.00059313186213 -0.00078246868999 -0.0009548633697 0.00011019996126 0.00019778387524 4.3854081625e-05 
-2.9204176847e-05 -0.00010672690231 6.9006073454e-05 8.0868071983e-05 9.1200378047e-06 -5.9636325307e-05 -3.7485835497e-05 2.9358429071e-05 6.2153549017e-05 
8.5093545739e-05 0.00080420545487 -0.00036396707996 -0.00013156372488 0.00024561709392 0.00010048276221 0.00021188583549 -1.5961913741e-06 -6.0086277181e-05 
0.00038662950366 0.00023792784221 -6.0520611121e-05 -0.0006224400802 -5.6702218615e-05 0.001324824232 0.00057748519061 0.0013394109517 0.0013483120741 
0.0010462183201 0.0012146937176 -0.00035209478103 -0.0001182168684 0.00020682911645 0.00053369938821 1.3639310939e-05 -0.00031399354707 -0.0026103468979 
-9.4569901179e-05 -0.00051125721068 8.9391925438e-05 -1.7180908194e-05 4.4618654109e-06 0.00010082093527 -0.00019225209757 -5.937012994e-05 0.00025624413458 
0.00042400513824 -1.8318668206e-05 0.00038607683905 0.00056806174312 0.00021879456556 0.00060982232729 0.00017427396207 0.00039684745944 -7.9324583285e-05 
-0.00047694681336 -0.00011039702518 -2.9438482451e-06 0.00038513786138 0.00032277746728 9.4418140449e-05 -6.7936019287e-05 0.00025650324686 -0.00016254095673 
-0.0010000523878 -0.0011806243919 -0.0019949776262 -0.00032714602386 0.00010281765227 -5.6660917031e-06 5.1751365242e-05 -1.1714005851e-05 5.3103807709e-05 
0.0002490370586 -0.00090073232245 -0.00027778249141 9.3562561566e-05 -0.00041123489434 -0.00012031510391 -4.2599962442e-06 -0.00012259316865 -0.00034489816103 
0.00077126962124 0.00069905499608 0.0002406291093 -0.00011045339415 -0.00010410030634 0.00017247451972 -0.00015747430521 0.00047174950471 0.00059896436078 
1.6352940012e-05 0.00085540968645 -0.00070487218334 -0.00052113912483 -0.00036350179674 0.00011853478762 0.00050986322569 0.00014133371931 -1.8334505622e-06 
0.00073209675893 0.00045905145129 -0.00030654857333 -5.9017367568e-05 0.00038737021399 -0.00017637876724 -0.00016433347239 3.9293711357e-05 9.3215943676e-05 
2.685140718e-05 -1.6264163239e-05 9.376460441e-05 -2.9178327833e-05 0.00020806897606 8.4740898566e-05 -9.4438158336e-05 -0.00047887126948 0.00015034537369 
-0.00025742627609 0.0005177261439 -0.00066061260034 0.00020053454794 0.00028214524202 6.32980055e-05 2.8655518367e-05 8.0705763183e-05 -5.7068450794e-05 
0.00013632303045 0.00010974050728 1.156290168e-05 0.0001959925227 2.5233376961e-05 -0.00011573824105 0.00013541098872 7.6437447017e-05 0.00014778907013 
-0.00027774378567 -0.00013505907387 -0.00011665011821 0.00054042030099 0.00058020435147 -0.00019448672716 8.8592176681e-05 -0.00010620367229 0.00024196155 
-6.0072595289e-05 5.3675268483e-06 -0.00029207882132 -8.9946186254e-05 0.00021858655035 0.00017929529306 -1.2978118433e-05 -3.8245038307e-05 0.00020208871251 
-3.2021154256e-05 -3.2029572988e-06 7.1941306513e-05 -0.00033953254044 -6.0545220002e-05 -1.845078232e-05 0.00016030248345 -0.00012323331952 9.9812230063e-06 
-0.0001028790863 -0.00015812758367 3.0275148957e-05 0.00010163924539 -4.0342542222e-05 -3.9839880867e-05 -0.00013613402652 -9.6074797157e-05 4.6072449703e-05 
-9.4657234472e-06 -0.00024343865055 -0.00010834091827 1.5317187145e-06 -0.00010606638431 0.00017710738461 4.3799671872e-05 -7.5701801746e-06 2.839427347e-05 
-2.4047440103e-05 0.00013169077592 0.00010329116686 3.7215530681e-05 0.00012828876066 9.4217139502e-05 -5.5917694606e-05 0.00020419548775 -6.9052050722e-05 
0.00021837981416 4.4288147839e-05 3.7748711808e-05 0.00048122164368 5.5075323538e-05 2.4393191084e-05 8.9934502887e-06 0.00011631712318 -0.0001560548947 
-0.00021831710601 -8.2503086093e-05 0.00011831618736 
