# vtk DataFile Version 4.2
Generated by LIGGGHTS
ASCII
DATASET POLYDATA
POINTS 70 float
0.00560608 -0.0303548 0.0106004 0.00881734 -0.0190816 0.00826751 0.0240746 -0.0186218 0.00945644 
0.0247684 -0.0063949 0.00872152 0.0320934 -0.0121728 0.00870504 -0.00693779 0.0316964 0.0104457 
0.0110721 -0.0322834 0.0123829 0.0187541 -0.0267901 0.0124173 0.0150186 -0.0248115 0.0166956 
0.0236355 -0.0237311 0.014092 0.019589 -0.00743964 0.0121948 0.0261925 -0.00820586 0.0175223 
0.0371626 -0.00702528 0.0130472 -0.029846 0.0042478 0.0143461 0.0360815 0.00932529 0.012576 
-0.0375654 0.0133436 0.0168368 -0.0287245 0.0215006 0.0135752 -0.0259888 0.0276003 0.0109625 
-0.031444 0.0301973 0.0125729 -0.00600096 -0.031396 0.0262926 0.0199603 -0.0310517 0.0240921 
0.018038 -0.0251925 0.0218659 0.0238387 -0.0248751 0.0235811 0.0189468 -0.0134293 0.0275354 
0.0212881 -0.0192417 0.0218877 0.0102525 -0.0115456 0.021352 0.0289119 -0.0123373 0.0273334 
-0.0409138 -0.00183595 0.0241252 -0.0436781 0.0040795 0.0264002 -0.0429628 0.00941151 0.0237347 
-0.0366769 0.00722159 0.021395 0.034842 0.0081937 0.0245006 0.0399819 0.0090423 0.0215241 
-0.0342208 0.0132831 0.021817 -0.0283888 0.0150544 0.0202725 -0.0114503 0.0196748 0.0215667 
0.0128649 -0.0241299 0.0358552 0.0231035 -0.0251616 0.0296769 -0.00567578 -0.0131299 0.0307081 
-0.011294 -0.0174629 0.034673 0.0101143 -0.0184503 0.035687 0.0298019 -0.0172281 0.0306916 
-0.0253675 -0.00894224 0.0314346 0.00829864 -0.0115076 0.0348315 0.0158331 -0.0053733 0.031913 
-0.0292426 -0.00170758 0.0299254 0.0244382 0.00301439 0.0308759 -0.0346765 0.0116685 0.027694 
-0.0287766 0.0105612 0.0292219 0.0276595 0.00588739 0.0350429 0.0427355 0.0102753 0.0341266 
-0.0282758 0.0153348 0.0328217 -0.0144261 0.0144959 0.0310149 -0.00688722 0.0157323 0.0359883 
0.0228083 0.0141199 0.0322398 -0.0206202 0.0214964 0.0316184 -0.0120534 0.0254396 0.0300522 
0.00580325 0.0259173 0.0309708 -0.0254867 0.0296887 0.0341225 0.0205848 -0.0226968 0.0386802 
-0.0078744 -0.0127805 0.0399881 0.0329754 -0.00820667 0.0413125 -0.00217442 0.00249153 0.0422269 
0.0374991 0.000166255 0.0421813 -0.014703 0.0108001 0.0368667 0.0209544 0.0122408 0.0435854 
0.0047318 0.0165509 0.0407464 0.0335626 0.0155335 0.0371572 -0.0121253 0.0228262 0.038066 
0.0282573 0.0113884 0.0469143 
VERTICES 70 140
1 0 
1 1 
1 2 
1 3 
1 4 
1 5 
1 6 
1 7 
1 8 
1 9 
1 10 
1 11 
1 12 
1 13 
1 14 
1 15 
1 16 
1 17 
1 18 
1 19 
1 20 
1 21 
1 22 
1 23 
1 24 
1 25 
1 26 
1 27 
1 28 
1 29 
1 30 
1 31 
1 32 
1 33 
1 34 
1 35 
1 36 
1 37 
1 38 
1 39 
1 40 
1 41 
1 42 
1 43 
1 44 
1 45 
1 46 
1 47 
1 48 
1 49 
1 50 
1 51 
1 52 
1 53 
1 54 
1 55 
1 56 
1 57 
1 58 
1 59 
1 60 
1 61 
1 62 
1 63 
1 64 
1 65 
1 66 
1 67 
1 68 
1 69 

POINT_DATA 70
FIELD FieldData 7
id 1 70 int
3960 1976 3525 5453 2121 2597 3877 2476 2824 
3395 2255 3155 2736 1373 3241 4669 2812 4092 
5429 5064 1779 3049 1744 4537 5129 4218 4774 
5469 4863 3766 661 4333 2909 728 5196 4215 
3936 2673 4044 3802 203 5493 597 3264 1593 
2154 2267 394 3303 3244 375 2539 3557 5477 
4415 467 5591 2172 717 1457 912 958 844 
1925 1174 3108 1428 54 934 3862 
type 1 70 int
2 2 2 2 2 2 2 2 2 
2 2 2 2 2 2 2 2 2 
2 2 2 2 2 2 2 2 2 
2 2 2 2 2 2 2 2 2 
2 2 2 2 2 2 2 2 2 
2 2 2 2 2 2 2 2 2 
2 2 2 2 2 2 2 2 2 
2 2 2 2 2 2 2 
i 3 70 int
0 0 0 0 0 0 0 0 0 
0 0 0 0 0 0 0 0 0 
0 0 0 0 0 0 0 0 0 
0 0 0 0 0 0 0 0 0 
0 0 0 0 0 0 0 0 0 
0 0 0 0 0 0 0 0 0 
0 0 0 0 0 0 0 0 0 
0 0 0 0 0 0 0 0 0 
0 0 0 0 0 0 0 0 0 
0 0 0 0 0 0 0 0 0 
0 0 0 0 0 0 0 0 0 
0 0 0 0 0 0 0 0 0 
0 0 0 0 0 0 0 0 0 
0 0 0 0 0 0 0 0 0 
0 0 0 0 0 0 0 0 0 
0 0 0 0 0 0 0 0 0 
0 0 0 0 0 0 0 0 0 
0 0 0 0 0 0 0 0 0 
0 0 0 0 0 0 0 0 0 
0 0 0 0 0 0 0 0 0 
0 0 0 0 0 0 0 0 0 
0 0 0 0 0 0 0 0 0 
0 0 0 0 0 0 0 0 0 
0 0 0 
v 3 70 double
-2.5409498643e-07 -2.1333154536e-06 -3.6847196887e-07 2.462314927e-06 -2.2063763829e-06 2.0201758801e-07 -1.3408868669e-06 -1.228338994e-06 -4.1984892964e-06 
1.6719400103e-06 -1.5407774713e-06 -2.3735918977e-06 6.0015319579e-06 -8.7432205741e-06 -1.8771801245e-06 -1.8672460305e-06 9.1315241284e-07 1.3909802066e-06 
-2.5568424723e-06 -2.8334014927e-06 -3.4487508573e-06 -7.7711118044e-07 4.4442925452e-07 2.9616878685e-06 3.3287439852e-06 -6.5992425223e-06 -4.2870203822e-06 
-3.1221294061e-06 -2.561810994e-06 -4.5173010014e-06 5.5989175465e-06 -2.558363792e-06 -6.540487503e-06 6.9267655762e-06 1.4485632151e-06 -9.3704868111e-06 
3.2909541812e-06 1.9017841876e-06 -7.5076185339e-06 -6.2084191004e-06 5.9149011119e-06 2.0283869872e-05 2.8598629427e-06 -6.172717033e-06 -2.8597277448e-05 
1.0082880995e-05 1.3028949254e-05 5.4581052522e-06 -6.7166147903e-06 -4.6192760377e-06 8.1846247375e-07 -6.0935539592e-06 -5.5375109969e-06 -5.0415744542e-06 
-5.1223337253e-06 -3.4426234279e-06 -2.8243131135e-06 5.6350299381e-06 -2.3033718263e-06 -7.9209797227e-07 -2.0364360863e-06 7.1865630764e-07 -1.6702572874e-06 
-4.0358579587e-06 7.4231727924e-07 -7.3882898525e-07 -2.7747114426e-06 -8.3732963854e-08 -4.0321732337e-06 6.6667955957e-07 2.2852513956e-06 -1.8113984528e-06 
5.4648622324e-06 7.9696594732e-07 3.6603597507e-07 3.6146001202e-06 7.076842305e-08 -2.3479400425e-06 1.6222334137e-06 -1.0746231689e-06 -6.7850146547e-06 
6.248292741e-07 4.0375294776e-06 -3.7865407791e-07 5.6731767195e-06 1.2122759959e-05 1.8401883009e-05 1.3842363402e-06 -5.4461116139e-06 -2.4844992327e-06 
-7.7190043877e-06 -7.4671408767e-06 -5.5221508584e-06 -1.0270224592e-06 5.4677510356e-08 -6.0913812817e-06 -1.208056642e-06 -1.8603286103e-06 -7.0812425242e-06 
8.6376169905e-06 2.4715969622e-05 1.754864721e-06 9.4126534086e-06 9.829196936e-06 2.3313068165e-06 -2.4493829019e-06 -4.2896463664e-06 1.7821672404e-07 
1.1981872982e-06 -3.4234718627e-08 -1.9989598593e-06 1.595497865e-06 -1.4861116998e-06 -4.6293793245e-06 -3.0700624968e-06 5.6642574447e-07 -8.180768291e-07 
-6.7984158011e-06 3.1127079042e-06 -4.2341420905e-06 9.8558607312e-07 2.4520928129e-07 -9.4290048219e-07 1.4936907114e-06 5.0274818091e-07 -3.9235548597e-06 
5.5995422588e-06 -1.1517180287e-05 1.6031062383e-06 4.4970510989e-07 1.5882836988e-06 -1.2950317712e-06 -5.6633624178e-07 2.4646309048e-07 -2.3702030021e-06 
1.8254957238e-05 -4.8677510764e-06 -3.7844903472e-06 -8.1724780056e-07 7.7145489228e-07 -3.38988645e-06 -3.1546695826e-07 -1.5170807217e-05 -2.9414992375e-06 
9.1234006897e-06 7.518187225e-06 -3.9248123405e-06 3.2596586935e-07 -9.2054625123e-08 -4.0962029776e-06 -3.7689503015e-07 9.2246065277e-07 -4.2612987821e-06 
7.3210670659e-06 8.376308853e-06 6.7029470961e-06 2.1621653282e-06 -2.7219135577e-07 3.7492860785e-06 7.3984031975e-06 -2.4510624498e-06 1.6269636254e-06 
-1.1537630281e-06 8.7234825352e-07 -2.2331419572e-06 1.0657368797e-06 3.2071045027e-06 3.3794038135e-06 1.3501400912e-06 1.5633974713e-06 4.7397187422e-06 
-7.5831742738e-06 -1.3629965347e-06 -9.9676575146e-07 1.9562584121e-06 -5.5605902563e-06 -8.7187011822e-06 9.1545244048e-07 -1.4099270792e-06 -2.160886562e-06 
-5.5675289685e-06 -2.8497660014e-06 -5.4310850582e-06 3.9215733078e-07 3.519649104e-07 -4.6571530407e-06 3.1660077488e-06 -4.0821380482e-06 -3.2175005897e-06 
5.071184856e-07 -1.622041479e-07 -4.7006150357e-06 -3.0427654105e-06 -3.4509997089e-06 2.4587439157e-06 -5.5725401807e-08 4.2747305666e-07 -3.5876231622e-06 
-2.8566660962e-06 2.6338045351e-07 -1.0061593046e-06 1.4776959059e-07 1.042597035e-06 -5.1608210945e-06 -5.6724483767e-07 -3.3745402409e-07 6.2348382177e-06 
1.175712925e-06 5.0353526963e-07 -4.3272221136e-06 
f 3 70 double
3.3686255966e-05 2.4613666988e-05 3.8732511766e-05 -4.0475459133e-05 3.738126837e-05 3.5405492021e-05 9.7979516038e-05 1.3571715326e-05 -1.1002050563e-05 
1.4673042435e-05 6.5546593221e-05 -3.4032612637e-05 0.00010051913465 0.00015602177875 3.3901380857e-05 -3.0086810158e-05 5.0597621511e-05 -6.2267859194e-05 
4.2186155042e-05 -1.5483665229e-06 3.8736534646e-05 -1.3181769435e-05 4.965496485e-05 5.0647547113e-06 -1.0877847031e-05 -5.3084861126e-06 1.6339366483e-05 
4.6234233256e-05 -9.6182715277e-05 -9.336932875e-05 3.0008515826e-05 -1.9462035714e-05 -8.5720049004e-06 -3.3396207895e-05 3.2136544792e-05 4.7146074935e-05 
-3.8171852345e-05 2.1806020616e-05 9.1877560427e-06 4.2416317159e-05 4.0609885379e-05 -0.00011326209352 5.5458293107e-06 8.301111732e-07 -2.1700132746e-05 
-1.6708634494e-05 -4.2572313816e-05 -0.00013527383969 2.9159413721e-06 2.0770917414e-05 -3.4317676051e-05 -6.8313203734e-05 9.1277922471e-05 0.00015241728396 
-9.7362132078e-05 5.285618892e-05 9.0294366906e-06 -1.8350422516e-06 4.7014319129e-06 -2.7757366055e-05 -1.1847388405e-05 -1.9612702815e-06 -1.192693937e-05 
2.2865950588e-05 5.9580075207e-06 7.1070193346e-06 -9.7740481714e-06 -1.7762408547e-05 1.798933501e-05 -2.1479873497e-05 1.0970801943e-05 -2.0540011054e-05 
5.9200671068e-05 7.3325625847e-05 7.1663702478e-05 0.00030736974915 4.2915864493e-05 -4.6090963687e-05 -0.00028851548478 0.00019941802195 0.00017444992303 
-6.3522327319e-05 3.5107985384e-05 3.2998528106e-05 0.00012078464049 9.2009839139e-05 0.00019150474582 1.7505714017e-05 -0.00015894167217 0.0001002034747 
0.00011322844778 -2.4652670625e-05 0.00010172173925 7.4556249284e-05 -1.1180092135e-05 -1.4445709963e-05 -4.6950621167e-06 -3.8756182785e-05 0.0001124340503 
-4.2560052231e-05 -6.2488238878e-05 -9.0476813336e-05 4.2171586611e-05 -2.5543358594e-05 -8.2877420634e-05 -1.4238450407e-05 1.3985337723e-05 2.0226084542e-05 
-7.4535718915e-06 3.2845324333e-05 -2.2661822664e-06 1.9485005266e-05 3.2451546276e-05 -2.9061921225e-05 -4.2286750823e-06 4.2888796959e-06 1.1267627721e-05 
-1.9893032699e-05 3.3396637106e-05 -5.2219866988e-05 3.1054844257e-05 3.5961425557e-06 -2.0329226904e-05 -1.705092527e-06 -2.2587556227e-05 4.3187546268e-06 
0.00013614302418 -9.2547512241e-05 -4.0153673531e-05 -3.2734884496e-05 -2.1315425699e-05 -8.209307795e-06 -2.967466156e-06 -8.2490957911e-06 -1.1292215163e-05 
-4.7452898954e-05 4.5973508155e-05 0.00013172595716 -7.2038788534e-06 -1.0790277691e-05 -4.768408137e-05 -3.8003471091e-05 4.9171135253e-05 0.00016804425965 
-2.9361030886e-05 -6.4825041177e-05 1.5610526054e-05 -1.1345283279e-05 -1.2034672566e-05 -9.0478813773e-06 1.8225012537e-05 6.3223758947e-06 -4.2157945101e-06 
7.2323649689e-05 6.1063529252e-05 1.1479496394e-05 -5.6175241628e-05 7.1075753364e-05 2.1019811399e-06 1.5452486033e-05 -5.4548166664e-06 -3.1636078479e-06 
-1.1937432212e-05 3.2098664471e-05 -1.6284250971e-05 -1.2883157743e-05 -4.7442443851e-05 -1.7849233481e-05 7.1958354289e-06 8.5549262841e-06 -1.3964341503e-05 
-3.8877137751e-05 -4.3707837559e-07 5.6404213593e-05 -0.00013166669275 -2.8769961091e-05 -3.9349777083e-05 4.4402632761e-05 5.5392305793e-05 -2.9339965803e-05 
-5.0920431785e-06 -2.758615852e-05 1.8663887577e-05 5.1933488455e-06 -1.2843037839e-05 -1.6095002262e-05 5.3347795851e-05 -3.3974562806e-05 -1.5495733619e-05 
6.5513790464e-06 1.6124859426e-05 -2.6351443007e-05 4.0582001316e-05 4.359222615e-05 -4.9054938765e-05 4.7403323785e-06 1.4409365517e-06 1.2326102628e-05 
2.1309700696e-05 4.3238292527e-06 8.602351302e-06 1.0758451969e-05 -3.4820459429e-05 3.0696129411e-05 -2.2971235593e-05 -2.8878733717e-06 1.084376838e-06 
1.9027690523e-06 -7.4159488487e-06 -4.5356731386e-06 
radius 1 70 double
0.003 0.003 0.003 0.003 0.003 0.003 0.003 0.003 0.003 
0.003 0.003 0.003 0.003 0.003 0.003 0.003 0.003 0.003 
0.003 0.003 0.003 0.003 0.003 0.003 0.003 0.003 0.003 
0.003 0.003 0.003 0.003 0.003 0.003 0.003 0.003 0.003 
0.003 0.003 0.003 0.003 0.003 0.003 0.003 0.003 0.003 
0.003 0.003 0.003 0.003 0.003 0.003 0.003 0.003 0.003 
0.003 0.003 0.003 0.003 0.003 0.003 0.003 0.003 0.003 
0.003 0.003 0.003 0.003 0.003 0.003 0.003 
omega 3 70 double
0.0033533351107 -1.6353715692e-05 -0.0015625188545 0.00016152355502 -0.0017221116347 -0.00023112269178 -0.00038425866026 0.0018959223214 0.00091824114996 
-0.0023034012426 0.00174553199 -0.00043300203616 0.002928157996 -0.0021419863772 -0.0021725992434 0.0019413189932 0.0013305073726 0.0024007388393 
0.0016196846785 0.00074783903301 -0.0018440801151 0.00027750619611 -0.00063670632965 -0.0013696607507 0.001115665985 0.00078341200775 -4.2834864636e-05 
0.00013532244442 0.0011617293638 0.00079660027121 -0.0024641785776 0.0026570353189 0.0014191559698 -0.000918293646 -0.001259908082 0.0028931780456 
-0.0029894257404 4.9758174638e-05 0.0027888283897 9.366810206e-05 -0.00019138998107 -0.0010988089727 0.011271550011 0.0081354377035 0.0071875490257 
0.00032566603723 0.001448172426 0.0010041603005 -0.0022876268367 0.0012446058492 0.0024851477648 0.00025266024443 0.00031583101078 -0.0013131879588 
0.0070684580568 0.0025626738196 0.0025042504353 -2.2969054247e-06 0.00031889484483 0.00020996327458 0.00054203682207 9.9312379643e-05 -0.00050573562825 
0.00040460254652 0.00031324688184 -0.0028443036303 -0.0016123991621 -0.0014311840361 -0.00070063720744 0.00047614311353 -0.00016511526417 0.00054658569278 
-4.8662981894e-05 -0.0017872832081 0.00045860536747 0.0018397443498 -0.00072071603677 -0.0011165395273 0.00080210811965 0.0001792929909 0.0015630916351 
-0.0010196457619 -0.00040398812966 0.00016334283826 -0.00063957770779 0.0021640392905 -0.0015984296723 -0.00059150295997 -0.0011973076773 0.0027040576848 
0.00050419516017 -0.0023798396748 0.0028579062048 0.00044536249889 0.00074329313202 -0.0010195057393 0.00095089000515 0.00060377170801 0.0011079154065 
-0.00019498353373 -0.0010831390103 -0.00030409383385 -0.00063905920938 0.00070624317229 -0.001762439195 -3.1641173699e-05 -0.00028345767371 0.00027678842098 
-0.00040132807373 -8.0329884116e-05 8.1725097254e-05 -0.0018995750462 -0.0015382282551 -0.00016256351177 -0.00025008088444 0.00027664672356 0.00029345464487 
-4.7160346364e-05 -0.0011386350223 -0.00089314420295 0.00047912947067 -0.00024516961767 -0.00022365149264 -0.0019213420957 -0.0015007875543 -0.00087943332826 
0.0012608351522 -0.0013883290807 0.00077183155033 0.00032848960592 0.00047798728683 1.055364102e-06 -6.2150384408e-05 8.9290446334e-05 0.00037911600189 
0.00027156980478 -0.0022621766505 0.0014025093093 6.61244373e-05 0.00012630517123 0.00098560344943 -0.0064466412333 -0.0013508318226 -0.0022898444492 
0.00093775209814 -0.0027833986988 0.0011167519904 -9.1017468747e-05 0.0003818829156 -1.4492108779e-05 0.00053011433106 5.2605938256e-05 -0.00059147805411 
0.0013727592673 -0.0024342459709 0.0023548517732 -0.00074983215356 -0.00022470218038 -0.00035567428158 -8.3815513146e-06 0.00091771677885 -0.00034734329277 
-0.00065147800281 -0.0010485647556 0.00093239799105 0.00035094640722 -0.00033629581838 -0.00086800243771 0.00057833892588 0.001084220184 -0.00018988671542 
0.00043877775651 0.0003320105429 -0.00091458814279 0.00016408399295 0.00079673131597 0.0026654850736 0.00027606419631 0.00029586659355 0.00029553580904 
0.00033209868647 -0.00017027045091 -0.00044354496416 4.1690870242e-05 8.7846989805e-05 8.1112454193e-05 0.00054463138366 0.00084121933098 0.0011156010251 
-0.00014673338976 -0.00010780497354 0.00011015730234 0.00014898410633 -0.0005129913406 -0.00083775351531 -0.00023813595927 7.2220974949e-05 0.00060950303722 
0.00035908843623 -0.00022112320308 0.00032445839209 -9.1649469392e-06 -0.00030587103519 0.00046657035584 0.0001398378987 0.00045691591867 0.0016295351757 
4.5200293167e-06 -0.00020145587877 7.3845086756e-05 
