# vtk DataFile Version 4.2
Generated by LIGGGHTS
ASCII
DATASET POLYDATA
POINTS 70 float
0.00415463 -0.0398914 0.00499925 0.00189331 -0.0127272 0.00918618 0.0161664 -0.00511958 0.00499963 
-0.0288731 0.00068381 0.00499951 -0.00627622 -0.00307519 0.00840947 -0.00173169 -0.00115005 0.00499867 
-0.00954385 0.0115412 0.00499923 0.00596364 0.0067348 0.00499935 0.034077 0.00940817 0.00942642 
-0.0244976 0.0129951 0.00499909 -0.00413072 0.0187455 0.00499898 -0.0271457 0.0228517 0.01022 
0.00848483 0.0222272 0.00737971 0.0327017 0.0237786 0.00499893 -0.0158004 0.0300754 0.00499936 
0.0104887 0.0321007 0.00810017 0.0193373 0.0303733 0.00744596 -0.0120432 -0.0345829 0.018388 
0.0180697 -0.0197106 0.0181489 0.0357457 -0.0185345 0.0178799 0.031029 -0.00345836 0.0187753 
0.00221154 0.011842 0.0116273 -0.0318749 0.0152471 0.0189962 0.0274982 0.0234341 0.0175247 
0.00626411 -0.0387443 0.0202854 0.0222686 -0.0233558 0.0262158 -0.0203187 -0.0151885 0.021603 
0.00678314 -0.0144132 0.0242332 0.0249597 -0.0106361 0.0227673 0.011572 -0.00156322 0.0247216 
0.0176547 -0.00338256 0.0199045 0.0254961 -0.00154088 0.0263904 -0.0305904 0.0071055 0.0246424 
0.00935546 0.00965154 0.0251507 0.0275189 0.00990879 0.0261827 -0.000308171 0.0141261 0.0236588 
0.0125088 0.0175187 0.0272189 0.00184313 0.0281875 0.0214579 0.0228226 0.0375984 0.0195493 
-0.0145585 -0.0310339 0.032851 -0.010359 -0.0324735 0.0287771 0.016791 -0.0311122 0.0346448 
0.0263484 -0.0317271 0.0280191 -0.0418205 -0.0136199 0.0322057 -0.00841226 -0.0153001 0.0317959 
0.0200132 -0.0163745 0.0317398 0.00855048 -0.00731594 0.0353744 -0.0170789 0.00802935 0.0292565 
0.035766 0.00753715 0.0279136 -0.00440421 0.0223088 0.0280027 0.0131928 0.0212309 0.0318824 
-0.0275159 0.0323081 0.0333748 -0.00252422 0.0405105 0.0293863 -0.00337847 -0.0208856 0.0400041 
-0.0125358 -0.0166588 0.0424125 0.00325235 -0.0159539 0.0365206 0.0263872 -0.0175727 0.0382567 
-0.0319993 -0.00926989 0.0411704 -0.0143467 -0.00758229 0.0433045 -0.0084736 -0.00787377 0.0421132 
-0.0249206 0.00132678 0.03753 -0.026906 -0.00358547 0.0443499 -0.00458335 0.0105025 0.0433803 
0.0210925 0.00651766 0.0360969 -0.00420116 0.0197373 0.0439462 -0.0130053 0.0259172 0.0402099 
0.0192862 0.0319925 0.0364117 0.000513969 -0.0272944 0.0448254 0.0256082 -0.00272951 0.0448913 
-0.0121959 0.0308987 0.0466202 
VERTICES 70 140
1 0 
1 1 
1 2 
1 3 
1 4 
1 5 
1 6 
1 7 
1 8 
1 9 
1 10 
1 11 
1 12 
1 13 
1 14 
1 15 
1 16 
1 17 
1 18 
1 19 
1 20 
1 21 
1 22 
1 23 
1 24 
1 25 
1 26 
1 27 
1 28 
1 29 
1 30 
1 31 
1 32 
1 33 
1 34 
1 35 
1 36 
1 37 
1 38 
1 39 
1 40 
1 41 
1 42 
1 43 
1 44 
1 45 
1 46 
1 47 
1 48 
1 49 
1 50 
1 51 
1 52 
1 53 
1 54 
1 55 
1 56 
1 57 
1 58 
1 59 
1 60 
1 61 
1 62 
1 63 
1 64 
1 65 
1 66 
1 67 
1 68 
1 69 

POINT_DATA 70
FIELD FieldData 7
id 1 70 int
203 1744 375 597 1457 912 661 54 958 
394 467 1373 717 1174 728 934 844 1779 
1976 1593 2267 1428 2154 1925 2673 3155 2824 
2476 2255 2736 2121 2909 2812 3525 3244 2597 
3108 2539 2172 3802 3049 3936 3264 3766 3877 
3960 4218 3395 3241 3303 3862 4092 3557 4774 
5469 4537 4044 4863 5064 5129 4669 5429 5196 
4333 5591 4215 4415 5493 5453 5477 
type 1 70 int
2 2 2 2 2 2 2 2 2 
2 2 2 2 2 2 2 2 2 
2 2 2 2 2 2 2 2 2 
2 2 2 2 2 2 2 2 2 
2 2 2 2 2 2 2 2 2 
2 2 2 2 2 2 2 2 2 
2 2 2 2 2 2 2 2 2 
2 2 2 2 2 2 2 
i 3 70 int
0 0 0 0 0 0 0 0 0 
0 0 0 0 0 0 0 0 0 
0 0 0 0 0 0 0 0 0 
0 0 0 0 0 0 0 0 0 
0 0 0 0 0 0 0 0 0 
0 0 0 0 0 0 0 0 0 
0 0 0 0 0 0 0 0 0 
0 0 0 0 0 0 0 0 0 
0 0 0 0 0 0 0 0 0 
0 0 0 0 0 0 0 0 0 
0 0 0 0 0 0 0 0 0 
0 0 0 0 0 0 0 0 0 
0 0 0 0 0 0 0 0 0 
0 0 0 0 0 0 0 0 0 
0 0 0 0 0 0 0 0 0 
0 0 0 0 0 0 0 0 0 
0 0 0 0 0 0 0 0 0 
0 0 0 0 0 0 0 0 0 
0 0 0 0 0 0 0 0 0 
0 0 0 0 0 0 0 0 0 
0 0 0 0 0 0 0 0 0 
0 0 0 0 0 0 0 0 0 
0 0 0 0 0 0 0 0 0 
0 0 0 
v 3 70 double
1.3859817248e-06 2.2642246571e-07 -5.5238161139e-07 -1.120806917e-06 -1.8074183848e-06 6.6238866578e-07 -6.7257862811e-07 -1.3260205641e-06 2.0736718331e-06 
4.6483786139e-07 2.1614180894e-08 4.9175117344e-07 5.4744108553e-07 2.5259128193e-07 -8.3898710864e-08 -6.3008468214e-07 -3.4395130936e-07 8.304491803e-08 
-2.4533796341e-07 -8.7902604435e-07 -3.8920242018e-07 1.0267856547e-07 5.1408495312e-08 4.3769161756e-07 1.5624266239e-07 -9.0728047879e-07 -3.2695590782e-07 
9.6936555412e-07 2.0806544958e-06 -2.7899021822e-06 5.1601296061e-06 3.571664836e-07 -1.1714256329e-06 1.0043078041e-06 -2.0751349077e-06 -1.0256614651e-07 
1.0282982827e-06 4.9698007203e-07 -3.1089071401e-07 7.2134992436e-07 3.8482917774e-07 -1.9118419101e-07 4.8948691786e-06 -2.8818827558e-06 -1.1273923456e-06 
1.1736438867e-06 3.7867436352e-07 4.051443674e-07 -3.8730948371e-07 5.6645844479e-08 -2.7770877935e-07 4.4573726937e-07 5.6498481415e-09 -4.532066113e-07 
2.3903667005e-08 -1.01157177e-07 8.8283634669e-07 -8.2391424651e-07 -3.4897339773e-07 -1.1353222694e-06 3.2782088447e-07 -5.0634680933e-07 6.1799760664e-07 
5.3906234558e-07 -4.9364317248e-07 -5.5526982759e-07 -2.677255739e-07 -5.1143504497e-08 -2.0283979586e-07 -6.756014255e-08 6.0119947227e-07 1.7643401188e-08 
-1.4422884541e-06 3.6004879466e-06 2.3203169306e-06 5.6755609182e-07 -1.5926960007e-08 5.4864665228e-07 7.8728279798e-08 2.5536852832e-07 6.698304837e-08 
-1.1462648611e-06 -6.0916890996e-07 2.0137934743e-07 -9.0725567291e-07 -7.8119358119e-08 -1.1849553736e-06 -1.7186287962e-07 8.339569358e-07 5.3406826861e-07 
-7.3701679686e-08 -2.5545807383e-07 5.4638867652e-08 -4.3442320865e-07 1.3703878127e-07 -2.8345178393e-08 -3.0992867554e-07 -9.4684569961e-08 5.9301158243e-09 
-3.983197634e-08 2.7919382697e-07 2.8329827941e-07 -5.0895065954e-07 -8.705568121e-07 1.2746459298e-06 -3.8033428943e-07 -2.1268606885e-07 8.3916900641e-07 
-8.9934797208e-08 2.5537649901e-07 2.3594063523e-07 -2.2967492147e-08 -7.7200629021e-07 1.7887437558e-07 1.2370239678e-07 5.5046739328e-09 9.8572629323e-08 
-3.0862920276e-07 -1.3033456687e-07 8.0016512781e-08 -5.9470117714e-08 -6.4665600675e-08 3.4951612914e-07 -6.6204445231e-08 -4.0201149751e-07 -4.8960297593e-07 
-4.4061653711e-07 3.8190315156e-07 -3.8986461853e-08 -2.2355472266e-07 2.2387641162e-07 -2.4151601704e-07 -1.2674629793e-07 -3.3172252094e-07 1.2194532812e-07 
8.7519365868e-08 -7.1845962112e-08 3.9051685227e-08 -4.8743672232e-08 1.0646885562e-07 -1.4335814279e-07 6.0357258125e-07 1.3929051771e-07 -1.8897413288e-07 
-3.8423781191e-07 -2.6016181354e-07 1.7196000894e-07 -4.9428561946e-07 -1.5390861691e-07 -4.6096332727e-08 1.7346171149e-07 -3.8800871489e-07 -3.8828767347e-07 
-4.7838858549e-07 3.2600373338e-08 1.6332700085e-07 -2.4476156625e-08 9.2969049052e-08 3.0776495343e-07 4.0882093768e-07 -4.5433562012e-08 -6.5570997658e-07 
-2.3459775683e-07 -3.6801068744e-10 -4.7580821232e-07 2.2870093928e-07 -1.6899290781e-07 2.281266341e-07 -4.8599414958e-09 3.5623115081e-08 3.9111666047e-07 
-1.2851236375e-08 -6.0351240526e-08 -1.9842658683e-07 1.7985693232e-07 -2.379887614e-07 -1.7481352022e-07 4.781938684e-08 6.4392436229e-08 1.8003240625e-07 
2.0238899583e-07 9.7109286634e-08 -1.7204567456e-07 -1.0273858176e-07 1.4851571461e-08 -2.0940390074e-07 -3.1513237778e-08 1.5426406723e-08 2.3158978941e-08 
-2.0962841465e-07 1.7741297389e-07 1.3279775525e-07 -3.0584050883e-07 -2.2610814601e-08 -2.3057043295e-07 -3.4306237138e-08 -1.0514751709e-07 -3.8042681375e-08 
8.3231995183e-08 -1.0469659588e-07 -1.2951562421e-07 -2.6167402709e-07 1.9655693596e-07 -3.1774355166e-08 -4.2211585732e-08 -2.2655054423e-08 -1.7866310382e-07 
3.1543884186e-08 -7.0105751071e-08 -6.9977350921e-08 
f 3 70 double
9.9811642094e-06 5.2643509688e-05 0.00010954682949 3.8609480907e-05 -9.4240946545e-05 5.2600851027e-06 4.4019342606e-05 -1.0407343912e-05 -5.1269102053e-06 
-8.5808188814e-06 1.0780886681e-05 -1.7331479316e-05 -2.7304220896e-05 -2.5782260019e-05 3.457314928e-05 -1.6922307786e-05 5.1297146769e-05 2.6272632037e-05 
-8.7243604284e-06 3.6782000939e-05 9.1024603342e-05 -1.8429127705e-05 -7.4234611978e-07 4.0529900267e-05 -7.0215601466e-06 5.8901990222e-06 -6.3033256925e-05 
7.1960111975e-06 -2.3228550098e-05 5.2027681255e-05 4.495892828e-06 2.2782350299e-05 6.2814990421e-05 1.074404278e-05 5.7389016071e-06 -1.1257701232e-05 
-9.989482337e-05 0.00012419055409 8.5992069558e-05 -0.00010371830241 -2.6329639112e-05 1.7185009882e-05 5.2754955971e-05 -3.9116371591e-05 -8.7704123301e-05 
-0.00010127308532 -0.00011418065141 3.3047575045e-05 -2.0050201059e-05 3.2090286387e-05 -7.7717710758e-05 3.5646442489e-05 -3.7420898841e-05 -8.9233320018e-07 
5.5026007916e-05 1.8350543912e-05 3.7617274259e-05 -2.6429562763e-05 -2.2527536945e-05 -4.5074418806e-06 -3.3174323529e-06 -4.504867687e-06 -2.3188718746e-05 
-6.651515432e-07 3.1237884634e-05 -8.3627997349e-06 5.9365677996e-05 5.9459714839e-05 5.2219197406e-05 1.8140521582e-05 -5.7825956155e-06 -1.4633921729e-05 
2.1374241357e-05 -3.1139098977e-05 3.0680698915e-05 3.2570701791e-05 5.0043150893e-07 -6.2097588585e-06 8.6866278069e-06 2.3020907756e-05 4.3910547736e-06 
3.2600186642e-05 -1.1394221265e-05 2.4912979385e-05 -4.9451466259e-06 1.6396757514e-05 -3.6479027971e-05 2.1420386249e-06 2.0003491e-05 -6.8260515402e-06 
6.1002296964e-05 -4.7971908346e-05 -5.6739544884e-05 5.6606818334e-05 2.5731141068e-06 1.0841789887e-05 -5.802992726e-05 7.8715501924e-06 -1.8971853743e-05 
8.0279333259e-05 -5.7166734864e-05 -5.0838044366e-06 -3.9837684099e-05 1.0774580913e-06 -2.8120625424e-05 -6.7259225595e-05 8.7479403041e-06 7.5136129849e-05 
-0.00012892793883 -2.0487443223e-05 -1.1333096429e-05 -9.5373045715e-06 1.1012272956e-05 -2.3318000827e-06 2.7758536594e-05 5.05738434e-06 -8.763106154e-06 
2.8634512343e-05 -3.7581617795e-05 2.8106079051e-05 3.7950128264e-05 -1.2752877101e-05 -1.4561054698e-05 -1.466170157e-05 -1.533943587e-05 -1.1043409551e-05 
-3.4457337389e-08 6.5451163323e-05 -1.9449019296e-06 2.0838163301e-05 2.8624889073e-05 -9.1130172266e-06 5.4906998797e-06 -1.4823321862e-05 -1.0737570983e-05 
-2.1033436659e-06 1.2137502216e-05 -1.8207028934e-05 7.462134692e-07 -2.983636373e-05 7.0311873813e-06 -2.6050745199e-05 -3.8082451018e-05 1.0384076188e-05 
5.3071473234e-05 9.5779214789e-07 -4.6809576622e-05 2.2203438054e-05 -4.661018794e-05 8.9117289509e-06 1.231165585e-05 -1.2653090638e-05 -5.6816977295e-06 
2.0141881384e-05 -2.828434101e-05 -9.6714879508e-06 2.2937858779e-05 1.293797879e-05 -1.374031007e-05 -1.7084001024e-05 -5.2140890633e-06 -9.81505659e-06 
2.6116875114e-06 -7.0491281479e-06 -1.2577484678e-06 -1.2642730448e-05 -1.3667993971e-05 -7.1786143626e-06 5.3003755861e-06 2.3154472649e-06 1.6618896977e-05 
-6.4800237356e-06 -1.1042428486e-05 -4.5008545599e-06 5.3678409177e-07 5.1890630785e-06 -8.3513623637e-06 -4.4455473473e-06 -7.4289671511e-06 1.2959777196e-05 
-8.1662429799e-06 -1.3758082511e-07 -4.3490105433e-06 6.8583548412e-06 -2.6800710363e-07 -1.1779448883e-05 3.3972061676e-06 -5.4560849214e-06 3.739886868e-06 
-2.1772050962e-05 5.7992059932e-06 2.6563862553e-06 -4.0172830482e-05 1.1280355854e-06 6.189716665e-06 -8.3560604619e-06 -5.7453761382e-07 9.990951881e-06 
-1.7157155615e-05 -1.235439939e-05 4.0011120457e-06 -1.2546208378e-06 -3.2728240682e-06 3.4456151367e-06 -1.2673100553e-06 -1.1443354716e-05 -3.5249917034e-06 
-1.8992830184e-06 2.5810756694e-06 -2.0888909804e-06 
radius 1 70 double
0.003 0.003 0.003 0.003 0.003 0.003 0.003 0.003 0.003 
0.003 0.003 0.003 0.003 0.003 0.003 0.003 0.003 0.003 
0.003 0.003 0.003 0.003 0.003 0.003 0.003 0.003 0.003 
0.003 0.003 0.003 0.003 0.003 0.003 0.003 0.003 0.003 
0.003 0.003 0.003 0.003 0.003 0.003 0.003 0.003 0.003 
0.003 0.003 0.003 0.003 0.003 0.003 0.003 0.003 0.003 
0.003 0.003 0.003 0.003 0.003 0.003 0.003 0.003 0.003 
0.003 0.003 0.003 0.003 0.003 0.003 0.003 
omega 3 70 double
-0.00063170812431 5.4245459663e-05 0.00048410691899 -0.00079098095349 -0.00121050396 -0.0014905669876 -0.00046152412159 -0.00082418786022 0.00047164249648 
3.3313174228e-05 0.0001100512583 -3.2741565092e-05 -0.00016867297242 1.3795458634e-05 5.9191155014e-05 8.2928719241e-05 -0.00012214364484 3.8222138071e-05 
-0.00011966301633 -0.00035793327083 3.3494696008e-05 0.00017448336682 -0.00033746424868 -0.00020753238021 3.0599427084e-05 0.00014126641525 0.00021816841131 
-0.00025240714318 -0.00028370547112 0.00011565047054 0.0020960208523 0.00045127478617 -0.001472163948 -0.00022656313888 -0.00080238230118 -0.00072973677006 
0.00073110467785 -0.00031585807483 0.00019254862134 -0.00016593389558 0.0001408184301 0.00016300518306 -0.00013363964518 0.00029582491819 0.0026511130568 
0.00011661306718 0.00032629389856 -0.00040040708655 1.4802186685e-05 5.1601249341e-05 -2.5422746246e-05 3.3257046848e-05 2.2966084863e-05 1.8058510728e-05 
-0.0008035168239 -0.00045582673177 0.00065442726601 0.00089567074574 -7.4886085956e-05 -0.00021733195576 -0.00012815022865 -0.00052989302403 0.00014136610164 
0.0002520629607 0.00036798838643 8.8576765183e-05 0.00027928837063 -0.00030151297005 0.00019695838899 -4.8326044369e-05 -0.00012883907278 0.00027917670947 
-0.00024245512127 -8.1969741558e-05 0.0014316727498 0.00018290330184 -0.00034005327827 8.9619299181e-05 1.2322926379e-05 -2.0885549735e-05 0.00015870280495 
0.00065809216529 -0.0012554530228 -0.00011732575774 0.00014388895976 0.00045388913882 0.00033634999258 -0.00018728776837 6.3773505289e-06 -0.00018785450446 
-0.0011379174549 -0.00090430853632 -0.00021459302803 0.00017137649241 -0.00012716703461 0.00025613293634 -4.9156852294e-05 -3.6445628149e-05 -0.0004610830534 
-0.0005055994384 9.4453813848e-05 3.348572217e-05 0.00057296867534 0.001062841974 0.00069359232196 0.00035799303844 0.00051883957991 0.00010910267043 
0.000537332033 0.00027243836038 2.0407184236e-05 1.1079702248e-05 -0.0003915802935 0.00029675185256 -0.00022225638003 -0.00027372997886 4.0017534043e-05 
4.8334330053e-05 4.388962847e-05 1.9905409585e-05 -0.0001096645642 7.8743193714e-05 -4.6380645117e-05 -0.00027410776943 -8.895522537e-05 0.00052423632376 
-2.3305138931e-05 -0.00059056876333 0.00015626758799 -0.000513415802 5.0738361796e-05 0.00015154142804 -4.4664853089e-05 -3.6100051845e-06 7.982991283e-05 
7.5156146231e-05 -9.6249034289e-05 0.00016348559383 -0.00014019833207 0.00016158905419 -0.00010847653756 0.00040569877783 -0.00010510032478 -5.299349671e-05 
0.00017431728779 -0.00015113472468 -9.1116896439e-05 0.00010597096032 0.00018426326402 0.00014461555404 0.00014274616535 -0.00011488418666 0.0001292875393 
-0.00010737100092 2.1054375398e-05 0.00021351791468 -0.00078310074058 3.700268772e-05 0.0005546500124 2.9282198665e-05 0.00019053173594 0.00020386363515 
1.0350342914e-06 -0.00024864332774 0.0003188928531 -0.00037713314388 -0.00020797211872 -3.6881864794e-05 0.00024085322261 1.1928348996e-05 -0.00012800413531 
5.2790726515e-06 0.00033924088966 0.00016836546058 -0.0001857926231 -0.00029666401356 -0.00017208201554 -0.00010127897966 -0.00020472623114 -2.944134037e-05 
7.0944849571e-05 0.00011677150895 -0.00019267629947 3.5644654092e-05 3.1110517862e-05 3.9188696135e-05 4.6151447345e-05 6.594443176e-06 -1.5346813402e-05 
4.0531632058e-05 -3.7180450271e-05 0.00016922990072 0.00010273784243 0.00011942630447 9.1831423587e-05 -4.5878389338e-05 -1.2909104577e-05 4.060716089e-05 
-6.2398883022e-05 -4.2626965894e-05 -6.7163313247e-05 0.0006111916786 0.00018257154752 0.00015734496181 2.841557288e-05 4.0530692873e-05 -7.0444956532e-05 
1.6657692624e-05 1.5896514428e-05 4.8845974628e-05 
