# vtk DataFile Version 4.2
Generated by LIGGGHTS
ASCII
DATASET POLYDATA
POINTS 70 float
0.00415465 -0.0398914 0.00499925 0.00189332 -0.0127272 0.00918618 0.0161664 -0.00511958 0.00499963 
-0.0288731 0.0006838 0.00499951 -0.00627622 -0.0030752 0.00840947 -0.00173169 -0.00115006 0.00499867 
-0.00954385 0.0115412 0.00499923 0.00596364 0.0067348 0.00499935 0.034077 0.00940818 0.00942642 
-0.0244976 0.0129951 0.00499909 -0.00413072 0.0187455 0.00499898 -0.0271457 0.0228517 0.01022 
0.00848482 0.0222272 0.00737971 0.0327017 0.0237786 0.00499893 -0.0158004 0.0300754 0.00499936 
0.0104887 0.0321008 0.00810017 0.0193373 0.0303733 0.00744596 -0.0120432 -0.0345829 0.018388 
0.0180697 -0.0197106 0.0181489 0.0357458 -0.0185345 0.0178799 0.031029 -0.00345835 0.0187753 
0.00221153 0.011842 0.0116273 -0.0318749 0.0152471 0.0189962 0.0274982 0.0234341 0.0175247 
0.00626413 -0.0387443 0.0202854 0.0222686 -0.0233558 0.0262158 -0.0203187 -0.0151885 0.021603 
0.00678315 -0.0144132 0.0242332 0.0249597 -0.0106361 0.0227673 0.011572 -0.00156322 0.0247216 
0.0176547 -0.00338255 0.0199045 0.0254961 -0.00154087 0.0263904 -0.0305904 0.00710549 0.0246424 
0.00935546 0.00965154 0.0251507 0.0275189 0.00990879 0.0261827 -0.000308174 0.0141261 0.0236588 
0.0125088 0.0175187 0.0272189 0.00184312 0.0281875 0.0214579 0.0228226 0.0375984 0.0195493 
-0.0145585 -0.0310339 0.032851 -0.010359 -0.0324735 0.0287771 0.016791 -0.0311122 0.0346448 
0.0263484 -0.0317271 0.0280191 -0.0418205 -0.01362 0.0322057 -0.00841226 -0.0153001 0.0317959 
0.0200132 -0.0163745 0.0317398 0.00855049 -0.00731594 0.0353744 -0.0170789 0.00802934 0.0292565 
0.035766 0.00753716 0.0279136 -0.00440421 0.0223088 0.0280027 0.0131928 0.0212309 0.0318824 
-0.0275159 0.0323081 0.0333748 -0.00252423 0.0405105 0.0293863 -0.00337846 -0.0208856 0.0400041 
-0.0125358 -0.0166588 0.0424125 0.00325236 -0.0159539 0.0365206 0.0263872 -0.0175727 0.0382567 
-0.0319993 -0.0092699 0.0411704 -0.0143467 -0.0075823 0.0433045 -0.0084736 -0.00787378 0.0421132 
-0.0249206 0.00132677 0.03753 -0.026906 -0.00358548 0.0443499 -0.00458335 0.0105025 0.0433803 
0.0210925 0.00651766 0.0360969 -0.00420116 0.0197373 0.0439462 -0.0130053 0.0259172 0.0402099 
0.0192862 0.0319925 0.0364117 0.000513992 -0.0272944 0.0448254 0.0256082 -0.00272951 0.0448913 
-0.0121959 0.0308986 0.0466201 
VERTICES 70 140
1 0 
1 1 
1 2 
1 3 
1 4 
1 5 
1 6 
1 7 
1 8 
1 9 
1 10 
1 11 
1 12 
1 13 
1 14 
1 15 
1 16 
1 17 
1 18 
1 19 
1 20 
1 21 
1 22 
1 23 
1 24 
1 25 
1 26 
1 27 
1 28 
1 29 
1 30 
1 31 
1 32 
1 33 
1 34 
1 35 
1 36 
1 37 
1 38 
1 39 
1 40 
1 41 
1 42 
1 43 
1 44 
1 45 
1 46 
1 47 
1 48 
1 49 
1 50 
1 51 
1 52 
1 53 
1 54 
1 55 
1 56 
1 57 
1 58 
1 59 
1 60 
1 61 
1 62 
1 63 
1 64 
1 65 
1 66 
1 67 
1 68 
1 69 

POINT_DATA 70
FIELD FieldData 7
id 1 70 int
203 1744 375 597 1457 912 661 54 958 
394 467 1373 717 1174 728 934 844 1779 
1976 1593 2267 1428 2154 1925 2673 3155 2824 
2476 2255 2736 2121 2909 2812 3525 3244 2597 
3108 2539 2172 3802 3049 3936 3264 3766 3877 
3960 4218 3395 3241 3303 3862 4092 3557 4774 
5469 4537 4044 4863 5064 5129 4669 5429 5196 
4333 5591 4215 4415 5493 5453 5477 
type 1 70 int
2 2 2 2 2 2 2 2 2 
2 2 2 2 2 2 2 2 2 
2 2 2 2 2 2 2 2 2 
2 2 2 2 2 2 2 2 2 
2 2 2 2 2 2 2 2 2 
2 2 2 2 2 2 2 2 2 
2 2 2 2 2 2 2 2 2 
2 2 2 2 2 2 2 
i 3 70 int
0 0 0 0 0 0 0 0 0 
0 0 0 0 0 0 0 0 0 
0 0 0 0 0 0 0 0 0 
0 0 0 0 0 0 0 0 0 
0 0 0 0 0 0 0 0 0 
0 0 0 0 0 0 0 0 0 
0 0 0 0 0 0 0 0 0 
0 0 0 0 0 0 0 0 0 
0 0 0 0 0 0 0 0 0 
0 0 0 0 0 0 0 0 0 
0 0 0 0 0 0 0 0 0 
0 0 0 0 0 0 0 0 0 
0 0 0 0 0 0 0 0 0 
0 0 0 0 0 0 0 0 0 
0 0 0 0 0 0 0 0 0 
0 0 0 0 0 0 0 0 0 
0 0 0 0 0 0 0 0 0 
0 0 0 0 0 0 0 0 0 
0 0 0 0 0 0 0 0 0 
0 0 0 0 0 0 0 0 0 
0 0 0 0 0 0 0 0 0 
0 0 0 0 0 0 0 0 0 
0 0 0 0 0 0 0 0 0 
0 0 0 
v 3 70 double
2.9274013933e-07 -6.8532676931e-07 -6.8794149881e-08 1.6926826277e-06 -4.086967407e-07 -1.0272763554e-06 -1.005861118e-08 1.4130801649e-06 4.4340957239e-07 
2.5798783624e-08 3.2920043557e-07 -7.1647223238e-08 -1.3107630173e-07 6.343925777e-07 4.0654573245e-08 2.3564197805e-07 9.5858207922e-07 -5.9676105965e-09 
2.6701480987e-07 6.0662654736e-07 6.578759841e-07 5.6034913901e-07 3.7738244976e-07 -9.8840813347e-07 -4.8853548583e-07 -1.512331664e-07 5.8103675212e-08 
-7.9649656335e-07 5.7449914406e-07 1.5393226472e-06 -2.1551403517e-06 -1.9645277579e-06 2.3232718745e-06 1.0865793855e-07 2.8944451927e-07 1.5852344746e-07 
3.0751210172e-07 -6.7408019943e-07 -4.8309809231e-07 -1.8421030053e-07 1.471698304e-07 -8.2292540783e-08 -1.2977765702e-06 -1.1332395008e-06 -3.2850724514e-06 
-1.0995601037e-07 6.3247650997e-07 -1.0101177764e-06 7.702452283e-07 -5.7786485195e-07 7.0303624369e-07 -2.9883928718e-08 4.5835424722e-07 1.071935292e-07 
4.9274982398e-08 -2.0330521277e-07 -1.5000228444e-06 3.5577950131e-07 1.3090351839e-07 -5.6839936094e-07 -3.9261372103e-07 3.7021599291e-07 -2.6121843368e-07 
3.473824699e-07 3.9512094049e-07 -5.8444695035e-07 3.1755857658e-07 2.9943554991e-07 2.35131763e-07 -1.9637515859e-07 4.0808462653e-07 -2.040468289e-08 
2.020678582e-07 -2.5871385661e-07 -5.6450213134e-07 1.7646867084e-07 8.5262024025e-07 -3.9343036631e-07 1.2761451985e-08 5.340507576e-08 -4.4496494627e-08 
1.2306946015e-07 -5.7954571632e-08 7.971520723e-07 2.7262396364e-07 -1.8441828475e-07 3.2485474504e-07 -2.1014349885e-07 -6.6213619796e-08 8.2992097797e-08 
-2.3320344958e-07 2.3287540175e-07 2.1580130912e-07 1.8915978471e-07 1.4574456642e-07 -2.7509423027e-07 -1.8778548341e-07 3.7592463088e-08 1.2845088528e-07 
-1.9081023362e-06 -4.1306110491e-07 -2.850639057e-07 -7.8729615848e-07 -1.0905709317e-07 -6.0316927713e-07 4.9890976688e-07 -5.3326447276e-08 -1.302700244e-06 
1.5951358084e-07 -7.6752832035e-07 -6.6718977333e-07 -3.3761183775e-07 5.0420715378e-07 -3.5605752676e-08 -4.1341630725e-08 -3.1073972219e-07 3.7078070115e-07 
3.5929100874e-08 1.5372213415e-07 -1.0726087996e-07 3.8422100312e-08 8.0111752566e-08 -1.1469181875e-07 -4.4676461946e-07 1.137559593e-07 -2.0604386752e-08 
-1.1267164748e-06 1.3127929966e-06 -7.955151716e-07 -2.7538113692e-07 3.9063001073e-07 -4.7066010698e-07 -1.3738624358e-07 -1.3951010659e-07 6.0051507261e-08 
2.1665737899e-07 -2.8217136406e-07 -3.3168440416e-08 -2.4838855643e-07 3.7189709533e-07 2.8585372839e-07 -1.0644324946e-07 1.3273736053e-07 -1.1483352468e-07 
1.6922718974e-07 -3.9188612899e-07 -7.363377365e-08 9.8909010887e-08 -1.4741484721e-07 2.894024846e-07 2.5042509906e-07 -4.8471243274e-07 -4.6634479322e-07 
4.0091040323e-07 -2.1989644293e-07 5.2576089879e-07 -5.7835012393e-07 -2.0141394262e-07 -2.4204258043e-07 3.5154269965e-08 2.3501970453e-07 -1.0681812005e-07 
-1.6006961397e-07 1.127189003e-07 1.1227894613e-07 -9.6153973242e-08 1.473839584e-07 6.1598281887e-10 -6.1634538729e-08 -1.0219383185e-07 9.3493355052e-09 
-6.1940063243e-09 -1.2629965644e-07 3.4291842597e-08 -1.9039902846e-07 3.6392595001e-07 1.8366460118e-07 3.8026698852e-08 -1.8068284407e-07 -8.8884775604e-09 
2.7374862932e-07 -7.8459019847e-09 -7.1558527881e-07 2.4360157078e-08 2.73593835e-08 -2.6187455186e-08 -5.0736106023e-08 2.6217229424e-07 5.3824469468e-08 
-1.8784475867e-07 3.2233391707e-07 1.34113233e-07 9.0655693468e-08 -3.4883726613e-08 -1.9573885279e-07 5.3485407941e-08 -8.4360497489e-08 1.5491044977e-07 
-6.8913998112e-08 1.4488479521e-07 -6.655934915e-08 2.1352756612e-08 -2.1078877551e-07 -6.4515385492e-09 -4.4343175425e-08 -1.0758773539e-07 1.9967916939e-10 
-1.7681864106e-08 -9.8000462646e-08 1.7387798784e-08 
f 3 70 double
1.8113665905e-05 -2.6589660229e-06 0.00014947755353 4.7248251406e-05 -6.5075737042e-05 7.2972295162e-05 4.9617401888e-06 1.7148509544e-06 4.074479633e-07 
5.8597454751e-06 9.0027853877e-06 2.2334642578e-05 -2.6594559426e-05 -7.813658213e-05 7.4394438477e-06 -4.7030777766e-05 -4.2409463277e-05 2.1397889046e-05 
-5.4112153018e-05 2.2265850537e-05 5.5369008081e-05 2.2896430462e-05 1.8533421806e-05 -6.5968966484e-08 -4.8237938481e-05 -9.6490342078e-06 -4.2817831934e-05 
-1.1890661872e-05 1.3761630741e-06 -7.3043547613e-05 0.00011345900749 9.5374056382e-06 -2.4410745941e-06 -3.587552675e-05 3.6641733519e-05 1.7166673342e-05 
0.00011064239052 -4.5775821189e-05 -2.8984294243e-05 -4.5988646093e-05 -3.9743846674e-05 -2.361922114e-05 1.6822851231e-05 1.1887725691e-05 2.2698340116e-05 
1.7548193509e-05 -5.2547505587e-05 5.4252352174e-05 -6.5802948194e-05 1.7508911298e-05 -1.7056999574e-05 3.1827327189e-06 5.0549827283e-07 1.2786992487e-06 
4.9757187653e-06 -6.5560866825e-06 -2.7444686612e-06 2.313106802e-05 1.6158378513e-05 -1.110490114e-06 -3.1068448598e-05 -6.8384160629e-06 -3.5061572346e-06 
4.4465963486e-06 -5.4025498881e-05 3.4234331293e-05 -4.5095356053e-05 -0.00010696227262 -6.3995765737e-06 2.0373838339e-05 2.3225510549e-05 6.8531342033e-06 
-7.6466588809e-05 8.4147952647e-05 -5.2300509001e-05 -2.1620932749e-05 -2.013320568e-06 1.4117348819e-05 -3.3808948151e-06 -1.299210909e-06 -5.545715702e-06 
-1.4999535715e-05 -2.3802458001e-05 1.8275928998e-06 2.3810374966e-06 2.8537812644e-05 -6.0858048155e-05 -2.1488363686e-06 3.8828462251e-06 -6.7336267528e-05 
-3.8932676696e-05 2.4811297116e-05 1.3219206324e-05 6.492360307e-05 3.0573523797e-05 5.7311318146e-06 7.2095985673e-06 -5.4935844198e-06 6.9907636189e-08 
-4.0553720723e-05 -1.0563926857e-05 2.4529556855e-05 1.3705394414e-06 -3.5038476459e-05 -4.614193561e-05 -6.089000147e-07 5.0168779168e-05 0.0001113797779 
-4.4320268541e-05 9.3649537524e-06 -2.8180916941e-05 7.658551173e-06 -1.735937963e-05 8.1858708878e-06 -1.6765530449e-05 -1.9641082206e-05 3.7306613978e-07 
8.8814071292e-06 -2.5391432468e-06 4.8015055284e-07 6.1587205974e-07 2.6338207906e-05 -3.4086069005e-05 -5.1519436189e-06 -5.895542421e-05 6.1941712351e-05 
0.00021864846525 -9.4064770385e-05 -3.5628987725e-05 -3.4651709044e-05 1.4462419761e-05 4.7829416276e-06 1.4746450582e-06 -3.0187309031e-05 -2.2793186271e-05 
3.0758151842e-05 -8.2208001569e-07 -7.0160019697e-06 -8.3720803083e-06 1.831396048e-05 6.3022015785e-06 3.4680044047e-05 4.8740954205e-05 2.8567356636e-05 
4.0737461989e-06 -4.2023572867e-05 -7.1299655505e-05 8.6046475054e-06 9.6929223011e-06 -1.2339419861e-06 1.8129928072e-05 8.7615273794e-06 3.2950539703e-05 
1.3753012937e-05 4.0326022146e-05 -1.6881474196e-06 3.9714958939e-05 8.320381333e-06 1.8569722784e-05 1.6360859324e-05 -9.8048540469e-06 -2.7837697837e-06 
6.4662525411e-06 -9.39631475e-06 -1.285159772e-06 3.7658781498e-06 -1.6418000499e-05 -1.0592108708e-05 -9.3076418097e-06 -3.8529102184e-07 1.7963081061e-06 
-7.4785442466e-06 -5.5911610991e-06 -6.3225634471e-06 -2.828639098e-05 2.3335400942e-05 1.5864690415e-05 4.1129100896e-06 3.9717145337e-06 -5.6527754361e-06 
1.3085028712e-05 7.0365221902e-06 -2.3899914521e-06 1.2644602039e-05 4.3457138413e-06 -2.3638787324e-07 1.2133318793e-05 2.9134358878e-06 3.9083387194e-06 
-2.4063220692e-08 1.5699932391e-05 7.4941564319e-06 -2.8019390132e-05 3.5211388023e-06 -6.8361842311e-06 4.7353943447e-06 -4.8969992547e-06 -1.166844314e-05 
-2.3941022351e-05 6.2735642013e-06 -8.8733366061e-06 1.1607096524e-06 -5.5276804036e-06 -2.9599944007e-06 1.1605694474e-06 -4.1389738198e-06 -3.6098771853e-06 
-1.1051635661e-05 -1.2228147822e-06 -3.7211167205e-06 
radius 1 70 double
0.003 0.003 0.003 0.003 0.003 0.003 0.003 0.003 0.003 
0.003 0.003 0.003 0.003 0.003 0.003 0.003 0.003 0.003 
0.003 0.003 0.003 0.003 0.003 0.003 0.003 0.003 0.003 
0.003 0.003 0.003 0.003 0.003 0.003 0.003 0.003 0.003 
0.003 0.003 0.003 0.003 0.003 0.003 0.003 0.003 0.003 
0.003 0.003 0.003 0.003 0.003 0.003 0.003 0.003 0.003 
0.003 0.003 0.003 0.003 0.003 0.003 0.003 0.003 0.003 
0.003 0.003 0.003 0.003 0.003 0.003 0.003 
omega 3 70 double
-0.00043790255386 -0.00022150903925 -2.9917660144e-06 -0.00048473714914 -0.00013851734127 -0.00050861892314 -0.00017980268313 -0.00010464188412 0.00016700868655 
8.3034009771e-06 7.0641082762e-05 -0.00010101844867 7.4372103363e-05 -4.9005462454e-05 -0.00029908443067 -0.00067798988135 0.00044686098345 2.2617485721e-05 
0.0012709118967 0.00091564044576 -0.00055918439022 -2.4732619324e-05 0.00017416810872 0.00012410236171 -0.00027366284002 -0.00010215595271 3.8441734954e-05 
0.00029108537251 0.00044922683423 -0.00013933016378 0.0014598448289 0.00052672512307 3.4650480633e-05 0.00038805773771 0.0005438742495 0.00094427376665 
-0.00019541400626 -0.00047123684751 0.00035727145697 -1.2533412657e-05 5.5713631118e-05 1.7425877371e-05 0.00077164404111 -0.00091445921884 0.0003016193873 
-0.00070411218754 1.8512926382e-05 8.0646970105e-05 0.00021543831536 0.00010914316024 1.7624553457e-05 9.7710903852e-05 1.79126738e-05 -0.00014143016336 
0.00050833514627 -2.5254197453e-05 -0.00023734547074 -0.0002065745912 -0.00023890790726 8.9777684666e-05 -0.00025514761735 -0.00029811693653 0.00017353451492 
0.00043693031479 -0.00028746645439 -0.00044810915744 2.0589548676e-05 6.0671419014e-05 -0.00018122985058 0.00015805469355 0.00018009318238 4.4809255555e-05 
-0.00012789086193 3.6474442742e-05 0.00097969020522 1.984744818e-05 8.7584681417e-05 0.00013520893354 3.9361822096e-05 4.2215063195e-05 -2.4089305935e-05 
-0.00012502912132 5.2668397363e-05 8.0101671773e-05 3.2552298074e-05 7.5485849668e-05 -0.00013653696879 -0.00038061302923 0.0002706961162 -0.00031060219244 
0.00013042574602 0.00043208479101 0.00036855831588 0.00016019030295 -0.00010240871589 -5.6394202117e-05 -0.00012549394832 7.6093282418e-05 4.3634657544e-05 
-0.00011984339758 0.001043708311 -0.00033092515861 0.00042894980473 5.9143733338e-05 -0.00048326918439 -0.00064998626022 -0.00065989048259 -0.00023014470706 
0.0006595742034 4.5392223623e-05 0.00031268944605 0.00036890249478 0.000653827273 -9.0676662153e-05 7.4416945475e-05 -0.00021711455077 0.00015449971114 
2.5105785509e-05 -4.4723247286e-05 -0.00010489792403 8.364776813e-05 -0.00011809555685 -3.6058639056e-05 -0.00057791015473 0.00030003521843 -0.00038145059135 
-3.1903023735e-05 0.0012906525125 -0.00077411705155 -0.00034556105768 -0.00018690885588 0.00039372357245 5.3497928418e-06 0.00012458524339 0.0001762335295 
6.0658077066e-05 1.7525638806e-05 7.9377983615e-06 5.9511843783e-05 3.8991686322e-05 4.1685604717e-05 -0.00028250057302 0.00059860238126 6.7934470967e-05 
-0.00015189621942 -0.00057445915654 -5.5757736512e-05 -0.0001282845914 -0.00023848447487 9.3111592362e-05 1.6762608189e-05 -0.00012884874841 0.00016461032769 
-3.4021611587e-05 -3.6651394921e-05 -5.6603869259e-05 -0.00013059528359 -0.00011252083154 0.00020328999779 -4.6311548951e-05 3.6105284069e-05 -0.00012998088033 
-0.00026874774865 -6.5807769252e-05 0.00017220785037 -7.9891763147e-05 -3.632861307e-05 8.530084859e-05 -9.8850568602e-05 -0.00024920632564 6.3904407412e-05 
-1.8896079719e-05 -0.00028017378463 0.0001092651025 0.00025699823293 0.00039381492934 0.00012024083408 2.4517840114e-05 8.3234507904e-05 4.6849620858e-05 
-6.2353984064e-05 0.00027076006976 0.00011237616882 5.4522683807e-05 1.1861720664e-05 4.7211317705e-06 -3.0304423941e-05 -0.00014637995163 -3.7979595022e-05 
-6.8224352113e-05 0.00013992105321 -2.781435871e-05 3.1866997601e-05 9.8263070163e-05 -0.00012858962065 4.9315702462e-05 -0.00011428489267 2.9193450506e-05 
0.00018630373699 0.00018175300762 -1.7743497612e-05 -1.1142528029e-06 -9.6844446438e-05 4.0037021911e-05 5.8388467072e-05 -5.5909270426e-05 0.00018482326991 
2.9366844298e-05 -3.0493071187e-05 -5.1544713069e-05 
