# vtk DataFile Version 4.2
Generated by LIGGGHTS
ASCII
DATASET POLYDATA
POINTS 70 float
-0.00197402 -0.0335463 0.0202573 0.00221166 -0.0340362 0.0251502 -0.0159228 -0.0219912 0.0227569 
-0.00692078 -0.0253621 0.0219868 0.0343107 -0.00679886 0.0246101 0.019058 0.00853184 0.0220263 
0.0328842 0.0118966 0.0242323 0.00624468 0.0282848 0.021318 0.0122115 0.0301046 0.0219901 
0.0129529 -0.0311771 0.0337055 -0.00659805 -0.0263974 0.0355823 -0.0104233 -0.0155854 0.0279515 
0.0139878 -0.0143821 0.0346572 -0.0237858 -0.00826365 0.032477 0.00966722 -0.0039959 0.0297297 
0.0182336 -0.0040141 0.0323199 0.0131262 0.00267362 0.0360215 0.00607338 0.00919971 0.0349003 
0.000943969 0.0145125 0.0297625 0.0110561 0.0181395 0.0334474 -0.0181636 0.0253932 0.0312391 
0.0196009 0.0246582 0.0299611 0.00881908 0.0356375 0.0351914 -0.0106326 0.039894 0.0312326 
-0.00637806 -0.0366584 0.0428137 0.0291349 -0.0286352 0.043276 -0.0236302 -0.0141658 0.0382452 
0.0165818 -0.0191735 0.0405876 0.0208791 -0.0107401 0.0382611 0.023608 -0.0119952 0.0442798 
-0.0289412 -0.00242717 0.0444381 0.0248069 0.00716269 0.0435103 -0.0152919 0.0129637 0.0440028 
-0.0177556 0.0202386 0.0416068 0.00787936 0.0256449 0.0385173 0.0135439 0.0252066 0.0364911 
-0.00181843 -0.0307707 0.0452573 0.00461751 -0.0367517 0.049791 0.016917 -0.0341124 0.051298 
-0.0123286 -0.0246483 0.0451316 0.00336301 -0.024293 0.0477723 0.015529 -0.0241607 0.0508689 
0.0302004 -0.0240671 0.0513734 -0.0109281 -0.0191284 0.0515603 0.0241297 -0.0170067 0.0476212 
-0.0161981 -0.0112652 0.0505085 -0.0053538 -0.00444284 0.0495042 0.0133223 -0.00785806 0.0480138 
-0.0219917 -0.00359673 0.0502761 -0.00668142 0.0013807 0.0499827 0.0219367 -0.000396766 0.0486589 
-0.0124058 0.00561677 0.0511665 -0.00288188 0.00873013 0.0512217 0.013433 0.0118414 0.0445685 
0.0188352 0.0102066 0.0503975 -0.0354986 0.0182045 0.0497845 -0.0075206 0.0201278 0.0502362 
-0.0107523 0.0146668 0.0519327 -0.0347537 0.0269058 0.0479565 -0.0283027 0.0335487 0.0509011 
-0.0181839 0.0357123 0.0460834 -0.0189775 0.0309637 0.0498391 -0.00177696 0.0439044 0.0460554 
0.00749239 -0.0325684 0.0536776 0.0185365 -0.0299505 0.0553066 0.027272 -0.0288293 0.0545032 
-0.00687988 -0.0177253 0.0561781 -0.0224035 -0.00589876 0.0577973 -0.0187291 0.00410202 0.054261 
-0.031269 0.025709 0.0547551 
VERTICES 70 140
1 0 
1 1 
1 2 
1 3 
1 4 
1 5 
1 6 
1 7 
1 8 
1 9 
1 10 
1 11 
1 12 
1 13 
1 14 
1 15 
1 16 
1 17 
1 18 
1 19 
1 20 
1 21 
1 22 
1 23 
1 24 
1 25 
1 26 
1 27 
1 28 
1 29 
1 30 
1 31 
1 32 
1 33 
1 34 
1 35 
1 36 
1 37 
1 38 
1 39 
1 40 
1 41 
1 42 
1 43 
1 44 
1 45 
1 46 
1 47 
1 48 
1 49 
1 50 
1 51 
1 52 
1 53 
1 54 
1 55 
1 56 
1 57 
1 58 
1 59 
1 60 
1 61 
1 62 
1 63 
1 64 
1 65 
1 66 
1 67 
1 68 
1 69 

POINT_DATA 70
FIELD FieldData 7
id 1 70 int
4044 3264 203 3936 4415 1174 2172 3557 5477 
1593 5493 2673 958 1779 1925 3108 3862 844 
934 2539 1373 5591 4215 4092 4218 3241 3049 
2267 3244 4333 3802 1428 394 2154 5196 3303 
4537 1976 5453 5129 3155 2255 2736 4774 2909 
3877 3395 375 2824 1457 54 912 1744 467 
717 5469 728 661 3766 4669 5429 2812 2597 
3960 3525 2121 2476 5064 597 4863 
type 1 70 int
2 2 2 2 2 2 2 2 2 
2 2 2 2 2 2 2 2 2 
2 2 2 2 2 2 2 2 2 
2 2 2 2 2 2 2 2 2 
2 2 2 2 2 2 2 2 2 
2 2 2 2 2 2 2 2 2 
2 2 2 2 2 2 2 2 2 
2 2 2 2 2 2 2 
i 3 70 int
0 0 0 0 0 0 0 0 0 
0 0 0 0 0 0 0 0 0 
0 0 0 0 0 0 0 0 0 
0 0 0 0 0 0 0 0 0 
0 0 0 0 0 0 0 0 0 
0 0 0 0 0 0 0 0 0 
0 0 0 0 0 0 0 0 0 
0 0 0 0 0 0 0 0 0 
0 0 0 0 0 0 0 0 0 
0 0 0 0 0 0 0 0 0 
0 0 0 0 0 0 0 0 0 
0 0 0 0 0 0 0 0 0 
0 0 0 0 0 0 0 0 0 
0 0 0 0 0 0 0 0 0 
0 0 0 0 0 0 0 0 0 
0 0 0 0 0 0 0 0 0 
0 0 0 0 0 0 0 0 0 
0 0 0 0 0 0 0 0 0 
0 0 0 0 0 0 0 0 0 
0 0 0 0 0 0 0 0 0 
0 0 0 0 0 0 0 0 0 
0 0 0 0 0 0 0 0 0 
0 0 0 0 0 0 0 0 0 
0 0 0 
v 3 70 double
0.054380882747 0.015281090198 0.24192261523 0.083134499724 0.069505345912 0.2418466888 -0.0044331866671 0.061037127633 0.26733338594 
0.017524186801 0.083471173389 0.27620788584 0.022860697828 0.050155878669 0.42824655535 0.069553489676 0.035743750612 0.3852084082 
0.046108359373 0.015107007579 0.43031182042 0.084118557577 0.04568725919 0.39440369323 0.023574702561 0.00062151520246 0.39995061713 
0.081812416537 0.063748807741 0.2710268773 0.042929011503 -0.0036184083756 0.18884686694 0.058602377651 0.0695028893 0.26992395173 
0.067622924225 0.086455571095 0.38420348069 0.033979282967 0.059948736365 0.2778297398 0.071516679071 0.064155773743 0.37850241985 
0.077331798951 0.069520229146 0.43328274123 0.057271570735 0.059044754896 0.45064794422 0.094262288951 0.076954889466 0.42230471163 
0.092470972147 0.057445402714 0.40229609863 0.088976060999 0.065398906754 0.43828908361 0.10298629223 0.064769350028 0.32516603621 
0.029195558513 0.013361644643 0.40601906442 0.06251348441 0.017850485462 0.47416755707 0.097707925402 0.02751469291 0.40439335447 
0.057027104745 0.0029916452448 0.16662721771 0.11263166463 0.041700534695 0.41224421464 0.041784712582 0.030108412108 0.22889456693 
0.084719729532 0.060878835796 0.36638810719 0.085890880991 0.067696376262 0.43124482472 0.072508060189 0.07593107856 0.40401345207 
0.061522284006 0.040421883442 0.2272301307 0.055570319546 0.043097333814 0.4914901121 0.087833236731 0.068278494355 0.26246241747 
0.12395456251 0.059615537896 0.31292763565 0.086266481848 0.046902090565 0.48564409117 0.077626909569 0.02050089563 0.45374319617 
0.052291390843 0.0083533347156 0.09112242835 0.094800214399 0.017874456987 0.15147776261 0.085205589665 -0.0030549519061 0.26026831704 
0.065802796081 0.0036735151468 0.19157206485 0.07683563482 0.039599354415 0.22910979881 0.056294432654 0.070509728473 0.31815845555 
0.010848465749 0.11497689327 0.40423338849 0.12657793568 0.045228294612 0.16860612616 0.02961816344 0.059064276055 0.4224390924 
0.042672520353 0.062441599219 0.21298058307 0.10137438867 0.060804520872 0.3053108639 0.060125799804 0.13496766655 0.39759235279 
0.072602162914 -0.027281517315 0.19030123772 0.0977296669 0.074933967778 0.3178238428 0.062610438131 0.10207689811 0.50289527854 
0.068615872109 0.070636360874 0.27392549243 0.090199896225 0.11304872584 0.36975293779 0.069908576868 0.087299796301 0.47306926331 
0.041643594005 0.098573498117 0.57634476957 0.03975241222 0.053112925578 0.22918254852 0.049489744658 0.011895831516 0.4301263781 
0.08907275694 0.095192007803 0.35852447373 0.033122483978 0.062074171841 0.17395056183 0.023108588066 0.068365796871 0.28005394093 
0.084545094701 0.05281684795 0.40831661802 0.13451879177 0.06911800569 0.36236556973 0.045960621687 0.010345048845 0.53825748803 
0.053917044327 0.085721364636 0.22474406381 0.00024449432676 -0.04600567481 0.34527937287 -0.012509430791 -0.001780340913 0.47415335025 
0.15294813902 0.08049865546 0.12596788877 0.10217992574 -0.0015730814237 0.20168733468 0.065967968983 -0.0032403350065 0.23059977596 
0.073103866095 0.053147204521 0.1897776659 
f 3 70 double
0 0 -0.0085430334339 0 0 -0.0085430334339 0 0 -0.0085430334339 
0 0 -0.0085430334339 0 0 -0.0085430334339 0.067391596376 0.027487182468 -0.0053907120489 
-0.012665321185 -0.047880927472 -0.041028339711 0.0019199176293 -0.0034153390962 -0.010434644984 0.0021709142832 0.005133276348 -0.0045373164897 
0 0 -0.0085430334339 -0.0056583111366 0.0078382768005 -0.0070351119321 0 0 -0.0085430334339 
0 0 -0.0085430334339 0 0 -0.0085430334339 -0.02159128049 -0.01025009302 -0.019797515525 
0 0 -0.0085430334339 0 0 -0.0085430334339 0 0 -0.0085430334339 
0.0055349996787 -0.0029144297129 -0.0065691127903 0 0 -0.0085430334339 0 0 -0.0085430334339 
-0.016882958502 0.011008435791 -0.01728767724 0 0 -0.0085430334339 -0.04749955574 0.026181548045 -0.019260416399 
0 0 -0.0085430334339 0 0 -0.0085430334339 -3.0912343576e-05 5.2660403714e-05 -0.0085624080681 
0.0363782641 -0.024479183845 -0.011177834954 -0.016917591253 0.039395115542 -0.026557249596 0 0 -0.0085430334339 
0 0 -0.0085430334339 0 0 -0.0085430334339 -0.027376128319 -0.0026731187827 0.04693730477 
-0.029026021538 -0.0057608712233 -0.019522278367 0 0 -0.0085430334339 -0.0029858970433 -0.036326136296 -0.022005077571 
0 0 -0.0085430334339 0 0 -0.0085430334339 0 0 -0.0085430334339 
0 0 -0.0085430334339 0 0 -0.0085430334339 0 0 -0.0085430334339 
0 0 -0.0085430334339 0 0 -0.0085430334339 0 0 -0.0085430334339 
-0.00031112196991 -0.00010393496853 -0.0072255873502 0.14411104973 -0.61535983656 -0.033675974278 0 0 -0.0085430334339 
0 0 -0.0085430334339 -0.11174678746 0.60478493808 0.032316749759 0 0 -0.0085430334339 
-0.010534058796 0.0073608353108 0.032272085977 0 0 -0.0085430334339 0.037264180338 0.020716081489 -0.031400680014 
0 0 -0.0085430334339 0 0 -0.0085430334339 0 0 -0.0085430334339 
0 0 -0.0085430334339 0 0 -0.0085430334339 0 0 -0.0085430334339 
0 0 -0.0085430334339 -0.029721975225 -0.080591953704 -0.015045055171 0 0 -0.0085430334339 
0 0 -0.0085430334339 0 0 -0.0085430334339 0 0 -0.0085430334339 
0 0 -0.0085430334339 0 0 -0.0085430334339 0 0 -0.0085430334339 
0 0 -0.0085430334339 
radius 1 70 double
0.003 0.003 0.003 0.003 0.003 0.003 0.003 0.003 0.003 
0.003 0.003 0.003 0.003 0.003 0.003 0.003 0.003 0.003 
0.003 0.003 0.003 0.003 0.003 0.003 0.003 0.003 0.003 
0.003 0.003 0.003 0.003 0.003 0.003 0.003 0.003 0.003 
0.003 0.003 0.003 0.003 0.003 0.003 0.003 0.003 0.003 
0.003 0.003 0.003 0.003 0.003 0.003 0.003 0.003 0.003 
0.003 0.003 0.003 0.003 0.003 0.003 0.003 0.003 0.003 
0.003 0.003 0.003 0.003 0.003 0.003 0.003 
omega 3 70 double
-13.922208498 0.16506014205 -3.6363076486 1.6716468825 -5.9231027672 0.91099277433 8.4260586225 -6.1278391698 2.7561392916 
-1.2004028384 9.4249898573 -7.1431495697 -2.7617779411 -3.772873231 -3.5894699922 -4.015592723 -14.915694685 7.0751661653 
4.0009242222 0.88946990887 -1.8417698478 4.3842852439 -2.0467654907 -4.2846658725 4.3547132694 -4.6645992621 1.578533615 
9.1208853868 -14.620587555 -4.609812355 0.042171812853 -1.8463476599 -12.122644628 -2.9134910763 -5.174489285 -3.5801814094 
0.29517280725 1.3469516842 0.048854646986 3.4839901547 5.67646951 -3.4155075 0.22171185866 0.83353428559 -2.4316394708 
4.7219879319 3.0064776843 -0.56959578348 -2.8141010844 1.4732176175 -3.0521523085 1.1126038433 3.4514529303 1.9646186486 
0.86437173956 -6.9032562291 -1.9490100089 -4.8738392144 -0.5840142197 -0.51648522269 3.8067797259 -5.1682932842 -2.1891174368 
-1.7044574639 -3.7262019607 -2.7235388954 -6.1257218155 1.7614258555 -10.153825866 2.8901896692 -0.05774520193 -0.40818547965 
9.7093125265 4.1039294015 0.29165431398 6.1617858411 -17.309252704 12.197390979 -1.0306364656 6.6235744111 -2.5166305286 
2.633265538 -0.42860681071 10.038923773 4.2425485692 -6.4975294745 1.3422966974 -2.1864859699 1.0081160572 6.943538879 
5.55306965 -10.795889095 -3.1430059016 -9.3613512236 1.7433960512 2.5829767328 -5.3001514658 -7.6955309372 4.6454448229 
-2.0678340827 -6.583031698 2.8355640413 -0.7357810129 4.5018052393 1.0855359204 -1.6043685781 -2.476159153 1.3242231193 
-1.6220034903 -4.5191329727 5.7210063376 3.1967905213 -4.7273734152 1.1669107174 13.660297165 -9.2572552616 5.2057850735 
2.4108172768 5.2926222629 -0.74603615781 -1.5519570515 0.55679143059 -6.6156896803 -22.433986447 10.830884276 28.477514689 
-2.1508058673 17.879577586 9.7815302718 -25.775795556 9.0251716285 1.4386937311 -2.0180475768 -4.7605545676 -4.7506051926 
4.6188624835 -3.0845783094 -1.3243218972 -5.261929116 -15.872126269 -0.1758882825 2.5215455111 -5.408409843 2.6126426728 
15.552025089 3.7312797888 -1.5351727845 5.8352638905 -13.543526032 -1.0678991751 8.2576281398 -15.833248501 -2.2042551383 
10.84807835 -5.2641885699 5.2102667836 -3.456278965 -12.538608879 -18.874358927 -5.294648383 4.5107520898 -4.2647910188 
-2.7677287053 18.123397748 -4.234672289 2.2010253768 -0.97178422124 -2.0410301504 -10.59984514 -20.80952102 14.858379599 
17.503925025 0.29633898987 0.78338249576 3.3509242119 -0.16853079432 -6.0359181652 12.442735341 -3.9760732226 15.109800807 
15.839593576 -11.034945504 -2.1463323822 -6.4179269414 -1.3664662526 -7.9296450488 -12.742657184 3.7724830808 6.5045144625 
-9.0803457256 6.2398987664 -4.4038051122 17.007679536 -3.5522397397 -7.7193218997 23.101806224 -15.336807381 13.704875208 
-15.03319 4.7423755244 -2.7718333445 3.6386343863 -16.082113155 -4.2942870511 6.1504843049 10.071762034 5.1922478944 
8.453939428 -23.467472646 -8.5187042917 
