# vtk DataFile Version 4.2
Generated by LIGGGHTS
ASCII
DATASET POLYDATA
POINTS 70 float
0.00560695 -0.0303548 0.0106007 0.00881775 -0.0190813 0.00826764 0.0240747 -0.0186219 0.00945695 
0.0247679 -0.0063951 0.00872255 0.0320923 -0.0121716 0.00870522 -0.0069396 0.0316967 0.010447 
0.0110727 -0.0322833 0.0123836 0.0187547 -0.0267903 0.0124174 0.0150187 -0.0248111 0.0166962 
0.0236359 -0.0237312 0.0140923 0.019589 -0.00743926 0.0121951 0.0261919 -0.00820621 0.0175237 
0.0371626 -0.00702544 0.0130482 -0.0298459 0.00424756 0.014346 0.0360803 0.00932562 0.0125828 
-0.0375655 0.0133435 0.0168369 -0.0287248 0.0215002 0.0135756 -0.0259891 0.0275998 0.0109628 
-0.0314438 0.0301962 0.0125724 -0.00600093 -0.0313961 0.0262931 0.0199606 -0.0310519 0.0240924 
0.0180384 -0.0251929 0.0218662 0.023839 -0.0248749 0.0235818 0.0189468 -0.0134295 0.027536 
0.021288 -0.0192415 0.021888 0.0102527 -0.0115455 0.0213524 0.0289119 -0.0123375 0.0273343 
-0.0409137 -0.00183627 0.0241251 -0.0436781 0.00407935 0.0264002 -0.0429628 0.00941139 0.0237347 
-0.0366768 0.00722136 0.021395 0.0348424 0.00819365 0.0245024 0.0399822 0.00904268 0.0215257 
-0.0342208 0.0132829 0.0218171 -0.0283888 0.0150542 0.0202728 -0.0114502 0.0196744 0.0215672 
0.0128648 -0.02413 0.0358557 0.0231036 -0.0251616 0.0296775 -0.00567576 -0.01313 0.0307083 
-0.011294 -0.0174629 0.0346732 0.0101142 -0.0184503 0.0356875 0.0298018 -0.0172283 0.0306925 
-0.0253675 -0.00894232 0.0314347 0.0082986 -0.0115077 0.034832 0.0158331 -0.00537337 0.0319136 
-0.0292425 -0.00170775 0.0299253 0.0244383 0.00301435 0.030877 -0.0346765 0.0116683 0.027694 
-0.0287766 0.0105611 0.0292219 0.0276594 0.00588727 0.035044 0.0427355 0.0102752 0.0341281 
-0.0282759 0.0153346 0.0328219 -0.0144261 0.0144958 0.0310152 -0.00688727 0.0157322 0.0359887 
0.0228084 0.0141198 0.032241 -0.0206202 0.0214961 0.0316186 -0.0120532 0.0254395 0.0300525 
0.00580333 0.0259173 0.0309715 -0.0254868 0.0296886 0.0341223 0.0205846 -0.0226969 0.0386809 
-0.00787444 -0.0127805 0.0399884 0.0329753 -0.00820689 0.0413136 -0.00217446 0.00249127 0.0422272 
0.037499 0.000165964 0.0421826 -0.0147031 0.0108 0.0368668 0.0209542 0.0122406 0.0435864 
0.00473164 0.0165507 0.040747 0.0335625 0.0155333 0.0371588 -0.0121253 0.0228259 0.0380661 
0.028257 0.0113882 0.0469157 
VERTICES 70 140
1 0 
1 1 
1 2 
1 3 
1 4 
1 5 
1 6 
1 7 
1 8 
1 9 
1 10 
1 11 
1 12 
1 13 
1 14 
1 15 
1 16 
1 17 
1 18 
1 19 
1 20 
1 21 
1 22 
1 23 
1 24 
1 25 
1 26 
1 27 
1 28 
1 29 
1 30 
1 31 
1 32 
1 33 
1 34 
1 35 
1 36 
1 37 
1 38 
1 39 
1 40 
1 41 
1 42 
1 43 
1 44 
1 45 
1 46 
1 47 
1 48 
1 49 
1 50 
1 51 
1 52 
1 53 
1 54 
1 55 
1 56 
1 57 
1 58 
1 59 
1 60 
1 61 
1 62 
1 63 
1 64 
1 65 
1 66 
1 67 
1 68 
1 69 

POINT_DATA 70
FIELD FieldData 7
id 1 70 int
3960 1976 3525 5453 2121 2597 3877 2476 2824 
3395 2255 3155 2736 1373 3241 4669 2812 4092 
5429 5064 1779 3049 1744 4537 5129 4218 4774 
5469 4863 3766 661 4333 2909 728 5196 4215 
3936 2673 4044 3802 203 5493 597 3264 1593 
2154 2267 394 3303 3244 375 2539 3557 5477 
4415 467 5591 2172 717 1457 912 958 844 
1925 1174 3108 1428 54 934 3862 
type 1 70 int
2 2 2 2 2 2 2 2 2 
2 2 2 2 2 2 2 2 2 
2 2 2 2 2 2 2 2 2 
2 2 2 2 2 2 2 2 2 
2 2 2 2 2 2 2 2 2 
2 2 2 2 2 2 2 2 2 
2 2 2 2 2 2 2 2 2 
2 2 2 2 2 2 2 
i 3 70 int
0 0 0 0 0 0 0 0 0 
0 0 0 0 0 0 0 0 0 
0 0 0 0 0 0 0 0 0 
0 0 0 0 0 0 0 0 0 
0 0 0 0 0 0 0 0 0 
0 0 0 0 0 0 0 0 0 
0 0 0 0 0 0 0 0 0 
0 0 0 0 0 0 0 0 0 
0 0 0 0 0 0 0 0 0 
0 0 0 0 0 0 0 0 0 
0 0 0 0 0 0 0 0 0 
0 0 0 0 0 0 0 0 0 
0 0 0 0 0 0 0 0 0 
0 0 0 0 0 0 0 0 0 
0 0 0 0 0 0 0 0 0 
0 0 0 0 0 0 0 0 0 
0 0 0 0 0 0 0 0 0 
0 0 0 0 0 0 0 0 0 
0 0 0 0 0 0 0 0 0 
0 0 0 0 0 0 0 0 0 
0 0 0 0 0 0 0 0 0 
0 0 0 0 0 0 0 0 0 
0 0 0 0 0 0 0 0 0 
0 0 0 
v 3 70 double
-2.3907989684e-05 6.1460220373e-06 3.43164638e-05 -2.6301917616e-05 8.2749375406e-06 7.6774320555e-06 -1.7785064493e-05 1.2102611038e-05 -1.2381768057e-06 
-9.6152201394e-06 9.8878764572e-06 -6.0615535628e-07 -2.9974112462e-06 3.9095215054e-06 -8.1563454691e-07 2.2273021479e-05 -2.2289854143e-05 9.1194189285e-06 
-1.8921242454e-05 -1.8109088469e-06 2.9767463265e-05 -1.194692628e-05 1.3119221879e-06 8.1264210232e-06 -7.1004630561e-06 -8.1228273846e-06 2.1844036995e-05 
-1.0907026529e-05 2.5114842535e-06 -5.6672555336e-07 -3.6371685529e-07 2.3030268211e-05 -1.9471492837e-07 -1.4110992296e-05 7.3028287266e-06 -1.5669527661e-07 
1.9330348568e-06 -4.8985707219e-06 -1.3588024831e-05 -7.4588865607e-07 1.4220707983e-05 1.5556287685e-05 3.186841007e-05 -3.5439987787e-06 -2.342381325e-05 
7.6127382416e-06 3.6380993039e-05 2.3601911796e-05 -4.2476316281e-06 1.1414577149e-05 2.5419691047e-05 -8.5245471869e-06 -4.0300202516e-06 2.968773445e-05 
-3.575762836e-06 -1.3169389361e-05 2.149938541e-05 1.613830168e-05 -4.0058603941e-06 4.9935920503e-06 -4.7984088172e-06 -1.022688757e-05 1.7118233678e-05 
-1.1579221661e-05 -1.1555690137e-05 1.7265543708e-05 -1.7096016677e-05 -6.518261418e-06 -5.4949162062e-08 -2.9608935088e-05 -1.5052197352e-05 4.031468231e-06 
-2.196991845e-05 -7.1474439575e-06 5.0525181014e-06 -1.7089243465e-05 -2.9341744496e-06 -1.1410967417e-06 -3.210735794e-05 -3.5024413469e-06 -8.5294495838e-06 
9.7949192652e-07 -2.8270585172e-05 3.149768277e-05 1.819477446e-07 -2.4615483035e-05 5.0714037475e-05 7.7111469685e-06 -1.1738201092e-05 2.6920641402e-05 
1.5468882632e-05 -1.0312570138e-06 6.946790998e-06 6.2694991726e-07 -4.9638244022e-06 1.7215661431e-05 4.8702276086e-06 -1.1303592384e-05 1.6735377955e-05 
5.1386470163e-06 1.0804171732e-05 7.5443231922e-06 9.3565932522e-06 6.35008252e-06 2.4643486132e-05 8.9180082321e-06 -1.9071020759e-05 3.4471770403e-06 
-2.8041469852e-06 -4.3296998919e-06 8.7381602224e-06 -2.8307727733e-05 -1.391115003e-05 8.4530319975e-08 1.9458083301e-05 7.9347119994e-06 -2.2661904e-06 
3.0212964295e-05 8.8242182798e-06 1.9605589205e-05 -7.142416773e-06 3.354030199e-06 1.9202855323e-06 -2.8350378349e-05 -1.1217921088e-05 -1.459485479e-05 
2.5720697754e-05 2.3038775488e-06 -2.7983047419e-05 9.3757742334e-08 1.1255030355e-05 5.0579477434e-06 -6.6647541818e-06 -4.1181339284e-06 1.1003890304e-05 
1.0905154807e-07 -9.8432361004e-06 3.2322145172e-05 -4.7540753012e-06 -1.0247926081e-05 1.4715699901e-05 8.5109353722e-06 -4.6788995806e-06 1.4850436031e-05 
5.276473691e-05 3.4439765468e-07 1.2843237972e-05 -1.0340869939e-05 -1.4920331715e-05 2.3095655298e-05 4.6984011128e-06 -2.3582520585e-05 1.8681112798e-05 
3.5440961804e-05 -4.4093572296e-06 3.5789433125e-05 3.1300218438e-05 -1.8282858548e-05 1.4905740419e-05 3.8733515542e-05 -1.0325533205e-05 1.2627903198e-05 
8.632389041e-06 -4.0052965649e-06 -1.0276042443e-06 2.5639078857e-05 2.9332441455e-06 5.1099290178e-05 -1.7878621434e-05 -1.0680779993e-05 1.508344089e-05 
1.8652234363e-05 -1.053622476e-05 -2.7931780521e-05 1.5436097402e-05 9.9796743156e-06 6.1978298493e-05 -2.6212314814e-05 -1.6267177389e-05 -1.054211823e-05 
3.9838069576e-05 8.769420475e-07 2.6534854141e-05 -2.3446411795e-05 -1.9379470932e-05 -7.8811327349e-06 6.9247402525e-05 7.8391179914e-06 1.8855406538e-05 
-1.10214714e-05 -3.0687497559e-05 4.0026762371e-06 1.8833824038e-05 -4.4800240428e-06 2.5840793315e-05 -7.1803714524e-07 -2.0747233768e-06 -1.0127040431e-05 
2.7295702052e-05 8.1650613729e-06 -8.8090056744e-06 5.072858863e-06 -1.1984988626e-05 1.445756754e-05 2.2199202964e-05 -1.4682429496e-05 2.8223568602e-05 
-4.9027130931e-06 6.6475204375e-07 2.6224751176e-06 
f 3 70 double
-0.00016002752253 -0.00021769751923 -4.163984333e-05 -4.1219302178e-05 -7.9367974404e-05 -5.0220503564e-05 -2.7666747659e-06 7.3674989133e-05 -1.8345748927e-06 
-1.6501420949e-05 9.6127444225e-05 -2.1305467018e-05 8.1212051201e-05 0.00014107839547 -8.2755279862e-06 -0.00010174352254 8.2945707658e-05 -5.9554484668e-05 
-8.8215748678e-05 6.103524108e-05 -5.4151119124e-05 -9.1505160595e-05 3.4228815728e-05 6.2220418534e-05 -0.00012740105365 2.912715932e-05 7.2282123936e-05 
-6.3910373588e-05 4.575426381e-05 -8.9158957379e-08 -7.5530529397e-05 -1.306063558e-05 -9.9829008657e-06 -4.9635816744e-05 5.4342599033e-05 5.5994701064e-06 
-2.6797638355e-05 0.00011454806881 -2.2994153817e-05 2.0452296215e-05 5.5065295768e-05 -6.4536919567e-05 9.1921563617e-06 -6.9941601955e-06 -3.0413173943e-05 
4.9045444647e-05 -5.2764202483e-05 -6.7878149908e-05 3.7096096277e-05 0.00016031939811 -4.6207134286e-05 6.0534739821e-05 0.0001222721414 -6.3917567257e-05 
-4.7677181348e-05 0.00016022148013 -3.3542403226e-05 9.2313415553e-06 -0.00010673390533 -9.5819015997e-05 -1.9058932617e-05 -6.0358853744e-05 6.4734846177e-05 
-2.0517836698e-05 3.4113130411e-05 5.3455231603e-05 -2.4137412342e-07 -6.8523706307e-08 1.3043854432e-05 1.0676320735e-05 8.4949175016e-06 1.39062104e-05 
3.4078338925e-05 7.200930655e-05 9.9448076719e-06 0.00016443253024 -3.6122223802e-05 -0.00013461700982 -0.00011405735404 0.00013323129008 4.090724778e-05 
-4.2315618897e-07 4.4070579838e-05 -1.1824697793e-05 7.7626191162e-05 -0.00031616735963 -6.5320396987e-05 -1.5914422648e-05 0.00018176922476 -2.4549300389e-05 
-4.2410043233e-05 0.00014523173222 -0.00029339437067 6.6086020591e-05 -2.7738924961e-05 -7.6777538512e-05 -1.6732894681e-05 -3.8231403236e-05 0.00015551283709 
-6.9852755088e-05 -0.00022108013802 -3.1229935374e-06 5.7004688036e-05 -0.00010690075036 -0.00023602743482 1.9429855939e-05 1.8122500197e-05 -6.2852535067e-06 
8.7606402388e-05 5.0328967891e-05 -2.9521487393e-05 4.6237198928e-05 2.2940629552e-06 1.2105594925e-05 -3.7192894075e-05 4.0678990839e-05 0.0001204014598 
0.00015879435531 7.8805830696e-05 7.7023106011e-05 0.00012832714642 7.9568542366e-06 -4.5675977922e-05 -3.6288218355e-05 -2.2579264108e-05 -5.9392298831e-06 
-0.00029678567467 8.2132519324e-05 0.00027600895996 7.0191694218e-05 -9.3470346111e-06 -0.00010215048775 2.5565384509e-05 2.5026705184e-06 -1.3374705925e-05 
-8.8259166548e-05 -0.00019236568449 0.000268088469 4.0040550714e-05 -1.1099904969e-05 1.8409473027e-05 0.00017629909787 9.0151142707e-05 -2.9801883821e-05 
-1.5211092756e-05 0.00019717925845 -0.00021304758592 4.0344238436e-05 -6.8562853813e-05 7.2603368991e-05 8.7682432161e-06 -2.6025076374e-05 4.3418128136e-05 
8.3158339748e-05 4.2534986878e-05 -2.9133911475e-05 3.0733180957e-05 -3.4139063024e-05 1.3038362152e-05 -0.00011581543548 -6.7788884024e-05 8.9703081905e-05 
1.9789968314e-05 -1.1022144338e-05 4.2084565817e-05 -3.444662577e-05 6.9108683081e-06 -0.00015224307057 4.4601813446e-05 4.4156362079e-05 6.5291733705e-05 
-3.0709422319e-05 2.0475247682e-05 2.9096659065e-05 0.0001456578863 7.5422102395e-05 0.00012562980712 5.6880166875e-05 4.4741841383e-05 4.5436162679e-05 
-5.5283203816e-05 -0.0001028481492 -6.4264820462e-05 -6.9796359627e-06 2.3596718674e-05 -2.8458228179e-05 -4.8376186172e-05 7.1378066988e-05 -1.0944637748e-05 
-3.7150904705e-05 8.8278633318e-05 1.4192970845e-06 4.4268114461e-05 5.5642018671e-05 0.00014884789026 3.270517726e-05 -6.2126887261e-06 4.1094346702e-05 
0.00010323063339 2.7456575752e-05 7.9293054526e-06 -2.8775968497e-06 -7.8225660347e-05 1.194213265e-05 5.406959082e-05 4.0467739508e-05 0.00011829729323 
-5.9539854876e-06 -7.1575920053e-05 1.956327915e-05 
radius 1 70 double
0.003 0.003 0.003 0.003 0.003 0.003 0.003 0.003 0.003 
0.003 0.003 0.003 0.003 0.003 0.003 0.003 0.003 0.003 
0.003 0.003 0.003 0.003 0.003 0.003 0.003 0.003 0.003 
0.003 0.003 0.003 0.003 0.003 0.003 0.003 0.003 0.003 
0.003 0.003 0.003 0.003 0.003 0.003 0.003 0.003 0.003 
0.003 0.003 0.003 0.003 0.003 0.003 0.003 0.003 0.003 
0.003 0.003 0.003 0.003 0.003 0.003 0.003 0.003 0.003 
0.003 0.003 0.003 0.003 0.003 0.003 0.003 
omega 3 70 double
0.00067380373383 0.0019416885878 -0.0010313178806 -0.0012383145903 0.00039153940573 0.0002611970012 0.00055919790005 0.001214623503 -0.0001833466638 
-0.0051670232017 0.0048875739063 -0.0062799952561 -0.00073205645561 -0.001272974429 -0.00036838054242 -0.0010014927417 -0.00057506484711 0.0043546555967 
0.0002619861026 0.0012565014689 0.00021661357165 0.00062167880182 0.00089314151837 0.00018703875783 -0.0048294346889 -0.00061707060665 -0.0044567929148 
2.6213759656e-05 0.0022271191743 0.0009470174779 -0.0028460770506 0.0089800469651 -0.00040303813611 0.00060362588088 -0.0016491435429 -8.9708568162e-05 
-0.0051504589155 0.0047906718435 0.00010477015057 0.0030270039734 -0.00073578687081 -0.0011313967453 0.0086098155808 0.0073061878799 0.0023611565804 
0.0029213772838 0.0010984521641 0.0014516969727 -0.00042056916424 -1.8502201987e-05 0.00074307456254 -0.0003836369283 0.0036791783298 0.00053277527537 
0.01352561497 0.0068628138605 0.0035881249973 -0.0011470339402 -0.0066288617273 -5.3055317284e-06 -0.0009635761125 0.00072692643046 0.0019155350584 
0.0014267255519 0.00042932278315 0.00074638965157 0.004283274557 -5.4985555601e-05 0.0012317831828 0.0006007040227 -0.0016441269609 -0.002020742178 
-0.0010091761816 -0.00066114074309 0.0010653145579 -0.00063642455105 7.5029883287e-05 -0.00022971986488 0.0013898854202 0.0044050723235 -0.0012175860966 
0.0010165318922 -0.0023248683161 0.0012390654677 0.0014776782794 0.00031724944885 0.0015060947964 -0.0010162406949 -4.9622885891e-06 0.00053607638623 
0.0026777206043 -0.00083169540724 -0.0011125152135 0.0016360401423 0.0011870342375 -0.001245363752 0.0010960852308 -0.0013702954893 -0.0012387502283 
0.00097555386924 -0.001750180524 -0.0027719001256 0.0036912651714 -0.0014834746941 -0.00019190826416 0.0011134041126 0.0017872847949 -0.00088505136915 
0.0003737437903 0.0027595671446 -0.0019038196929 0.0015212892278 0.0016154113713 0.0016008300835 0.0022699282778 1.386004399e-05 -0.0011530513507 
0.0026027637535 0.0026925821417 0.0043332435118 -0.0006520991368 0.0020370880186 -0.00044537827456 0.0021705168079 -0.00038251394182 0.0018183798998 
-0.00056734924902 0.0042856057339 -0.0027926514749 -0.0006578948065 0.00014172230779 -0.0011418958851 0.00022194635331 0.00066303418867 -0.00097025641869 
0.0022820736188 0.0058597306169 -0.00099183218198 0.00058281354175 -0.00087267547123 -0.00086924457661 0.0023477334959 0.00065917348002 -0.00087316835655 
0.0054367719075 -0.0037312897519 0.0032175090816 0.00078712246736 -0.00049601139221 2.5015058468e-05 0.00065358965135 -0.00014900670577 -1.9449430702e-06 
0.0019604578596 1.0177040125e-05 0.0052569440319 -0.00053454892554 0.00059676725948 -0.00063211850275 0.00041820171517 0.00088287472543 0.00010912351922 
0.00025669261514 -0.0018667870076 0.00022528278644 0.0014162013965 0.00066251898333 -0.00082690193289 -6.0344251751e-05 0.0048821747722 -0.0035772781743 
0.00016312899176 0.0013426037374 0.00045175708733 -0.0042813692958 0.001892955732 0.0037385756491 -2.4537044347e-05 0.00052581046519 -0.00041594873876 
-4.3720059477e-06 0.0035112650495 0.0019994533002 0.0010770060292 0.00017926814357 -0.00095928418006 -0.0017195678603 0.00046442191964 0.0035966061973 
0.0024452082342 -2.0671654619e-05 -0.0019037981486 -0.0027516950076 0.0018155160686 0.0019102626437 -0.0022560471202 -0.00042751905178 9.5303086244e-05 
-0.0034668946402 -0.00084955615295 0.0014335014493 0.00059496236562 -0.00051361227254 -0.00012325654374 -0.00061871234235 0.0038380639279 0.00063790850693 
-0.0032120816941 -0.001833088256 -0.0014662077106 
