# vtk DataFile Version 4.2
Generated by LIGGGHTS
ASCII
DATASET POLYDATA
POINTS 70 float
-0.00490683 -0.0309545 0.0213752 0.00435007 -0.0296168 0.0217765 0.0162881 -0.029355 0.0262518 
-0.00504437 -0.0190327 0.0263321 0.00455152 0.0251437 0.0244466 0.0137086 0.0243529 0.0221509 
-0.000369505 -0.0262453 0.0337035 -0.0107883 -0.0204177 0.0275765 0.0340759 -0.00378687 0.0288758 
0.017081 0.00686577 0.0292391 0.0291036 0.0120444 0.0266307 -0.0211858 0.0220159 0.029359 
0.0130645 0.0239805 0.0319202 0.00268048 0.0322434 0.0319873 -0.0160482 0.0369924 0.0275168 
0.0019751 -0.0371013 0.0361772 0.0052027 -0.0310535 0.0413661 -0.00491115 -0.0255739 0.0428344 
-0.00492389 -0.013255 0.0382032 0.0156409 -0.0133436 0.0417304 -0.0186388 -0.00729298 0.0373159 
0.00825272 -0.00557421 0.0423548 -0.00131329 0.0098731 0.0384328 -0.0323911 0.0169188 0.0409679 
0.0050875 0.0163382 0.0392566 0.00433272 0.0222424 0.0405932 -0.0102003 0.0427394 0.0410435 
0.0153634 -0.0379094 0.0451691 0.0170861 -0.0309627 0.0480568 0.0176263 -0.0368524 0.0518522 
0.0235282 -0.033437 0.0443161 0.0281308 -0.0337175 0.0481688 0.0125909 -0.0281859 0.0511584 
0.0285748 -0.0283531 0.045357 0.0332782 -0.0246308 0.045769 -0.0169657 -0.0165709 0.0446597 
0.0203299 -0.0195212 0.047966 0.0220167 -0.0131797 0.0464368 0.024055 -0.0163469 0.0515998 
0.0140352 -0.00443996 0.0434888 -0.0259811 -0.00395214 0.0433654 0.0238576 0.00287041 0.04672 
-3.50313e-05 0.00783304 0.0479116 0.0178327 0.0114024 0.0467499 -0.0236868 0.0197949 0.042781 
-0.0163138 0.0145275 0.0459491 -0.0378414 0.0222986 0.0466583 -0.0320252 0.0241016 0.0457709 
-0.0108227 0.0279324 0.0475463 -0.00235313 0.0255251 0.0429014 0.0209649 0.0215175 0.045692 
-0.0320414 0.0299757 0.0442329 -0.0183809 0.0342808 0.045603 -0.0171479 0.0404358 0.0463232 
0.0178118 -0.0364715 0.0582124 -0.0126353 -0.0225159 0.0558639 -0.00102486 -0.0249661 0.0542957 
-0.0244767 -0.0197236 0.0529598 -0.0171033 -0.0184905 0.0571665 0.0294623 -0.0159254 0.0545164 
-0.0253469 -0.0117959 0.0552129 -0.0276927 -0.00623858 0.0560947 -0.00426013 -0.00496255 0.0534856 
0.0323029 -0.00682656 0.058574 -0.0133047 0.000145745 0.056207 0.0010067 -0.00222677 0.0546309 
0.00972685 -0.00379031 0.0529468 0.0340701 -0.00399629 0.0535151 -0.0122737 0.0173362 0.0531097 
-0.00887991 -0.0171852 0.0608256 
VERTICES 70 140
1 0 
1 1 
1 2 
1 3 
1 4 
1 5 
1 6 
1 7 
1 8 
1 9 
1 10 
1 11 
1 12 
1 13 
1 14 
1 15 
1 16 
1 17 
1 18 
1 19 
1 20 
1 21 
1 22 
1 23 
1 24 
1 25 
1 26 
1 27 
1 28 
1 29 
1 30 
1 31 
1 32 
1 33 
1 34 
1 35 
1 36 
1 37 
1 38 
1 39 
1 40 
1 41 
1 42 
1 43 
1 44 
1 45 
1 46 
1 47 
1 48 
1 49 
1 50 
1 51 
1 52 
1 53 
1 54 
1 55 
1 56 
1 57 
1 58 
1 59 
1 60 
1 61 
1 62 
1 63 
1 64 
1 65 
1 66 
1 67 
1 68 
1 69 

POINT_DATA 70
FIELD FieldData 7
id 1 70 int
4044 3264 1593 3936 3557 5477 5493 203 4415 
1174 2172 1373 5591 4215 4092 4218 4537 5129 
2673 958 1779 1925 934 5469 2539 3303 2597 
1976 2255 3960 5453 2121 3155 2736 3241 3049 
2267 3244 4333 3108 3802 1428 844 467 2154 
394 3766 4863 728 5196 717 4669 2812 5429 
3525 2476 4774 5064 3877 2909 2824 597 1744 
375 912 1457 3862 54 661 3395 
type 1 70 int
2 2 2 2 2 2 2 2 2 
2 2 2 2 2 2 2 2 2 
2 2 2 2 2 2 2 2 2 
2 2 2 2 2 2 2 2 2 
2 2 2 2 2 2 2 2 2 
2 2 2 2 2 2 2 2 2 
2 2 2 2 2 2 2 2 2 
2 2 2 2 2 2 2 
i 3 70 int
0 0 0 0 0 0 0 0 0 
0 0 0 0 0 0 0 0 0 
0 0 0 0 0 0 0 0 0 
0 0 0 0 0 0 0 0 0 
0 0 0 0 0 0 0 0 0 
0 0 0 0 0 0 0 0 0 
0 0 0 0 0 0 0 0 0 
0 0 0 0 0 0 0 0 0 
0 0 0 0 0 0 0 0 0 
0 0 0 0 0 0 0 0 0 
0 0 0 0 0 0 0 0 0 
0 0 0 0 0 0 0 0 0 
0 0 0 0 0 0 0 0 0 
0 0 0 0 0 0 0 0 0 
0 0 0 0 0 0 0 0 0 
0 0 0 0 0 0 0 0 0 
0 0 0 0 0 0 0 0 0 
0 0 0 0 0 0 0 0 0 
0 0 0 0 0 0 0 0 0 
0 0 0 0 0 0 0 0 0 
0 0 0 0 0 0 0 0 0 
0 0 0 0 0 0 0 0 0 
0 0 0 0 0 0 0 0 0 
0 0 0 
v 3 70 double
0.0011847402296 -0.031017672544 -0.25349406011 -0.0051933197642 -0.035695063032 -0.27446713058 -0.038901761802 -0.036737916068 -0.22789925666 
-0.0018359391989 -0.04982844045 -0.25055448568 -4.579650298e-07 -0.051396292038 -0.34697317021 0.010497080754 -0.069083120347 -0.33781677741 
-0.022190553056 -0.034031525147 -0.21441535761 6.6978749197e-05 -0.067718983704 -0.26318367272 -0.0045772558689 -0.086331880558 -0.27649960661 
-0.00077260854949 -0.068340404942 -0.29691035126 0.020908526012 -0.074053405168 -0.31963871474 -0.037731276484 -0.07233141709 -0.38316926867 
-0.014572168897 -0.034526123115 -0.33538405534 -0.02887451518 -0.014720561067 -0.3585630095 -0.038670487966 -0.035397228495 -0.42381595858 
-0.037082604204 -0.02138735479 -0.18682007209 -0.044191704249 -0.028660641705 -0.16742407209 -0.033871472973 -0.028564908025 -0.18954751128 
-0.0068187458454 -0.041698392681 -0.23559430896 -0.023740229791 -0.052543110287 -0.2239784474 -0.011012457239 -0.05091717173 -0.26596742155 
-0.039387266827 -0.060952560273 -0.24582195977 -0.024542618189 -0.0560486647 -0.31293309655 -0.036839353004 -0.075438581305 -0.36619625391 
-0.027332292657 -0.042410767155 -0.33426167557 -0.034336777251 -0.035550655755 -0.36327614009 -0.095275623342 -0.025633391318 -0.39023348937 
-0.057462757265 -0.028695518005 -0.13768562046 -0.051052124708 -0.032941401175 -0.15820690125 -0.046677286039 -0.030978398204 -0.12906189259 
-0.045383334269 -0.044060593525 -0.1589222505 -0.053335081494 -0.039023933761 -0.1463543072 -0.043567706971 -0.019621496289 -0.14388482887 
-0.048731132775 -0.056176300163 -0.17403985333 -0.046790789826 -0.053452061158 -0.18423894115 -0.02459825283 -0.026172306236 -0.20828436783 
-0.045399056064 -0.048453919789 -0.19694764012 -0.042183808285 -0.052072734444 -0.21294882351 -0.032705196656 -0.044578214238 -0.19052563885 
-0.038716279175 -0.053783598271 -0.26868841903 -0.010153768645 -0.045730141812 -0.24880085924 -0.002413274577 -0.055669793214 -0.36025173506 
-0.096720239679 -0.051577495901 -0.29408494492 -0.024042758714 -0.036752938058 -0.33438711212 -0.046959650627 -0.068684542841 -0.38626432748 
-0.043995397937 -0.053553543835 -0.33187007709 -0.056354223866 -0.089699802343 -0.3571270272 -0.063172901985 -0.083222118555 -0.38798852301 
-0.10953524905 -0.046373785235 -0.39444568681 -0.076994335097 -0.040462608593 -0.36541483932 -0.017051477327 -0.018796082661 -0.37150265377 
-0.087197649427 -0.092703911966 -0.4201223587 -0.098880904454 -0.044098012585 -0.43377956365 -0.11133877166 -0.045418646574 -0.42324844339 
-0.031599565754 -0.023342974678 -0.11476224288 -0.047121741824 -0.02229825929 -0.15388619367 -0.032061888942 -0.041492350128 -0.1446803415 
-0.031784563308 -0.0067187095332 -0.17424894957 -0.050206182575 -0.035867711223 -0.14534544276 -0.036031117946 -0.054673405751 -0.21384212611 
-0.038360210246 -0.039475074646 -0.18273565157 -0.040406370322 -0.056060621644 -0.18432283953 -0.075478568817 -0.070129980762 -0.22789347457 
-0.0032688015784 -0.061633492514 -0.27653107814 -0.045602069962 -0.060051582974 -0.24370115445 -0.069155310873 -0.04028760668 -0.27195700159 
-0.059352787566 -0.061607563893 -0.24545396849 -0.026468472435 -0.061961692392 -0.30734529444 -0.064110123759 -0.055606856223 -0.32772067802 
-0.063480993951 -0.047724072262 -0.16115688956 
f 3 70 double
0 0 -0.0085430334339 0.00043872444828 0.0007199153745 -0.0089993085526 0 0 -0.0085430334339 
0 0 -0.0085430334339 0 0 -0.0085430334339 0 0 -0.0085430334339 
0.011430911161 0.00011603835466 -0.0086315954012 0 0 -0.0085430334339 0 0 -0.0085430334339 
0 0 -0.0085430334339 0 0 -0.0085430334339 0 0 -0.0085430334339 
0 0 -0.0085430334339 0 0 -0.0085430334339 0 0 -0.0085430334339 
0.00084963406841 -0.00038101466585 -0.0084542338134 0 0 -0.0085430334339 0 0 -0.0085430334339 
0 0 -0.0085430334339 0 0 -0.0085430334339 0 0 -0.0085430334339 
0 0 -0.0085430334339 0.015282148678 0.0015606599314 -0.013089722304 0 0 -0.0085430334339 
0 0 -0.0085430334339 0.0018841379497 -0.0037897842065 -0.013549566935 0 0 -0.0085430334339 
0 0 -0.0085430334339 0 0 -0.0085430334339 0 0 -0.0085430334339 
0 0 -0.0085430334339 0 0 -0.0085430334339 0 0 -0.0085430334339 
-0.00054382707714 0.0017187310653 -0.0087230040568 0 0 -0.0085430334339 0.012950143974 0.037230451133 0.011385010113 
0 0 -0.0085430334339 0 0 -0.0085430334339 0 0 -0.0085430334339 
0 0 -0.0085430334339 0.0022875863315 0.013037726721 -0.0022967763287 0 0 -0.0085430334339 
0 0 -0.0085430334339 0 0 -0.0085430334339 0 0 -0.0085430334339 
0 0 -0.0085430334339 0 0 -0.0085430334339 0 0 -0.0085430334339 
0 0 -0.0085430334339 0 0 -0.0085430334339 0 0 -0.0085430334339 
0 0 -0.0085430334339 0 0 -0.0085430334339 0 0 -0.0085430334339 
0 0 -0.0085430334339 0.017311576321 0.042682167367 0.00062115811022 0 0 -0.0085430334339 
0 0 -0.0085430334339 0 0 -0.0085430334339 0 0 -0.0085430334339 
0 0 -0.0085430334339 0 0 -0.0085430334339 0 0 -0.0085430334339 
0 0 -0.0085430334339 0 0 -0.0085430334339 0 0 -0.0085430334339 
0 0 -0.0085430334339 0 0 -0.0085430334339 0 0 -0.0085430334339 
0 0 -0.0085430334339 
radius 1 70 double
0.003 0.003 0.003 0.003 0.003 0.003 0.003 0.003 0.003 
0.003 0.003 0.003 0.003 0.003 0.003 0.003 0.003 0.003 
0.003 0.003 0.003 0.003 0.003 0.003 0.003 0.003 0.003 
0.003 0.003 0.003 0.003 0.003 0.003 0.003 0.003 0.003 
0.003 0.003 0.003 0.003 0.003 0.003 0.003 0.003 0.003 
0.003 0.003 0.003 0.003 0.003 0.003 0.003 0.003 0.003 
0.003 0.003 0.003 0.003 0.003 0.003 0.003 0.003 0.003 
0.003 0.003 0.003 0.003 0.003 0.003 0.003 
omega 3 70 double
1.2502881099 3.0159372981 2.31051554 -4.2530246883 -2.8309035457 0.5471294333 -8.0729857869 1.1472968513 -2.9336933771 
-2.3171922689 -5.2820086336 -0.22170472062 0.49133108349 -1.134755119 3.2830568029 -4.0122540619 -1.2915022971 -0.6788988477 
-4.771534177 -4.616114918 -5.884522154 -4.0172805337 0.24938805235 0.99369982137 -2.2619307695 -0.8118697805 -1.0511333993 
-2.9077430114 -1.4440638142 0.23934901423 -3.8414160205 -1.6729355616 -0.81127376749 -1.8297462709 -3.378436321 -0.23314055352 
-0.99901992753 -1.1136307345 0.91927891252 0.5084957088 -4.2844148269 2.904040595 -0.17952167956 -4.6775675843 0.50681883799 
-6.0350032878 -1.4151081224 0.66992575583 -2.4686511286 -3.0212060782 1.3319325351 -3.1760651938 0.57465272952 -0.094293668246 
-4.6348503443 -2.3826952974 -0.804313563 -3.8281650575 -0.38216203074 -2.9074291353 -1.3655961571 -0.14603872759 -1.5204908331 
-6.2652397965 0.15038782987 1.7339527536 -0.5561342515 -0.41126055859 1.8453276926 -3.4759500056 0.33912941539 2.7101442693 
-5.3557401855 -0.77874747095 -0.61209013438 -1.8315236892 -1.8188223988 0.19759791631 3.5932852396 -9.269500233 1.3534322063 
2.162007992 3.5946966804 0.1936951681 -5.706215334 3.5819181775 -3.2133765746 -1.3157189654 0.95196459831 -1.4609320788 
-1.7698389284 -1.9877151001 -3.20398123 -3.5526277355 -1.8123071378 -1.1514859955 -0.96663333088 -1.1097037324 -2.6561678952 
0.0033574657786 1.0961239047 -1.0872993314 -1.8456079128 0.98025589938 -1.0116509543 -1.9172403117 -1.220860705 -2.1251766707 
-1.2639232767 -0.87772216563 0.76737345568 -4.5631518136 1.5620401964 0.016352239213 -0.74027989325 1.3719436907 -0.1593382631 
0.10966155809 -0.20766327361 1.7748146774 -0.21725447735 -3.3608998611 -2.6687524293 -3.5165180918 -2.3897533418 -6.2751777703 
3.3460193824 -4.6371297024 -3.91327749 -0.4880617457 3.0408395195 -2.6709410376 -4.3576608469 -3.244237592 3.6769862405 
-6.847918644 -9.0440250449 -2.4685368267 -5.806942946 7.1451200861 0.90751770049 -0.55582008403 0.15945617402 1.0857424458 
2.1399223529 1.8215190833 1.2641279481 -0.30579462678 -7.5673715735 2.6921922132 0.85891581538 1.3492919548 0.68340337176 
6.1676258811 -3.3107473686 3.3930877202 -0.4654720295 4.1564922741 0.097479933479 0.64526876479 1.2101830545 2.1417134971 
0.99630533349 5.4555136935 -0.14278904511 0.24198160216 0.25120494805 2.9991978141 0.75236127899 -1.7605775521 0.43744762795 
-5.7132403055 -1.7725733237 -0.27452778487 -2.887081783 5.6394327684 -2.1463681267 -3.4610892205 -3.8262305652 -2.9246340124 
-0.52411702316 3.7638464869 2.7586392743 -1.5843558907 -0.44376363176 -5.5022913167 -0.50568730229 -2.8433814709 0.59835351545 
-6.1495039845 6.9873450107 5.6475331423 -5.1250838265 5.4487318755 6.5331793569 -4.9805723102 -0.76146727482 -7.1941398432 
-3.6794541529 5.7844972035 4.5354613614 3.0970795989 0.46164043393 1.2626953401 -3.2933790541 4.2465843257 7.7081212038 
5.1981726659 -2.107683805 -2.6816470435 
