# vtk DataFile Version 4.2
Generated by LIGGGHTS
ASCII
DATASET POLYDATA
POINTS 70 float
0.00415463 -0.0398914 0.00499925 0.00189331 -0.0127272 0.00918618 0.0161664 -0.00511959 0.00499963 
-0.0288731 0.000683811 0.00499951 -0.00627622 -0.00307519 0.00840947 -0.00173169 -0.00115005 0.00499867 
-0.00954385 0.0115412 0.00499923 0.00596364 0.0067348 0.00499935 0.034077 0.00940817 0.00942642 
-0.0244976 0.0129951 0.00499909 -0.00413071 0.0187455 0.00499898 -0.0271457 0.0228517 0.01022 
0.00848483 0.0222272 0.00737971 0.0327017 0.0237786 0.00499893 -0.0158004 0.0300754 0.00499936 
0.0104887 0.0321007 0.00810017 0.0193373 0.0303733 0.00744596 -0.0120432 -0.0345829 0.018388 
0.0180697 -0.0197106 0.0181489 0.0357457 -0.0185345 0.0178799 0.031029 -0.00345836 0.0187753 
0.00221154 0.011842 0.0116273 -0.0318749 0.0152471 0.0189962 0.0274982 0.0234341 0.0175247 
0.00626411 -0.0387443 0.0202854 0.0222686 -0.0233558 0.0262158 -0.0203187 -0.0151885 0.021603 
0.00678314 -0.0144132 0.0242332 0.0249597 -0.0106361 0.0227673 0.011572 -0.00156322 0.0247216 
0.0176547 -0.00338256 0.0199045 0.0254961 -0.00154088 0.0263904 -0.0305904 0.0071055 0.0246424 
0.00935547 0.00965154 0.0251507 0.0275189 0.00990879 0.0261827 -0.00030817 0.0141261 0.0236588 
0.0125088 0.0175187 0.0272189 0.00184313 0.0281875 0.0214579 0.0228226 0.0375984 0.0195493 
-0.0145585 -0.0310339 0.032851 -0.010359 -0.0324735 0.0287771 0.016791 -0.0311122 0.0346448 
0.0263484 -0.0317271 0.0280191 -0.0418205 -0.0136199 0.0322057 -0.00841226 -0.0153001 0.0317959 
0.0200132 -0.0163744 0.0317398 0.00855048 -0.00731594 0.0353744 -0.0170789 0.00802935 0.0292565 
0.035766 0.00753715 0.0279136 -0.00440421 0.0223088 0.0280027 0.0131928 0.0212309 0.0318824 
-0.0275159 0.0323081 0.0333748 -0.00252421 0.0405105 0.0293863 -0.00337847 -0.0208856 0.0400041 
-0.0125358 -0.0166588 0.0424125 0.00325235 -0.0159539 0.0365206 0.0263872 -0.0175727 0.0382567 
-0.0319993 -0.00926989 0.0411704 -0.0143467 -0.00758229 0.0433045 -0.00847361 -0.00787378 0.0421132 
-0.0249206 0.00132678 0.03753 -0.026906 -0.00358547 0.0443499 -0.00458335 0.0105025 0.0433803 
0.0210925 0.00651766 0.0360969 -0.00420116 0.0197373 0.0439462 -0.0130053 0.0259172 0.0402099 
0.0192862 0.0319925 0.0364117 0.000513984 -0.0272944 0.0448254 0.0256082 -0.00272952 0.0448913 
-0.0121959 0.0308987 0.0466202 
VERTICES 70 140
1 0 
1 1 
1 2 
1 3 
1 4 
1 5 
1 6 
1 7 
1 8 
1 9 
1 10 
1 11 
1 12 
1 13 
1 14 
1 15 
1 16 
1 17 
1 18 
1 19 
1 20 
1 21 
1 22 
1 23 
1 24 
1 25 
1 26 
1 27 
1 28 
1 29 
1 30 
1 31 
1 32 
1 33 
1 34 
1 35 
1 36 
1 37 
1 38 
1 39 
1 40 
1 41 
1 42 
1 43 
1 44 
1 45 
1 46 
1 47 
1 48 
1 49 
1 50 
1 51 
1 52 
1 53 
1 54 
1 55 
1 56 
1 57 
1 58 
1 59 
1 60 
1 61 
1 62 
1 63 
1 64 
1 65 
1 66 
1 67 
1 68 
1 69 

POINT_DATA 70
FIELD FieldData 7
id 1 70 int
203 1744 375 597 1457 912 661 54 958 
394 467 1373 717 1174 728 934 844 1779 
1976 1593 2267 1428 2154 1925 2673 3155 2824 
2476 2255 2736 2121 2909 2812 3525 3244 2597 
3108 2539 2172 3802 3049 3936 3264 3766 3877 
3960 4218 3395 3241 3303 3862 4092 3557 4774 
5469 4537 4044 4863 5064 5129 4669 5429 5196 
4333 5591 4215 4415 5493 5453 5477 
type 1 70 int
2 2 2 2 2 2 2 2 2 
2 2 2 2 2 2 2 2 2 
2 2 2 2 2 2 2 2 2 
2 2 2 2 2 2 2 2 2 
2 2 2 2 2 2 2 2 2 
2 2 2 2 2 2 2 2 2 
2 2 2 2 2 2 2 2 2 
2 2 2 2 2 2 2 
i 3 70 int
0 0 0 0 0 0 0 0 0 
0 0 0 0 0 0 0 0 0 
0 0 0 0 0 0 0 0 0 
0 0 0 0 0 0 0 0 0 
0 0 0 0 0 0 0 0 0 
0 0 0 0 0 0 0 0 0 
0 0 0 0 0 0 0 0 0 
0 0 0 0 0 0 0 0 0 
0 0 0 0 0 0 0 0 0 
0 0 0 0 0 0 0 0 0 
0 0 0 0 0 0 0 0 0 
0 0 0 0 0 0 0 0 0 
0 0 0 0 0 0 0 0 0 
0 0 0 0 0 0 0 0 0 
0 0 0 0 0 0 0 0 0 
0 0 0 0 0 0 0 0 0 
0 0 0 0 0 0 0 0 0 
0 0 0 0 0 0 0 0 0 
0 0 0 0 0 0 0 0 0 
0 0 0 0 0 0 0 0 0 
0 0 0 0 0 0 0 0 0 
0 0 0 0 0 0 0 0 0 
0 0 0 0 0 0 0 0 0 
0 0 0 
v 3 70 double
2.2843030621e-06 -8.0139307808e-07 -2.0340011578e-06 -1.204347146e-07 -1.0086407094e-06 7.5761285405e-07 -3.1855979351e-06 1.6033754067e-06 -1.5637780219e-06 
-2.3271588424e-07 -6.2565468631e-08 -5.6294956104e-07 -1.9236876216e-07 -2.6072482847e-07 -1.7366646751e-07 5.3153120246e-07 3.5230392446e-07 6.3346242202e-08 
-3.1675764816e-07 1.8818211853e-06 9.6934986763e-07 3.2739308796e-07 -5.909184718e-07 -5.6989664638e-07 1.8353354835e-07 2.4999051212e-07 5.5596348405e-07 
-1.723162612e-06 -2.4546624265e-06 2.6677718421e-06 -4.1031602928e-06 1.1113510629e-06 4.3815081909e-06 -7.5232292242e-07 2.8338152576e-06 -7.0287662457e-07 
-1.0708913524e-06 8.9845829725e-07 7.8481578938e-07 -5.2978632676e-08 -1.1818585487e-07 2.6404649475e-07 -2.4661448826e-06 1.564697016e-06 -2.2389428662e-06 
-7.7993201708e-07 -5.97217333e-07 1.6899365588e-07 1.7588571256e-07 -9.7458249928e-08 4.7995601173e-07 -5.3914276621e-07 4.2326111481e-07 -5.4880409161e-08 
-1.2643682152e-06 6.3660650154e-07 2.9336405724e-07 1.2416175355e-06 1.1396434876e-06 2.3613550739e-06 -1.9707869641e-09 4.4341726419e-07 -7.7816801039e-07 
-6.9272174996e-08 8.0898271534e-07 3.3290205623e-07 -5.8754336279e-08 -5.3162696456e-07 -2.9848421472e-07 -8.7695180815e-08 -4.3171573083e-07 -9.9881985747e-08 
1.5323348293e-06 2.3982674052e-06 -2.6084457916e-08 -4.5362720854e-07 -1.5569075786e-07 -1.8030362963e-07 7.3295156908e-08 -2.6019730608e-08 -1.7135851014e-07 
-1.4369704779e-06 -4.2644919278e-07 -3.5843036638e-07 4.9180015432e-07 -2.6101767725e-07 1.7095398306e-07 -4.0800896075e-07 -8.3190276545e-07 -4.3210607886e-07 
6.88043267e-07 4.1468333265e-07 9.7561970834e-07 4.7667779e-07 2.4584194443e-07 3.9349259251e-07 6.3067046396e-07 1.4574291825e-07 -1.1615214936e-07 
-8.5371881676e-07 7.8054844513e-07 5.3625507473e-08 -5.7900864394e-07 2.0194530566e-07 1.318302988e-06 -3.574741912e-08 7.1883977281e-07 4.8881506953e-07 
1.4891846708e-06 -5.6299171613e-08 -5.9341734886e-07 2.1197145536e-07 6.9391154076e-07 -9.0529759633e-08 3.4335289586e-08 2.3120727698e-07 -2.4839314128e-07 
-1.6046918377e-08 5.879134271e-08 -1.3437177711e-07 1.2482922438e-07 4.1199278101e-07 3.0011737222e-07 -1.0437324371e-07 -8.9580821224e-08 -3.7136814744e-07 
-2.1497783862e-06 -2.7024495668e-07 -1.3380065597e-06 -2.1603812111e-07 1.4574252963e-07 -1.8379972256e-07 -5.5018293612e-08 1.6934492207e-07 9.6454323526e-08 
-6.6788888299e-08 -2.1405280888e-08 -5.6237102231e-08 2.1143016916e-07 2.1060097399e-07 -1.9792163188e-08 -2.9126805677e-07 2.9549344358e-08 5.4157445933e-07 
5.3570611697e-07 1.8857673306e-07 8.7304197555e-08 3.3542058122e-08 2.1900546055e-07 -1.9685018773e-07 -5.6302207631e-07 -4.8688584278e-08 5.4591902321e-09 
2.5179189545e-07 9.9110108805e-09 -1.8127546865e-07 -1.3119019853e-07 -5.4915441595e-07 -2.4985144137e-07 -1.6721885046e-07 -3.3572770588e-08 2.5345459854e-07 
-4.4012280217e-07 -2.7588892239e-08 -2.0874542298e-07 -1.8557615221e-07 1.6636915708e-08 2.4381063689e-07 -1.2337715796e-07 -3.0912466783e-07 -2.0811261788e-07 
1.1967232115e-07 -5.757063262e-08 -2.7912725155e-07 7.6562941005e-08 -1.843991942e-07 -1.6159082337e-07 1.4355128462e-07 -2.9416515621e-08 1.2316547974e-07 
1.955055297e-07 2.933928594e-07 -4.6789560566e-07 -2.9020314486e-08 -1.0012339199e-07 -2.0524838488e-07 1.9810990976e-08 2.2942773543e-07 -1.7844807756e-07 
-3.4298675493e-08 1.1272331516e-07 -7.0272825958e-08 -4.953278221e-07 2.420039773e-08 2.1561393081e-07 -7.1960187984e-08 -1.952748474e-09 3.8862637503e-08 
-1.1578437765e-07 9.1133251063e-08 2.9402299421e-07 8.2471364639e-09 -7.9293093326e-08 -5.6970008045e-08 7.1408811084e-08 5.3677276815e-08 2.0851541485e-08 
-6.7870639468e-08 -1.665570395e-07 -6.2411395211e-08 
f 3 70 double
3.7595362373e-05 1.4870871529e-05 0.00013856829088 3.8680480811e-05 -6.2337733643e-06 -9.0025970697e-06 -3.1489776141e-05 -7.7298371787e-06 -2.7939598418e-06 
-1.143655832e-05 1.0690925226e-05 -1.9820859954e-05 -2.8925740848e-05 -2.1655621925e-05 3.1964260391e-05 -2.2871481378e-05 3.16046602e-05 2.5718243985e-05 
8.6772825663e-06 -4.8673821128e-05 5.2909578361e-05 -2.8794983222e-05 -1.270105702e-05 4.83089582e-05 4.9481880337e-06 -1.1690299693e-05 -6.7894862743e-05 
8.599426852e-06 -8.7696469061e-06 9.5883507905e-05 -8.0091610539e-05 -6.6666680729e-05 -9.870582583e-05 8.6558676981e-05 3.9455736863e-05 4.2359818405e-05 
-7.5146235273e-05 0.00011320354113 5.8021105732e-05 -0.00011048366171 -3.8716291431e-05 2.6990782775e-05 -9.1572268235e-05 4.9021289306e-05 0.0001045842547 
-0.00011387756196 -0.00011639767592 7.027004599e-06 -9.1966919589e-06 3.1597421852e-05 -7.4219194928e-05 3.5588954739e-05 -3.4119804147e-05 -6.0841845092e-06 
3.9829953595e-05 2.9285257293e-05 5.2371394507e-05 -1.309264162e-05 2.0267594763e-06 1.3741891964e-05 1.0164641372e-05 -5.3499500237e-06 -2.0779468979e-05 
1.5491357511e-05 2.0193704595e-05 -6.7552290428e-06 6.2265122432e-05 5.2889156357e-05 2.2589564188e-05 1.0594040446e-05 -1.8692014517e-06 -1.2880304368e-05 
6.8913966156e-06 1.5770441148e-05 4.7852813056e-05 4.1460354308e-05 -3.3447757773e-06 -3.9240036322e-06 6.4362899437e-06 1.9029530825e-05 3.8971171052e-06 
3.8664513527e-06 -2.583069286e-05 2.3291536674e-05 -3.113665076e-06 1.4430546133e-05 -6.7588138043e-05 -9.1363858971e-06 1.3402896599e-05 1.5996856552e-05 
5.3609693364e-05 -1.870147288e-05 -2.93391175e-05 5.1025836596e-05 7.6641836038e-06 1.1876362194e-05 -4.9123684955e-05 8.8490478763e-07 -1.9074636535e-05 
7.1083961619e-05 -3.6744129725e-05 2.0683783178e-05 -4.7021768823e-05 2.0712005799e-06 -4.3992510905e-06 -4.2906966488e-05 4.5388705853e-07 3.4768430224e-05 
-9.7025034455e-05 -1.6002159262e-05 -1.4914204635e-05 -2.7968195615e-05 1.6479943524e-05 1.5711691036e-06 2.7318387402e-05 1.5461648422e-05 -1.935207142e-05 
2.5954680888e-05 -3.6261695646e-05 2.8293708998e-05 3.7291383924e-05 -8.9380179131e-06 -1.2691875984e-05 1.2044754948e-06 -2.1073158414e-05 -1.3869668997e-05 
1.9925118951e-05 -3.8381712414e-05 4.6188550959e-05 1.7860672295e-05 3.0310979333e-05 -8.0859029034e-06 4.808243844e-06 -1.4459831637e-05 -6.6622220649e-06 
2.5432941568e-07 1.3481247992e-05 -2.3912624625e-05 -7.2466029286e-06 -1.5974551759e-05 2.2908378518e-05 -4.5756982512e-05 -4.7464221623e-06 2.3597802426e-05 
2.3317211218e-05 8.8092656651e-06 -3.8449882127e-05 2.8332986562e-05 -4.0901452385e-05 1.7276166263e-06 1.6151724099e-05 -1.5504490332e-05 -1.6865486303e-05 
1.8244674954e-05 -3.5767189236e-05 6.975979659e-06 8.9145635868e-06 2.8749132295e-05 -2.7484095414e-05 -9.5734717432e-06 -9.1215995863e-06 -1.8600133828e-05 
2.1914500371e-06 -7.528036524e-06 -5.194301614e-06 3.0987912531e-06 -2.4253625163e-06 -3.0257064503e-07 1.5388673473e-05 2.6676951656e-06 2.9586513466e-05 
-1.1959797649e-05 -6.3293272108e-06 1.5238849411e-06 8.1442737367e-06 -8.8527951756e-06 -1.3291639521e-05 -1.6922017137e-06 -9.0954109107e-06 1.2618316565e-05 
-5.0416066529e-06 3.1202553753e-06 -1.3676610187e-05 7.210531656e-06 1.5110355322e-06 -4.4409383406e-06 1.7207251061e-06 -7.1864969039e-06 1.3312555736e-06 
-2.8060102007e-05 9.6758541013e-06 5.0021090809e-06 -1.5901012515e-05 -5.020086148e-07 6.007244626e-06 -1.4348821344e-05 -3.3649415601e-06 9.5940934466e-06 
-1.643101327e-05 -9.9596813768e-06 1.2207993704e-05 -7.6954472555e-06 -1.3207331678e-06 2.9735334907e-06 -3.0741642938e-06 -1.0642110433e-05 -2.072475249e-06 
-6.7233421102e-07 -5.3238864471e-06 1.9927749812e-06 
radius 1 70 double
0.003 0.003 0.003 0.003 0.003 0.003 0.003 0.003 0.003 
0.003 0.003 0.003 0.003 0.003 0.003 0.003 0.003 0.003 
0.003 0.003 0.003 0.003 0.003 0.003 0.003 0.003 0.003 
0.003 0.003 0.003 0.003 0.003 0.003 0.003 0.003 0.003 
0.003 0.003 0.003 0.003 0.003 0.003 0.003 0.003 0.003 
0.003 0.003 0.003 0.003 0.003 0.003 0.003 0.003 0.003 
0.003 0.003 0.003 0.003 0.003 0.003 0.003 0.003 0.003 
0.003 0.003 0.003 0.003 0.003 0.003 0.003 
omega 3 70 double
-0.00058896067744 8.6971116377e-05 3.3007499206e-05 -0.00083944375108 -0.00040985882008 -0.0011332617051 0.00088796212491 0.0015830270643 -0.00094787867543 
-8.5310263359e-05 -0.00019863233196 0.0001263136611 9.6130351729e-05 2.0517852386e-05 -7.0775945248e-05 -0.00013527294816 9.8700586784e-05 1.0116480331e-05 
0.00014566153695 0.00072802451715 -0.00052420206012 -0.00011937572437 0.00015690862783 3.990071118e-05 0.00016281348103 -6.4851100925e-05 0.00043480188797 
-0.00020602749473 8.0221490624e-06 -0.00054031118471 -0.00040696909051 -0.00012083229916 0.0010574127222 0.0014518352732 0.0018067046916 0.002377776646 
0.00046939894132 0.0012467619106 -0.00053363624201 -0.0001684257766 0.00011901540591 -0.00010164142079 8.4896624762e-05 -0.00032009634601 -0.0027871857984 
9.1769644417e-05 0.00061506022935 -0.00020673604434 -8.9613485238e-05 0.00012819990297 8.7420523259e-05 8.4764299445e-05 7.7022813799e-05 -0.00025772208445 
3.8327173067e-05 -0.00053824895828 -0.00015250283233 0.00066545300677 0.00020966403838 0.00065887343991 0.00016869051613 9.6942395162e-05 2.2596939877e-05 
-0.00047313539501 -4.0751132008e-05 -2.4807432687e-05 0.00064267384665 5.0304822077e-05 0.00021877403268 -0.00012296862305 0.00019266392479 0.00014233767379 
0.00084272193562 0.00030706375535 0.0023749544787 0.00024905913531 -0.00016568244577 9.2340860603e-05 -0.00011299217556 -3.5751285714e-05 7.7635048692e-05 
0.00038155855005 -0.0010210313845 -0.00057041269504 -0.00015441962377 3.2353254108e-05 5.7696961659e-05 -6.8882602227e-05 -0.00017674126503 -0.00017661607985 
-0.00041377607974 -0.00036409032464 -0.00021332212179 -4.3633108764e-05 -0.00011517064191 -0.00016663094221 -0.00010365979708 0.00010928078229 -0.00017889304595 
-0.00066228843833 -0.00022870213038 0.00074945830765 0.00049376321829 0.00061138511198 0.00056301490398 0.0008161833251 0.000470373366 -9.3290396099e-05 
0.00015414112624 0.00035080678365 0.0011578809884 0.00013712455717 0.00049793527058 -0.00033963461258 -0.00034866085155 -0.00011615281487 0.00015763968077 
2.2238411651e-05 -5.7761404955e-05 3.4895185472e-05 6.9738190417e-07 -0.00013091822845 9.6107450034e-06 -0.00066015003524 -0.00016338946766 0.00088357329407 
0.002002753763 -0.00043324427082 -0.0022496116707 -0.00046102083695 0.00019264578023 0.0001600614241 -9.6033809143e-05 2.1162384898e-05 0.00010269290646 
0.00026399973619 2.2250104784e-05 -0.00012900762272 0.0002883287085 0.00013113503856 -0.00012390510492 -0.00031746895855 0.00038526441368 5.5548780852e-05 
-6.323095352e-05 -6.9768750678e-05 -0.00028560441234 0.00040090764016 5.1022801702e-05 -0.00010276700563 0.00021195652432 -0.00011133563123 5.4133620998e-05 
-3.4786057826e-05 0.00010003019245 0.00035825821149 0.00013857411796 -7.8615825857e-05 -0.00014012048792 -3.543511632e-05 -0.00014267090755 4.8877014676e-05 
-3.1824205484e-05 -7.7699174945e-05 -0.00026964163427 -0.00018019832172 -3.2906340647e-05 0.00012008823276 -0.00013618817837 -6.1600627914e-05 -4.2869493726e-05 
0.00011731790068 0.00030013929999 0.00019038489958 -0.00011714606023 -0.00033139161323 -7.7901524964e-05 1.1205963384e-05 -0.00015510245349 1.5943953065e-05 
4.9170965729e-06 0.00028752406398 7.4834318079e-05 0.00027146502789 -3.6404158176e-05 0.00012586080235 -4.3626589899e-05 -5.6167649225e-05 3.6737817482e-05 
0.00024657063589 6.1944829416e-05 6.2449580082e-05 -3.4536263148e-05 0.00017613079534 0.00023510761042 3.0587533635e-05 0.00015343222436 5.2512190861e-05 
0.00021301377087 2.838404975e-05 -0.0001696595425 0.00027817181565 -8.7657785041e-05 1.6835444587e-05 1.4185927271e-05 -6.6935704324e-05 3.3359453489e-05 
-0.00013104365457 6.9197685233e-05 5.7194025992e-05 
