# vtk DataFile Version 4.2
Generated by LIGGGHTS
ASCII
DATASET POLYDATA
POINTS 70 float
0.000290635 -0.0302801 0.0251011 0.0122041 0.0107772 0.0275438 0.0113323 0.0277572 0.0248523 
0.00858303 -0.030952 0.0278267 0.0167502 -0.0317269 0.0352336 -0.0160892 -0.0221106 0.0329882 
0.000699545 -0.0247794 0.0282446 0.0194196 -0.0278858 0.0312243 0.0285194 -0.0162795 0.0322486 
0.020234 0.00135502 0.0293912 0.0255001 -0.00380931 0.0354174 0.0400112 0.000242332 0.0337183 
-0.0183839 0.00477186 0.0338963 -0.0259446 0.0152677 0.0313576 -0.00111479 0.0198658 0.0281237 
0.0285748 0.0278759 0.0280067 -0.00427882 0.0340768 0.0340228 0.018644 0.0358683 0.0295621 
-0.0151143 -0.027943 0.0432107 0.00173033 -0.0286806 0.0404302 -0.0162731 -0.00517477 0.0439527 
0.0226 -0.00582457 0.0444341 0.0285198 0.002005 0.0434147 -0.0266887 0.00832836 0.0371505 
-0.0115633 0.0118723 0.0430092 0.0239896 0.00814388 0.0382799 0.00584953 0.0140375 0.0374164 
0.0198717 0.0164802 0.0365378 0.0145277 0.0180347 0.0407717 0.00202397 0.0229304 0.0425051 
-0.0228196 0.034012 0.037997 -0.00217664 0.0371804 0.0417821 -0.0238564 -0.0227031 0.046816 
-0.0140481 -0.0233728 0.0517488 0.00972352 -0.0224502 0.0504968 -0.0206659 -0.0158927 0.0522963 
-0.00842594 -0.0190598 0.0529203 0.0156596 -0.0175457 0.0449534 0.0205378 -0.0144753 0.0470875 
-0.0363762 -0.00801303 0.045874 -0.00721296 -0.00468052 0.0480524 0.0386905 -0.0110547 0.0465239 
-0.0439192 0.00210496 0.0454752 -0.00882706 0.000536075 0.045038 0.00360811 0.00143529 0.0460487 
0.00947499 -0.000588531 0.0448719 0.0366018 -0.00284031 0.0457965 -0.0285345 0.0086132 0.0496845 
-0.0102458 0.00646819 0.0456338 0.00373064 0.00670755 0.0525433 0.00484181 0.0115247 0.047988 
0.0277853 0.00785352 0.0445698 -0.0377328 0.0150103 0.050222 -0.0337473 0.0154639 0.0454227 
0.00386081 0.0320947 0.0520188 0.00337586 -0.0294517 0.0578835 0.0131259 -0.024655 0.0554039 
-0.0146574 -0.0177453 0.0537454 0.017911 -0.0134699 0.0557134 -0.0157656 -0.00862253 0.0548011 
-0.0104678 -0.0061789 0.0564543 -0.00243124 -0.0118421 0.0560345 0.020569 -0.00765979 0.0540636 
0.0235581 -0.00416936 0.0580465 -0.0432013 0.0080447 0.0551849 -0.00389912 0.00794964 0.0542288 
-0.0308526 0.0198899 0.0577575 -0.00905075 0.0265282 0.0566248 -0.00341235 0.0209395 0.0540359 
0.00360692 0.0210353 0.0544498 
VERTICES 70 140
1 0 
1 1 
1 2 
1 3 
1 4 
1 5 
1 6 
1 7 
1 8 
1 9 
1 10 
1 11 
1 12 
1 13 
1 14 
1 15 
1 16 
1 17 
1 18 
1 19 
1 20 
1 21 
1 22 
1 23 
1 24 
1 25 
1 26 
1 27 
1 28 
1 29 
1 30 
1 31 
1 32 
1 33 
1 34 
1 35 
1 36 
1 37 
1 38 
1 39 
1 40 
1 41 
1 42 
1 43 
1 44 
1 45 
1 46 
1 47 
1 48 
1 49 
1 50 
1 51 
1 52 
1 53 
1 54 
1 55 
1 56 
1 57 
1 58 
1 59 
1 60 
1 61 
1 62 
1 63 
1 64 
1 65 
1 66 
1 67 
1 68 
1 69 

POINT_DATA 70
FIELD FieldData 7
id 1 70 int
203 1925 1174 3936 4044 1779 2673 3264 1593 
958 2267 3241 394 1373 934 4415 3557 2172 
3049 5493 597 2255 2909 2154 728 3244 844 
3108 3862 2539 4092 5477 3802 3877 4537 2824 
4774 3155 3960 5469 1457 5453 3766 912 54 
375 2736 2812 661 1428 717 4333 4669 5429 
5591 5129 4218 5064 1976 3395 1744 2476 3525 
2121 4863 467 2597 4215 5196 3303 
type 1 70 int
2 2 2 2 2 2 2 2 2 
2 2 2 2 2 2 2 2 2 
2 2 2 2 2 2 2 2 2 
2 2 2 2 2 2 2 2 2 
2 2 2 2 2 2 2 2 2 
2 2 2 2 2 2 2 2 2 
2 2 2 2 2 2 2 2 2 
2 2 2 2 2 2 2 
i 3 70 int
0 0 0 0 0 0 0 0 0 
0 0 0 0 0 0 0 0 0 
0 0 0 0 0 0 0 0 0 
0 0 0 0 0 0 0 0 0 
0 0 0 0 0 0 0 0 0 
0 0 0 0 0 0 0 0 0 
0 0 0 0 0 0 0 0 0 
0 0 0 0 0 0 0 0 0 
0 0 0 0 0 0 0 0 0 
0 0 0 0 0 0 0 0 0 
0 0 0 0 0 0 0 0 0 
0 0 0 0 0 0 0 0 0 
0 0 0 0 0 0 0 0 0 
0 0 0 0 0 0 0 0 0 
0 0 0 0 0 0 0 0 0 
0 0 0 0 0 0 0 0 0 
0 0 0 0 0 0 0 0 0 
0 0 0 0 0 0 0 0 0 
0 0 0 0 0 0 0 0 0 
0 0 0 0 0 0 0 0 0 
0 0 0 0 0 0 0 0 0 
0 0 0 0 0 0 0 0 0 
0 0 0 0 0 0 0 0 0 
0 0 0 
v 3 70 double
-0.071390058606 -0.028536168962 0.16162968129 -0.043506940074 -0.058806784342 0.054359678236 -0.04945224185 -0.035800347102 0.057130689634 
-0.071103565767 -0.059959226104 0.16774383642 -0.083190167959 -0.056586212497 0.16298469278 -0.039884606909 -0.0051859929149 0.16380700594 
-0.07069177433 -0.05211184527 0.15950089157 -0.084987668549 -0.061550604125 0.14639822339 -0.063669447328 -0.087455845785 0.11959730007 
-0.027556850473 -0.075467859529 0.069681453044 -0.03624088225 -0.060025265599 0.03678625173 0.0070536534987 -0.077353201594 0.015624170485 
-0.058398678463 -0.057314822611 0.13440884549 -0.052541127852 -0.057555611633 0.14741155639 -0.068568789337 -0.06601798719 0.047338006423 
-0.016012298787 -0.010375666197 0.035985204992 -0.084573011155 -0.026517349051 0.025606749043 -0.040803679745 -0.013542507358 0.02098625523 
-0.032074494803 0.0032118438142 0.21077579444 -0.060444063349 -0.036126707935 0.20981308128 -0.053247868657 -0.042541321992 0.17008635307 
-0.04165783403 -0.10146894527 0.026266422892 -0.020023245167 -0.037442789906 -0.0050996781602 -0.037901652602 -0.049135870238 0.16655527854 
-0.074532600604 -0.048129220715 0.10021599447 -0.026719021969 -0.050229876334 0.017344398237 -0.074904859206 -0.046692112263 0.03138896847 
-0.01792048826 -0.044174870755 0.0045027049503 -0.043917518071 -0.04789122016 0.00034869955084 -0.061506711561 -0.040096704343 0.019811359889 
-0.078019199232 -0.054442282078 0.11897268741 -0.058011439451 -0.019195896346 -0.0072345131129 -0.047176183439 -0.016858978274 0.24644434778 
-0.059710122621 -0.016298919463 0.23199234661 -0.055988223655 -0.070704118111 0.18509508748 -0.042203682152 -0.046227566666 0.23483274117 
-0.063897116278 -0.053632969339 0.20261113196 -0.074677893553 -0.066130349958 0.12729583396 -0.054673551035 -0.07319882859 0.11893273623 
-0.006721983799 -0.024023869359 0.23299512998 -0.077729852325 -0.067038485283 0.15031457192 -0.043625641783 -0.10001940013 0.034892923349 
-0.0077769262963 -0.022027882879 0.2433798173 -0.091069428057 -0.076280296008 0.13276608274 -0.089306293583 -0.068477620434 0.070249138782 
-0.08834749943 -0.05314591154 0.065765200481 0.0023648507816 -0.08256990436 -0.014729217854 -0.027716018107 -0.050714948582 0.21765984689 
-0.083148458701 -0.060138519377 0.10490379389 -0.11440387223 -0.088034117463 0.036243258632 -0.082700339947 -0.058535134029 0.019035442652 
-0.031302258999 -0.04349694909 0.0078477658046 -0.020430558715 -0.062947220379 0.24586589134 -0.027211978101 -0.056910809394 0.22610064395 
-0.036808571517 -0.021742808904 -0.012970592053 -0.062914550359 -0.036641257733 0.24691308208 -0.0313477981 -0.0124025844 0.22073660651 
-0.062004453024 -0.031497218136 0.25796813425 -0.070406714365 -0.049342006731 0.11453133448 -0.065717434563 -0.023050624756 0.19704826027 
-0.092057780927 -0.042626279537 0.18734880869 -0.067150771239 -0.039671693521 0.17268348842 -0.072211661641 -0.054064291548 0.021593530201 
-0.040217887392 -0.078959481868 0.018288982551 -0.011021901432 -0.050564058483 0.28947840299 -0.071226949825 -0.066426352587 0.07069991652 
-0.018327442579 -0.052349555724 0.23826993706 -0.054354480624 -0.049986153335 0.034077894727 -0.063611111479 -0.033042158584 0.055653377724 
-0.080405288604 -0.035897898143 0.024015092152 
f 3 70 double
-0.010003332084 -0.0083138821589 -0.017008149445 0 0 -0.0085430334339 0 0 -0.0085430334339 
-0.033109704279 -0.016649392546 -0.0083185728212 0.0032984279304 0.0098516467514 -0.0074678083105 -0.0051874686569 -0.019074663504 -0.0043189315282 
0 0 -0.0085430334339 -0.016050743334 0.038843939524 -0.0063254152139 0.0056145850851 0.00094717568792 -0.0058576476604 
0 0 -0.0085430334339 0 0 -0.0085430334339 0 0 -0.0085430334339 
0 0 -0.0085430334339 -0.0081510186103 0.0060167403285 -0.013246145023 0.0079911775024 0.00068929722277 -0.0058236568787 
0 0 -0.0085430334339 0 0 -0.0085430334339 0 0 -0.0085430334339 
0 0 -0.0085430334339 -0.061302812663 -0.032430902559 -0.013539231148 0 0 -0.0085430334339 
0 0 -0.0085430334339 0 0 -0.0085430334339 0 0 -0.0085430334339 
0 0 -0.0085430334339 0 0 -0.0085430334339 0.002683506948 0.0026018970005 -0.0074585759961 
0 0 -0.0085430334339 0 0 -0.0085430334339 0 0 -0.0085430334339 
0 0 -0.0085430334339 0 0 -0.0085430334339 0.0011562930497 -0.0049211119905 -0.006528460221 
0 0 -0.0085430334339 0 0 -0.0085430334339 0 0 -0.0085430334339 
0 0 -0.0085430334339 0 0 -0.0085430334339 0 0 -0.0085430334339 
0 0 -0.0085430334339 0 0 -0.0085430334339 0 0 -0.0085430334339 
0 0 -0.0085430334339 -0.050007098744 -0.006191084238 -0.05352904116 -6.4366210593e-06 1.1510424077e-05 -0.0085194937174 
0.0018369865415 0.0040604750576 -0.0019807500947 -0.031880091973 0.027234670171 0.026554258513 0 0 -0.0085430334339 
0 0 -0.0085430334339 0 0 -0.0085430334339 0.0039249228801 -0.0054371928218 0.0023844024084 
0 0 -0.0085430334339 0 0 -0.0085430334339 0.0024861465918 0.020740501572 -0.0045670377111 
0 0 -0.0085430334339 0 0 -0.0085430334339 0 0 -0.0085430334339 
-0.0011446252192 -0.017456579379 -0.013398804791 0 0 -0.0085430334339 0 0 -0.0085430334339 
0 0 -0.0085430334339 0 0 -0.0085430334339 0 0 -0.0085430334339 
-0.0071640045019 -0.36218657233 -0.38903253032 0 0 -0.0085430334339 0 0 -0.0085430334339 
0 0 -0.0085430334339 0.0029673016365 -0.013584988724 -0.0099153248899 0 0 -0.0085430334339 
0.011285572868 0.018987143067 0.018565633677 
radius 1 70 double
0.003 0.003 0.003 0.003 0.003 0.003 0.003 0.003 0.003 
0.003 0.003 0.003 0.003 0.003 0.003 0.003 0.003 0.003 
0.003 0.003 0.003 0.003 0.003 0.003 0.003 0.003 0.003 
0.003 0.003 0.003 0.003 0.003 0.003 0.003 0.003 0.003 
0.003 0.003 0.003 0.003 0.003 0.003 0.003 0.003 0.003 
0.003 0.003 0.003 0.003 0.003 0.003 0.003 0.003 0.003 
0.003 0.003 0.003 0.003 0.003 0.003 0.003 0.003 0.003 
0.003 0.003 0.003 0.003 0.003 0.003 0.003 
omega 3 70 double
-3.0080710915 -5.0507522455 -0.40626667909 -0.065764866221 -3.1586070648 -5.302548829 -7.3363248692 1.8292211192 1.8149900513 
-3.5807983051 1.3160823697 -0.79377769959 -3.0557421265 2.5830820962 -1.3262156558 -3.228926885 5.2035137393 0.31979587472 
-2.4595391731 -3.0946682884 -1.8405369883 -2.0868175618 1.8615346974 -0.2404191829 -5.9215759835 0.92909536952 -0.16245375674 
-1.1291785595 2.6362770952 -2.9848153292 -9.0660786413 3.0769349403 -2.4044863997 2.7693272713 -7.8736486005 0.04526258809 
-0.25082005135 3.0330160827 0.24282896098 -4.3419023105 5.4532781656 1.5102290586 -3.1646038832 -0.64322281893 -1.6327327626 
3.7139416141 4.2770719757 1.076430065 -2.0954961969 4.4113815305 -0.15117277894 -1.2690611308 0.26035638066 1.4705245878 
1.4240076832 -3.1075507628 3.202384094 -0.98682168866 1.8494548354 3.8692750647 -0.75487200324 -3.6585577357 6.0549871627 
7.4192539152 -12.663202881 2.4959175614 0.2035550726 1.5793886768 3.1160413559 0.74662843163 0.79014059697 -0.77174042554 
-0.78490193931 4.3355665744 -2.0615793144 -4.8033976756 3.2249158406 0.70773698626 -4.9323532997 4.6057280477 1.4542304003 
-1.747343634 0.0082113269285 6.0825353511 -4.3091606212 0.38660675151 0.23603222851 -2.2922687747 1.0485320864 1.2505994974 
-2.6622805006 6.7625314888 2.3445574933 -0.29190310333 2.6209724374 3.5925681166 -1.2322669171 -1.7005846506 4.7702852839 
5.3726518586 -6.258751698 0.14165042569 -2.5164266935 -1.687072934 1.3058352668 6.7765776571 1.0353414432 -6.890183123 
3.2058574497 5.1455285528 5.7377076715 -3.3754413513 2.9296411016 2.8981540135 -13.283134493 0.93332220322 3.6719533139 
-4.0335877852 -6.0044283286 -4.7490322388 -6.150270169 13.287460875 2.3862401947 -4.2464025367 2.9252709907 -6.7235592532 
-4.2447632759 4.0862672545 -2.3489792643 1.9369224421 -2.3862048337 -0.57693272789 -5.1839691367 2.2177799382 2.7922375125 
-0.58853607566 -6.3862462958 -0.05220265227 7.2592838996 -8.680792105 0.01962507932 -1.9256648622 1.6106808152 -3.7342805829 
-6.1649796206 1.8563560818 -0.036401029021 -0.61637443033 -1.8144954912 -1.1705248684 -0.39606301123 3.6464802096 -3.0892949514 
6.006646339 0.53421849698 -2.9859287008 -2.2370390998 -3.7880328021 0.69515374551 1.4495766394 2.0122842105 2.81431604 
3.0525319365 -4.7149498971 1.942595203 7.1095927937 7.4727927576 8.246124521 -6.1483835209 7.5897787813 -5.0233547519 
-1.0117722159 8.6600078026 4.2866476454 -10.157082548 16.880874185 -15.052560962 0.87233301071 4.7697462427 3.5934320072 
1.9819449588 -1.5466782073 4.5925316907 -3.9195342517 3.17442217 6.2465261752 -4.5185094997 -1.1294828907 -1.9629134981 
0.99103871877 8.4234556895 -8.0518934258 1.7994146969 8.6536700647 -1.6494027294 -1.4630961396 3.3065716599 3.9746990769 
-14.17389284 17.628445644 -7.6606850814 4.0520900904 -11.0911722 4.996722611 0.80953294664 -0.8463395359 -2.628913106 
-0.84967264822 -1.6122791931 10.485992182 
