# vtk DataFile Version 4.2
Generated by LIGGGHTS
ASCII
DATASET POLYDATA
POINTS 59 float
0.00173509 -0.0404055 0.00505375 0.0168817 -0.00523047 0.00509372 -0.0299281 -7.04141e-05 0.00502247 
-0.00209109 -0.000350325 0.00502639 -0.0258633 0.012353 0.00502938 -0.0100239 0.0107237 0.00500498 
0.00678845 0.00698343 0.00546963 0.0334278 0.00908879 0.0102483 -0.00511036 0.0186115 0.00537617 
0.00838809 0.02304 0.00827548 0.0317099 0.0251245 0.00654709 -0.0155695 0.0304094 0.00505091 
0.0099569 0.0334033 0.00812073 0.0183164 0.030817 0.00832142 -0.00515841 -0.00433889 0.0108719 
0.000814273 0.00980574 0.0161073 -0.0254342 0.0227514 0.0113653 0.000784227 -0.0149494 0.0447464 
0.0331797 -0.018099 0.0721375 -0.00925188 -0.0319368 0.0932255 0.0201509 0.0288728 0.0931521 
0.0214373 -0.0161755 0.104269 -0.0356495 0.0199209 0.153226 0.0198419 -0.00493767 0.170658 
0.0274665 -0.00501593 0.173213 -0.00248604 0.0233578 0.169938 0.0129764 -0.0260314 0.177351 
0.0243495 -0.00649304 0.195154 0.0213745 0.030091 0.194729 -0.0116851 -0.0124931 0.233031 
-0.0054804 -0.0144806 0.239009 0.019026 0.00371331 0.268308 0.00117739 0.0211471 0.278184 
-0.0311489 -0.000626488 0.281075 0.011475 -0.00407097 0.287276 -0.0025282 -0.00152031 0.409695 
-0.012421 -0.0197084 0.421283 -0.0118921 -0.0273841 0.326751 0.0328136 -0.0139687 0.329234 
0.0372165 0.000460761 0.325576 0.0133653 0.00490748 0.328912 0.0126621 0.00655247 0.335357 
-0.00308066 0.019225 0.333964 -0.00756831 0.0340756 0.334396 0.0219303 -0.0224468 0.355647 
0.028245 -0.00478234 0.347852 -0.00816961 0.0112297 0.363294 0.0131223 0.0138496 0.376272 
0.00948688 -0.0139426 0.387447 -0.0224227 0.0177428 0.382846 0.00125708 -0.0122452 0.396161 
-0.013383 -0.0180846 0.402677 -0.0186088 0.00191441 0.403553 0.0265513 -0.00214877 0.405401 
-0.0299167 0.000829194 0.412929 0.0140367 0.0155549 0.436709 0.0259174 -0.0168877 0.44642 
0.0203284 -0.0113525 0.454405 -0.0244636 0.0201726 0.480749 
VERTICES 59 118
1 0 
1 1 
1 2 
1 3 
1 4 
1 5 
1 6 
1 7 
1 8 
1 9 
1 10 
1 11 
1 12 
1 13 
1 14 
1 15 
1 16 
1 17 
1 18 
1 19 
1 20 
1 21 
1 22 
1 23 
1 24 
1 25 
1 26 
1 27 
1 28 
1 29 
1 30 
1 31 
1 32 
1 33 
1 34 
1 35 
1 36 
1 37 
1 38 
1 39 
1 40 
1 41 
1 42 
1 43 
1 44 
1 45 
1 46 
1 47 
1 48 
1 49 
1 50 
1 51 
1 52 
1 53 
1 54 
1 55 
1 56 
1 57 
1 58 

POINT_DATA 59
FIELD FieldData 7
id 1 59 int
203 375 597 912 394 661 54 958 467 
717 1174 728 934 844 1457 1428 1373 1744 
1593 1779 1925 1976 2154 2121 2267 2539 2673 
2255 2172 2824 2476 2909 2597 2812 2736 4537 
3877 3049 3155 3244 3525 3108 3303 3557 3264 
3241 3395 3862 3960 4092 4218 3802 4669 4333 
3766 4415 3936 4044 4215 
type 1 59 int
2 2 2 2 2 2 2 2 2 
2 2 2 2 2 2 2 2 2 
2 2 2 2 2 2 2 2 2 
2 2 2 2 2 2 2 2 2 
2 2 2 2 2 2 2 2 2 
2 2 2 2 2 2 2 2 2 
2 2 2 2 2 
i 3 59 int
0 0 0 0 0 0 0 0 0 
0 0 0 0 0 0 0 0 0 
0 0 0 0 0 0 0 0 0 
0 0 0 0 0 0 0 0 0 
0 0 0 0 0 0 0 0 0 
0 0 0 0 0 0 0 0 0 
0 0 0 0 0 0 0 0 0 
0 0 0 0 0 0 0 0 0 
0 0 0 0 0 0 0 0 0 
0 0 0 0 0 0 0 0 0 
0 0 0 0 0 0 0 0 0 
0 0 0 0 0 0 0 0 0 
0 0 0 0 0 0 0 0 0 
0 0 0 0 0 0 0 0 0 
0 0 0 0 0 0 0 0 0 
0 0 0 0 0 0 0 0 0 
0 0 0 0 0 0 0 0 0 
0 0 0 0 0 0 0 0 0 
0 0 0 0 0 0 0 0 0 
0 0 0 0 0 0 
v 3 59 double
-0.0083604207594 0.059668318666 0.022244228156 -0.04045948691 0.042426623984 0.053615093235 0.038411259426 0.0042202935279 0.022375380367 
0.013137858551 -0.039965383598 0.075992262206 0.02291448139 0.03538895442 -0.014093120136 0.054104948593 0.10400455138 0.0060023760697 
-0.045625860845 0.10599047549 -0.046181614761 0.095470384028 0.023577877639 0.028975792497 -0.024444687857 0.11277291959 0.061616413956 
0.032733336308 0.0037971073137 0.046423248215 -0.088504910017 -0.10047125249 -0.020728751596 0.034806441209 -0.018258993135 0.010903163734 
0.002916373152 0.040295876957 -0.0310084303 -0.044142257452 -0.0097151731039 -0.069449463528 -0.052256829161 0.056127059689 -0.057161648521 
-0.011922827866 0.10839039574 -0.036752112976 0.021477353776 -0.056571400931 0.020827457968 0.018433361337 0.044777526922 -2.6852604994 
0.053382811698 -0.080263718146 -2.4954205937 -0.068304894927 -0.065887330733 -2.4543141356 0.033582726169 -0.017726064907 -2.4460325347 
-0.039300478498 -0.030765754751 -2.4122744038 0.11129498094 -0.013815666583 -2.196051144 -0.074706825454 0.022895560096 -2.1846801263 
0.021225192562 0.062995545859 -2.1943379349 0.0028827833064 0.03258327181 -2.0958817173 -0.036954375915 -0.1554331719 -2.0965647158 
-0.027102251423 -0.10046309655 -2.114480814 -0.0071142626718 0.13436767942 -1.9530806715 -0.091729997392 0.0128578459 -1.8286570019 
0.027766826857 -0.057978723861 -1.7594628691 0.087146312671 -0.062510794231 -1.573673075 -0.013575368689 -0.096066901121 -1.5467157898 
-0.010107263895 0.022020728719 -1.5596297647 -0.016845750493 0.0092595195296 -1.5274273593 0 0 -0.20413565625 
0 0 -0.91352128125 -0.00027399422736 -0.03903879989 -1.3510004933 0.048134407629 -0.16842802124 -1.3255881729 
0.13960140349 0.040454187913 -1.2104947444 -0.055290835122 0.0068673254479 -1.2971681031 -0.061845215832 0.076762474641 -1.1203322131 
0.10091289423 0.0043429513859 -1.1343180904 0.071612544708 0.085015903505 -1.0607793424 0.010519774109 -0.13033737331 -0.82239454112 
0.045169426098 0.10006007991 -1.2071683241 -0.022009769349 -0.078036518657 -0.9602674057 0.019275107624 0.031420562652 -0.6271511888 
0 0 -0.82277878125 0.0029347052952 0.012741702594 -0.67258936142 0 0 -0.53890190625 
0 0 -1.0079425312 0 0 -0.05882503125 0 0 -0.42302128125 
0 0 -1.0508612812 0 0 -0.33534440625 0 0 -0.84730378125 
0 0 -0.73448878125 0 0 -0.54012815625 
f 3 59 double
0 0 -0.0085430334339 0 0 -0.0085430334339 0 0 -0.0085430334339 
0 0 -0.0085430334339 0 0 -0.0085430334339 0 0 -0.0085430334339 
0 0 -0.0085430334339 0 0 -0.0085430334339 -0.00053974425544 -0.0053747871544 -0.0051557012595 
0 0 -0.0085430334339 -0.27400365027 -0.54312049541 0.36105709708 0.005062735684 -0.014388417747 0.0020756265088 
-0.11749889878 -0.22350793683 0.11820538429 0 0 -0.0085430334339 0 0 -0.0085430334339 
0 0 -0.0085430334339 0 0 -0.0085430334339 0 0 -0.0085430334339 
0 0 -0.0085430334339 0 0 -0.0085430334339 0 0 -0.0085430334339 
0 0 -0.0085430334339 0 0 -0.0085430334339 0 0 -0.0085430334339 
0 0 -0.0085430334339 0 0 -0.0085430334339 0 0 -0.0085430334339 
0 0 -0.0085430334339 0 0 -0.0085430334339 0 0 -0.0085430334339 
0 0 -0.0085430334339 0 0 -0.0085430334339 0 0 -0.0085430334339 
0 0 -0.0085430334339 0 0 -0.0085430334339 0 0 -0.0085430334339 
0 0 -0.0085430334339 0 0 -0.0085430334339 0 0 -0.0085430334339 
0 0 -0.0085430334339 0 0 -0.0085430334339 0 0 -0.0085430334339 
0 0 -0.0085430334339 0 0 -0.0085430334339 0 0 -0.0085430334339 
0 0 -0.0085430334339 0 0 -0.0085430334339 0 0 -0.0085430334339 
0 0 -0.0085430334339 0 0 -0.0085430334339 0 0 -0.0085430334339 
0 0 -0.0085430334339 0 0 -0.0085430334339 0 0 -0.0085430334339 
0 0 -0.0085430334339 0 0 -0.0085430334339 0 0 -0.0085430334339 
0 0 -0.0085430334339 0 0 -0.0085430334339 
radius 1 59 double
0.003 0.003 0.003 0.003 0.003 0.003 0.003 0.003 0.003 
0.003 0.003 0.003 0.003 0.003 0.003 0.003 0.003 0.003 
0.003 0.003 0.003 0.003 0.003 0.003 0.003 0.003 0.003 
0.003 0.003 0.003 0.003 0.003 0.003 0.003 0.003 0.003 
0.003 0.003 0.003 0.003 0.003 0.003 0.003 0.003 0.003 
0.003 0.003 0.003 0.003 0.003 0.003 0.003 0.003 0.003 
0.003 0.003 0.003 0.003 0.003 
omega 3 59 double
-1.0050588631 -4.0462463704 0.94204172117 -8.5222366642 6.9238960558 23.759535255 -14.741007497 -5.8408354974 -3.6412177085 
0.099645335505 0.062111542793 -2.4209025625 -6.9516448106 -0.62157509974 12.069430918 -19.878259103 -22.652520487 13.265643155 
-2.2209696157 -7.9827288782 2.683879508 19.906829109 3.204582884 5.0317656055 -9.6325947389 -0.50904224322 -0.25422737214 
6.7132841934 3.2376073741 -18.013671858 8.1526156275 8.1528768391 8.5977295195 -20.392148491 -6.755911092 -10.913067247 
2.7157885633 -15.410160044 -1.2364013236 8.1380434007 1.0162105393 -39.554989556 -6.8754344344 6.2386303505 -18.343455609 
-0.33184466185 -11.651851367 30.804568243 -18.24925534 -13.236401573 -3.8645063865 -37.513925553 -0.024688919072 15.222180545 
15.517300348 11.42852426 -9.4021477416 -0.81177993131 -4.5977188963 7.0612933646 -13.927700952 3.2999596787 10.987461764 
-1.9779681346 -15.705818586 5.7859057414 -18.678638679 -14.482923681 -4.2158320975 7.8962759251 -6.28071225 13.065710277 
2.9910598447 31.915332652 14.293259476 -19.231886926 -1.323509207 11.095658949 -0.70406863011 15.960798047 -4.835164771 
27.595535512 -19.187337044 1.7485474332 -9.1752829402 2.6101268212 6.1743477708 5.8402796012 31.425785525 3.9490437253 
20.099963233 -8.4520585948 21.325863627 32.746396832 -23.652715121 3.0979517694 28.994414706 11.849879758 6.7301069113 
-17.826149488 11.667351244 3.1218294483 -8.4853636859 -19.640676889 -2.592142816 0 0 0 
0 0 0 15.368982918 19.241544147 -13.99832648 9.6891965929 -1.5461533341 -11.819403351 
22.684117177 15.867351838 -3.9561803296 -8.6832586088 27.464242065 -2.468944288 -26.129595836 -18.369888626 0.12599830536 
-6.0114906591 21.249708477 -3.0918603557 -27.035945045 7.2084398632 4.2278117977 25.521760699 32.837834311 -7.1442439417 
-23.818144412 -2.9229704985 0.1571201232 50.885504573 18.499945749 7.8722685866 -10.003150288 10.969807339 0.38328894596 
0 0 0 -6.5483041431 1.5082240934 -3.6250586162e-16 0 0 0 
0 0 0 0 0 0 0 0 0 
0 0 0 0 0 0 0 0 0 
0 0 0 0 0 0 
