# vtk DataFile Version 4.2
Generated by LIGGGHTS
ASCII
DATASET POLYDATA
POINTS 70 float
0.00415463 -0.0398914 0.00499925 0.00189331 -0.0127272 0.00918618 0.0161664 -0.00511958 0.00499963 
-0.0288731 0.000683811 0.00499951 -0.00627622 -0.00307519 0.00840947 -0.00173169 -0.00115005 0.00499867 
-0.00954385 0.0115412 0.00499923 0.00596364 0.0067348 0.00499935 0.034077 0.00940817 0.00942642 
-0.0244976 0.0129951 0.00499909 -0.00413072 0.0187455 0.00499898 -0.0271457 0.0228517 0.01022 
0.00848483 0.0222272 0.00737971 0.0327017 0.0237786 0.00499893 -0.0158004 0.0300754 0.00499936 
0.0104887 0.0321007 0.00810017 0.0193373 0.0303733 0.00744596 -0.0120432 -0.0345829 0.018388 
0.0180697 -0.0197106 0.0181489 0.0357457 -0.0185345 0.0178799 0.031029 -0.00345836 0.0187753 
0.00221154 0.011842 0.0116273 -0.0318749 0.0152471 0.0189962 0.0274982 0.0234341 0.0175247 
0.00626411 -0.0387443 0.0202854 0.0222686 -0.0233558 0.0262158 -0.0203187 -0.0151885 0.021603 
0.00678314 -0.0144132 0.0242332 0.0249597 -0.0106361 0.0227673 0.011572 -0.00156322 0.0247216 
0.0176547 -0.00338256 0.0199045 0.0254961 -0.00154088 0.0263904 -0.0305904 0.0071055 0.0246424 
0.00935547 0.00965154 0.0251507 0.0275189 0.00990879 0.0261827 -0.00030817 0.0141261 0.0236588 
0.0125088 0.0175187 0.0272189 0.00184313 0.0281875 0.0214579 0.0228226 0.0375984 0.0195493 
-0.0145585 -0.0310339 0.032851 -0.010359 -0.0324735 0.0287771 0.016791 -0.0311122 0.0346448 
0.0263484 -0.0317271 0.0280191 -0.0418205 -0.0136199 0.0322057 -0.00841226 -0.0153001 0.0317959 
0.0200132 -0.0163745 0.0317398 0.00855048 -0.00731594 0.0353744 -0.0170789 0.00802935 0.0292565 
0.035766 0.00753715 0.0279136 -0.00440421 0.0223088 0.0280027 0.0131928 0.0212309 0.0318824 
-0.0275159 0.0323081 0.0333748 -0.00252421 0.0405105 0.0293863 -0.00337847 -0.0208856 0.0400041 
-0.0125358 -0.0166588 0.0424125 0.00325235 -0.0159539 0.0365206 0.0263872 -0.0175727 0.0382567 
-0.0319993 -0.00926989 0.0411704 -0.0143467 -0.00758229 0.0433045 -0.0084736 -0.00787378 0.0421132 
-0.0249206 0.00132678 0.0375301 -0.026906 -0.00358547 0.0443499 -0.00458335 0.0105025 0.0433803 
0.0210925 0.00651766 0.0360969 -0.00420116 0.0197373 0.0439462 -0.0130053 0.0259172 0.0402099 
0.0192862 0.0319925 0.0364117 0.000513986 -0.0272944 0.0448254 0.0256082 -0.00272952 0.0448913 
-0.0121959 0.0308987 0.0466202 
VERTICES 70 140
1 0 
1 1 
1 2 
1 3 
1 4 
1 5 
1 6 
1 7 
1 8 
1 9 
1 10 
1 11 
1 12 
1 13 
1 14 
1 15 
1 16 
1 17 
1 18 
1 19 
1 20 
1 21 
1 22 
1 23 
1 24 
1 25 
1 26 
1 27 
1 28 
1 29 
1 30 
1 31 
1 32 
1 33 
1 34 
1 35 
1 36 
1 37 
1 38 
1 39 
1 40 
1 41 
1 42 
1 43 
1 44 
1 45 
1 46 
1 47 
1 48 
1 49 
1 50 
1 51 
1 52 
1 53 
1 54 
1 55 
1 56 
1 57 
1 58 
1 59 
1 60 
1 61 
1 62 
1 63 
1 64 
1 65 
1 66 
1 67 
1 68 
1 69 

POINT_DATA 70
FIELD FieldData 7
id 1 70 int
203 1744 375 597 1457 912 661 54 958 
394 467 1373 717 1174 728 934 844 1779 
1976 1593 2267 1428 2154 1925 2673 3155 2824 
2476 2255 2736 2121 2909 2812 3525 3244 2597 
3108 2539 2172 3802 3049 3936 3264 3766 3877 
3960 4218 3395 3241 3303 3862 4092 3557 4774 
5469 4537 4044 4863 5064 5129 4669 5429 5196 
4333 5591 4215 4415 5493 5453 5477 
type 1 70 int
2 2 2 2 2 2 2 2 2 
2 2 2 2 2 2 2 2 2 
2 2 2 2 2 2 2 2 2 
2 2 2 2 2 2 2 2 2 
2 2 2 2 2 2 2 2 2 
2 2 2 2 2 2 2 2 2 
2 2 2 2 2 2 2 2 2 
2 2 2 2 2 2 2 
i 3 70 int
0 0 0 0 0 0 0 0 0 
0 0 0 0 0 0 0 0 0 
0 0 0 0 0 0 0 0 0 
0 0 0 0 0 0 0 0 0 
0 0 0 0 0 0 0 0 0 
0 0 0 0 0 0 0 0 0 
0 0 0 0 0 0 0 0 0 
0 0 0 0 0 0 0 0 0 
0 0 0 0 0 0 0 0 0 
0 0 0 0 0 0 0 0 0 
0 0 0 0 0 0 0 0 0 
0 0 0 0 0 0 0 0 0 
0 0 0 0 0 0 0 0 0 
0 0 0 0 0 0 0 0 0 
0 0 0 0 0 0 0 0 0 
0 0 0 0 0 0 0 0 0 
0 0 0 0 0 0 0 0 0 
0 0 0 0 0 0 0 0 0 
0 0 0 0 0 0 0 0 0 
0 0 0 0 0 0 0 0 0 
0 0 0 0 0 0 0 0 0 
0 0 0 0 0 0 0 0 0 
0 0 0 0 0 0 0 0 0 
0 0 0 
v 3 70 double
-7.7010967205e-07 1.2845041692e-06 -1.8847670258e-06 -6.1677893159e-07 1.2760388884e-06 -1.920547507e-07 1.0780568591e-06 -1.7764169505e-06 1.9345306398e-06 
7.7678243851e-09 -1.8142726879e-07 -1.486961958e-07 4.1552365604e-07 -1.2284969128e-07 -6.5140789971e-08 2.5131891248e-07 -1.7426948652e-07 1.3338400657e-07 
-3.3449865058e-07 3.1800949159e-06 1.8527335242e-06 2.8685230954e-09 5.8515966273e-07 -2.040439912e-07 5.9638738302e-08 -9.6681185637e-07 -3.8171527932e-07 
-1.1153945756e-06 -1.7213193387e-06 6.5649019669e-07 1.7782820453e-06 2.6215134717e-06 5.4894673575e-06 -2.6986698741e-07 5.6637590697e-07 -2.8839061033e-06 
-5.1028450961e-07 -5.1844483103e-07 1.0675167948e-06 3.8050550728e-07 -1.4958994272e-09 -1.5512298731e-07 3.6694363348e-06 -2.4020575973e-06 -6.8002327095e-06 
5.7943054399e-07 1.5707999943e-06 1.4864278164e-06 -3.3765973736e-07 -1.5281332284e-07 6.8224711644e-08 -6.0261953485e-07 1.7054767124e-07 7.1633626049e-07 
-3.0223372217e-07 -1.7279368284e-07 -1.261546039e-06 -4.8728082398e-07 -1.6831408123e-07 -6.3173343671e-07 2.36373426e-07 -7.2466057786e-07 7.1784665795e-07 
-6.415945986e-07 5.9077002447e-07 1.8122080474e-08 -2.288290827e-07 -8.3831500628e-07 -2.5865622072e-07 1.3374259182e-07 6.0917051865e-07 8.7801027665e-08 
1.7719944285e-06 -2.3879364567e-06 -2.9842309313e-06 3.6951784219e-07 3.7846248196e-07 1.876440378e-07 5.5405718658e-08 -1.0896513436e-07 -5.3917734255e-08 
5.4810288201e-07 -4.5567057939e-08 -2.9709429719e-09 -9.7411277241e-07 2.9185350971e-07 -8.9398940073e-07 1.0580926932e-07 2.3562638241e-07 1.0226244721e-06 
-7.8669143244e-07 -6.7076923141e-07 -2.1352997471e-07 -3.5862258209e-07 -1.6839818269e-07 -3.6742718448e-07 8.5285172357e-07 1.1635464534e-08 2.8173066207e-07 
-1.934658984e-07 -2.4150982291e-08 4.5324900238e-08 8.3256147196e-08 -5.625533475e-07 3.0386332762e-07 -2.8654818659e-07 8.2713155545e-08 1.4374081346e-07 
-9.045384216e-07 1.6041445908e-07 5.48729608e-09 6.5001908938e-07 -4.4968083159e-08 -1.0907933851e-07 1.4218617807e-07 -5.3692079334e-07 2.3068019615e-07 
5.0015895168e-08 3.3945055993e-08 -2.309200764e-07 1.2223120277e-07 -1.2909499804e-07 2.0888375955e-08 5.3404165939e-07 1.7520724534e-07 3.317357696e-07 
-1.763726867e-06 1.9526094017e-06 -4.18012946e-07 5.3406608108e-07 -3.9932777362e-07 1.8627561921e-07 -8.227554312e-08 1.3871065654e-07 2.1638654161e-08 
-2.5484614318e-07 3.9327062775e-07 3.8519680349e-07 -1.9142677743e-07 1.0696043013e-07 5.180440152e-08 -5.7229028347e-07 4.0371511235e-07 9.3252643614e-07 
-5.0827435004e-07 -6.8591937579e-09 -1.2563416513e-07 -1.4493865717e-07 6.7564889686e-07 3.1720070836e-07 2.1986920111e-07 -1.6895846103e-07 -4.1489185073e-07 
7.9877932148e-08 6.4144128217e-09 -4.1530546808e-07 4.2899586735e-07 -4.3683890398e-07 6.0093974257e-08 -1.2325196203e-07 2.3504133513e-07 7.1702583043e-08 
1.0268949218e-07 9.7652942225e-08 -4.3847959717e-08 1.3106006133e-07 -2.2953514454e-07 -2.035737928e-07 -1.1973323053e-07 -3.9634465174e-08 5.2134891126e-07 
1.4056347853e-07 -1.2749652656e-07 8.1763071159e-08 -1.0995529656e-07 -1.5311113374e-08 8.3379112883e-08 -1.3798473155e-07 8.0352797413e-08 7.6271833555e-08 
-3.3771327711e-07 -1.4694596919e-07 2.3940585995e-07 -8.1499806231e-09 -1.43845973e-07 -1.3888563633e-07 5.5052445239e-08 1.8890751224e-07 1.7881374467e-07 
-4.6729005183e-07 2.9948248697e-08 -5.5604411616e-08 7.7154720909e-08 3.9765386196e-08 2.7203910155e-07 4.1850666847e-08 -2.7735237942e-08 -1.0819757804e-07 
8.6475749612e-08 1.6685849088e-07 -7.8678831343e-09 5.4980475536e-08 4.8788180052e-08 2.8577857073e-07 2.1896621423e-08 1.2205148105e-07 -2.7763931862e-08 
-2.9915616544e-07 1.8044930287e-07 -3.2131137954e-07 
f 3 70 double
4.8889356743e-05 3.0299098303e-06 8.9020419666e-05 5.6290578129e-05 7.4726583228e-06 -2.3928828994e-05 4.6978702792e-05 -7.5054944066e-06 -2.2733176942e-05 
-1.3506511506e-05 6.518728517e-06 -1.9928434254e-05 -3.3478611813e-05 -2.2529550881e-05 3.4799035132e-05 -2.3868246311e-05 3.9699833282e-05 2.6145828379e-05 
9.0478757539e-06 -9.6184643171e-06 8.6580621711e-05 -2.1513606491e-05 -2.8880356405e-06 4.7899772875e-05 -9.9318064773e-06 1.2072826208e-05 -6.983469606e-05 
9.2673227643e-07 -3.2187753062e-05 8.7698270041e-05 -0.0001099881456 -3.8144274146e-05 6.4476654985e-06 3.9750819911e-05 9.0103184171e-05 1.0467844674e-05 
4.0181417625e-05 0.00012132451603 -2.1563804986e-06 -6.4396073247e-05 -2.8928773814e-06 1.4920064187e-05 -8.4258624731e-05 5.0684104909e-05 2.4050960454e-05 
-0.0001418212814 -3.3238479489e-05 3.4568486758e-05 -8.003280953e-06 2.8552003891e-05 -6.502224891e-05 1.7557590445e-05 -2.7815870311e-05 4.6968520539e-06 
4.853331372e-05 2.4247040797e-05 2.2193230664e-05 -2.6893921944e-05 -2.5031039378e-05 -4.7692345129e-06 -1.1288380551e-05 -1.5139182079e-06 -2.0877171488e-05 
-1.3964509315e-05 3.7366890728e-05 4.9863442294e-06 5.0832097709e-05 3.4495679339e-05 3.1049559464e-05 1.7442497158e-05 -5.7271787882e-06 -2.4462554159e-05 
8.2018911748e-05 1.0878170873e-05 2.9316536054e-07 1.8048337072e-05 9.6377451449e-06 -3.4663964453e-06 8.5742551976e-06 2.7353392243e-05 7.1651800584e-06 
-2.6636631929e-05 -2.4446174409e-05 8.1596750238e-06 -8.1501649159e-06 1.0762175405e-05 -3.2992858781e-05 -1.3866674809e-05 -7.4661282647e-06 1.0113767033e-05 
5.2189460816e-05 -3.2283679568e-05 -4.8585905393e-05 6.4266414139e-05 5.3276870019e-06 1.2092116016e-05 3.1780639736e-05 5.1751292268e-06 2.0694785526e-05 
6.9471141212e-05 -8.2448629667e-05 -6.145409046e-06 -1.1868596122e-05 1.0761247383e-05 -4.3031095473e-05 -4.3430776789e-05 -6.9772351868e-06 4.6767313407e-05 
-0.00012237237137 -1.4406124843e-05 -8.0712498993e-06 -2.0653110541e-05 2.24056696e-05 1.973077114e-06 9.6383480664e-06 1.6405029351e-05 -6.7704301645e-06 
2.6308359073e-05 -3.3779060638e-05 2.6489236005e-05 3.8288725032e-05 -2.5093166582e-07 -1.4882253455e-05 1.1546985055e-05 -7.0333919176e-07 3.1151689974e-05 
1.4944121916e-05 4.3862697281e-05 6.923581334e-06 2.6459288857e-05 1.4009243535e-05 -9.757902652e-06 6.7656643948e-06 -1.4341220678e-05 -8.3719670605e-06 
-5.3233126211e-06 6.8072777358e-06 -2.1703864523e-05 3.8810231647e-06 -1.8207778881e-05 9.9557929297e-06 -1.9236697078e-05 -1.9935567903e-05 1.9926292451e-05 
3.5926763021e-05 1.048389944e-05 -3.8160745075e-05 2.6858726351e-05 -2.0009214955e-05 2.0687481542e-05 1.2509154902e-05 -8.6042965866e-06 -2.1569322721e-06 
1.8731541296e-05 -1.9440006021e-05 8.8115134946e-06 1.7108843972e-06 -1.0587038103e-05 -1.9992437391e-05 -4.1490330404e-05 6.0775566232e-06 3.611897364e-05 
5.7748969292e-06 -1.3634253233e-05 9.2188971332e-07 -2.0822030767e-05 -8.7422144016e-06 -2.2464547184e-05 8.806344343e-07 4.1329951115e-06 8.0588961088e-06 
-1.1373682603e-05 4.0824587596e-07 7.6238678212e-06 -2.3877717752e-06 3.3764974586e-06 -4.2610308815e-06 1.8381293467e-06 -6.5108614937e-06 1.0800653065e-05 
6.5025178734e-06 1.5626322035e-05 -4.1404403042e-05 6.8081603589e-06 2.6459371143e-06 -3.7856779617e-06 4.7829337025e-07 -2.397881049e-06 7.3680721023e-07 
-1.9054226593e-05 6.5326959389e-06 7.101937658e-06 -1.2103791134e-05 5.9171664897e-07 7.6014756145e-06 -8.6173723829e-06 -6.0344228622e-06 1.3434483237e-05 
-1.1270151484e-05 -1.3472462132e-05 1.066804218e-05 2.4567654803e-05 -7.0386384029e-06 -2.516568948e-06 -2.4485405933e-07 -1.2796515911e-05 -4.3935080434e-06 
-8.1151469415e-06 -2.1599232217e-06 -3.5884865037e-06 
radius 1 70 double
0.003 0.003 0.003 0.003 0.003 0.003 0.003 0.003 0.003 
0.003 0.003 0.003 0.003 0.003 0.003 0.003 0.003 0.003 
0.003 0.003 0.003 0.003 0.003 0.003 0.003 0.003 0.003 
0.003 0.003 0.003 0.003 0.003 0.003 0.003 0.003 0.003 
0.003 0.003 0.003 0.003 0.003 0.003 0.003 0.003 0.003 
0.003 0.003 0.003 0.003 0.003 0.003 0.003 0.003 0.003 
0.003 0.003 0.003 0.003 0.003 0.003 0.003 0.003 0.003 
0.003 0.003 0.003 0.003 0.003 0.003 0.003 
omega 3 70 double
-2.8304912371e-06 4.736925376e-05 -0.00059673850625 0.0011011582744 0.00089654030664 0.001811812548 -0.00074359717012 -0.0013948538665 0.00085319146705 
-4.9088434187e-06 -1.1275341136e-05 -7.1782804729e-06 -0.00012691131216 0.00014190436081 -5.4687871843e-05 0.00037916196874 -0.00026133136978 -0.00018551249683 
2.9431806099e-05 0.00047016170032 -0.00077745132104 2.562950774e-05 -2.253060665e-05 8.0506320017e-05 3.4881413644e-05 0.00019217760182 -0.0001980723129 
-0.00019270339869 -0.00047152490994 -0.000322907705 0.0031018799984 0.00067802259196 -0.0010592093273 0.0013341565367 0.0018063396884 0.0025664842797 
-0.00091622510567 0.00045374471004 -0.00061489639245 2.1807267305e-05 3.2827669726e-05 0.00022347812483 -0.0001931849996 -0.00014724067717 -0.00061436918907 
8.358375106e-06 0.00079979818507 -0.00040093386612 -9.5659998382e-07 2.7714635836e-05 0.00012292883905 8.1590293066e-05 -2.4239217077e-06 2.6097131368e-05 
0.00037543129915 -0.00011408771791 -0.00049228473776 0.0011084307589 0.00018581967888 0.00013315219191 -0.00014043808618 -0.00034493419272 0.0001059590127 
-0.0002336875041 0.00034571516271 -0.00031611488721 0.00056117084919 -0.00043636381542 0.00039919984327 0.00017108810911 -0.00019900907075 -0.00022277029224 
0.00021728717332 -0.00069845440308 -0.00055101586548 -2.5555039012e-05 -0.00052674558456 0.00018647022839 -0.00014701706037 -1.3098273728e-05 2.1876648408e-05 
-0.00035011028317 -1.2610124233e-06 -0.00013555986395 0.00035359826687 0.00031258538705 -6.0392845425e-05 5.9691969065e-05 -0.00019672826433 -0.00023460995917 
-0.00094363634202 -0.00067727439076 -0.0002089466274 0.0001264236381 -4.8593135003e-05 0.00024855536339 -0.00016191811855 0.00082599659754 0.0007020325377 
0.00041519343294 0.00061095434405 -0.00050954273092 -0.00021238501041 0.0001334164893 0.00037205741421 0.00035483159419 0.00018530844278 -0.00024829115238 
0.00065516984891 0.00036610512375 -0.00039673859239 8.047540736e-05 -0.00019997226443 0.0001337007123 0.00036268785559 0.00021356903356 -0.00012320576132 
-8.1483260895e-05 1.3873168052e-05 1.2872922501e-05 7.6286795886e-05 -0.00016433361908 0.00010898287649 0.00047666642765 -0.00067018205513 0.00073633102817 
0.0012319914153 -0.00039151416729 -0.0013996226669 0.00054126390112 0.00018872986666 -3.5287363145e-05 0.0001137463612 -1.6944471281e-05 6.3879034899e-05 
5.7468755958e-05 -6.8385159443e-05 -1.7866140386e-05 0.00016576529537 -1.5327523917e-05 -0.00011770771449 -0.000393237073 0.00033855348282 -1.7763747275e-05 
8.1432670886e-05 0.00017436728222 0.00041105945173 0.00062553184481 5.3586549396e-05 6.8766318608e-05 0.00027003288093 -0.00020109261793 0.0002752395791 
0.00015752396723 -0.00032394265606 -0.00026606608203 0.00034198515937 -0.00035885772033 -0.00029458113436 9.031618632e-05 0.0002254065448 -3.0514498942e-05 
8.8193446907e-05 9.4959698804e-06 0.00025066152693 8.542509706e-05 -7.7154714216e-05 -0.00025649121352 0.00034802009095 2.7561766776e-05 -0.00014923841966 
0.00023676551685 8.2442137353e-05 -6.7796612712e-05 0.00018825296204 -9.8764723263e-05 -2.2786047513e-05 6.3803374047e-06 -0.00010701563775 7.6784411461e-05 
5.0691009177e-05 -0.00027594284199 1.069477089e-05 0.00023496302955 -0.00014700674924 0.0001455879005 6.588912443e-06 -0.00010308729982 7.685456561e-05 
1.8150674487e-05 3.6522988759e-05 0.00015861058785 -4.5989150405e-05 -1.3537048536e-05 9.1494907778e-05 0.00013698559038 2.5586118688e-05 -5.7995301112e-05 
4.4184622499e-05 1.8190043825e-05 1.77875326e-05 -0.00034465349479 3.415126114e-05 2.7664292448e-05 -1.9212653112e-05 -3.6714623254e-05 1.4289715846e-05 
0.00025169531462 0.00016971249023 -9.874771974e-05 
