# vtk DataFile Version 4.2
Generated by LIGGGHTS
ASCII
DATASET POLYDATA
POINTS 70 float
0.00415465 -0.0398914 0.00499925 0.00189332 -0.0127272 0.00918618 0.0161664 -0.00511958 0.00499963 
-0.0288731 0.000683799 0.00499951 -0.00627622 -0.0030752 0.00840947 -0.00173169 -0.00115006 0.00499867 
-0.00954385 0.0115412 0.00499923 0.00596364 0.0067348 0.00499935 0.034077 0.00940818 0.00942642 
-0.0244976 0.0129951 0.00499909 -0.00413072 0.0187455 0.00499898 -0.0271457 0.0228517 0.01022 
0.00848482 0.0222272 0.00737971 0.0327017 0.0237786 0.00499893 -0.0158004 0.0300754 0.00499936 
0.0104887 0.0321008 0.00810017 0.0193373 0.0303733 0.00744596 -0.0120432 -0.0345829 0.018388 
0.0180697 -0.0197106 0.0181489 0.0357458 -0.0185345 0.0178799 0.031029 -0.00345835 0.0187753 
0.00221153 0.011842 0.0116273 -0.0318749 0.0152471 0.0189962 0.0274982 0.0234341 0.0175247 
0.00626413 -0.0387443 0.0202854 0.0222686 -0.0233558 0.0262158 -0.0203187 -0.0151885 0.021603 
0.00678315 -0.0144132 0.0242332 0.0249597 -0.0106361 0.0227673 0.011572 -0.00156322 0.0247216 
0.0176547 -0.00338255 0.0199045 0.0254961 -0.00154087 0.0263904 -0.0305904 0.00710548 0.0246424 
0.00935546 0.00965154 0.0251507 0.0275189 0.00990879 0.0261827 -0.000308175 0.0141261 0.0236588 
0.0125088 0.0175187 0.0272189 0.00184312 0.0281875 0.0214579 0.0228226 0.0375984 0.0195493 
-0.0145585 -0.0310339 0.032851 -0.010359 -0.0324735 0.0287771 0.016791 -0.0311122 0.0346448 
0.0263484 -0.0317271 0.0280191 -0.0418205 -0.01362 0.0322057 -0.00841225 -0.0153001 0.0317959 
0.0200132 -0.0163745 0.0317398 0.00855049 -0.00731594 0.0353744 -0.0170789 0.00802934 0.0292565 
0.035766 0.00753716 0.0279136 -0.00440421 0.0223088 0.0280027 0.0131928 0.0212309 0.0318824 
-0.0275159 0.0323081 0.0333748 -0.00252423 0.0405105 0.0293863 -0.00337846 -0.0208856 0.0400041 
-0.0125358 -0.0166588 0.0424125 0.00325236 -0.0159539 0.0365206 0.0263872 -0.0175727 0.0382567 
-0.0319993 -0.0092699 0.0411704 -0.0143467 -0.0075823 0.0433045 -0.0084736 -0.00787378 0.0421132 
-0.0249206 0.00132677 0.03753 -0.026906 -0.00358548 0.0443499 -0.00458335 0.0105025 0.0433803 
0.0210925 0.00651766 0.0360969 -0.00420116 0.0197373 0.0439462 -0.0130053 0.0259172 0.0402099 
0.0192862 0.0319925 0.0364117 0.000513992 -0.0272944 0.0448254 0.0256082 -0.00272951 0.0448913 
-0.0121959 0.0308986 0.0466201 
VERTICES 70 140
1 0 
1 1 
1 2 
1 3 
1 4 
1 5 
1 6 
1 7 
1 8 
1 9 
1 10 
1 11 
1 12 
1 13 
1 14 
1 15 
1 16 
1 17 
1 18 
1 19 
1 20 
1 21 
1 22 
1 23 
1 24 
1 25 
1 26 
1 27 
1 28 
1 29 
1 30 
1 31 
1 32 
1 33 
1 34 
1 35 
1 36 
1 37 
1 38 
1 39 
1 40 
1 41 
1 42 
1 43 
1 44 
1 45 
1 46 
1 47 
1 48 
1 49 
1 50 
1 51 
1 52 
1 53 
1 54 
1 55 
1 56 
1 57 
1 58 
1 59 
1 60 
1 61 
1 62 
1 63 
1 64 
1 65 
1 66 
1 67 
1 68 
1 69 

POINT_DATA 70
FIELD FieldData 7
id 1 70 int
203 1744 375 597 1457 912 661 54 958 
394 467 1373 717 1174 728 934 844 1779 
1976 1593 2267 1428 2154 1925 2673 3155 2824 
2476 2255 2736 2121 2909 2812 3525 3244 2597 
3108 2539 2172 3802 3049 3936 3264 3766 3877 
3960 4218 3395 3241 3303 3862 4092 3557 4774 
5469 4537 4044 4863 5064 5129 4669 5429 5196 
4333 5591 4215 4415 5493 5453 5477 
type 1 70 int
2 2 2 2 2 2 2 2 2 
2 2 2 2 2 2 2 2 2 
2 2 2 2 2 2 2 2 2 
2 2 2 2 2 2 2 2 2 
2 2 2 2 2 2 2 2 2 
2 2 2 2 2 2 2 2 2 
2 2 2 2 2 2 2 2 2 
2 2 2 2 2 2 2 
i 3 70 int
0 0 0 0 0 0 0 0 0 
0 0 0 0 0 0 0 0 0 
0 0 0 0 0 0 0 0 0 
0 0 0 0 0 0 0 0 0 
0 0 0 0 0 0 0 0 0 
0 0 0 0 0 0 0 0 0 
0 0 0 0 0 0 0 0 0 
0 0 0 0 0 0 0 0 0 
0 0 0 0 0 0 0 0 0 
0 0 0 0 0 0 0 0 0 
0 0 0 0 0 0 0 0 0 
0 0 0 0 0 0 0 0 0 
0 0 0 0 0 0 0 0 0 
0 0 0 0 0 0 0 0 0 
0 0 0 0 0 0 0 0 0 
0 0 0 0 0 0 0 0 0 
0 0 0 0 0 0 0 0 0 
0 0 0 0 0 0 0 0 0 
0 0 0 0 0 0 0 0 0 
0 0 0 0 0 0 0 0 0 
0 0 0 0 0 0 0 0 0 
0 0 0 0 0 0 0 0 0 
0 0 0 0 0 0 0 0 0 
0 0 0 
v 3 70 double
-8.5205126648e-07 6.1337038931e-07 6.1150039781e-07 -2.2567387344e-06 7.1327652309e-07 9.0535278194e-07 -2.4897869309e-07 -1.83635916e-06 -3.9999321721e-07 
3.7025823844e-07 3.1826636597e-08 9.9426584339e-08 -2.3052739252e-07 -3.154936941e-07 5.800719962e-07 -6.8130022376e-09 6.0175605625e-07 -8.3551435657e-07 
6.7715279398e-07 9.3161200129e-07 -1.6588531119e-07 4.7975678795e-07 2.7350039498e-07 -8.8189299659e-07 -8.491091538e-08 1.2196881368e-07 -1.2082633839e-07 
-1.1877445089e-06 -2.3374874676e-07 1.9402305321e-06 -3.6008934548e-06 1.0116054313e-06 4.1069576447e-06 2.4663925247e-07 -6.7169632463e-07 -7.9232985761e-07 
-1.077444545e-06 -2.039533623e-08 4.8924387151e-07 -2.3251684016e-07 -6.8155377676e-07 -8.8728466928e-08 -1.3665464e-06 -1.1103685509e-06 -2.765626498e-06 
-1.2118257222e-06 1.142149128e-07 -4.0839713276e-07 3.8041896041e-07 -6.546590319e-07 2.3493827713e-07 -2.1806660061e-07 -6.0874450233e-07 1.408829149e-07 
-1.6451740064e-08 -5.7923517965e-08 1.2443370547e-06 3.0611650984e-08 -7.137071857e-07 1.5508264655e-07 2.4985448744e-07 9.4822057864e-08 9.2581818576e-08 
-1.9350105428e-07 1.157745705e-07 -4.6549509996e-07 8.1457025136e-08 3.9529704368e-07 9.4546436089e-08 2.4621572537e-08 5.1311554485e-07 3.9786874004e-07 
-6.936058741e-07 4.3104385411e-07 -2.4942194993e-07 1.463938289e-07 -5.3623573696e-07 -4.3013727738e-07 -3.6195399643e-08 -6.760216708e-08 3.0885583885e-08 
1.2775649421e-07 -2.2402108461e-07 -7.6930763739e-07 1.9925085108e-08 1.5745076979e-07 -7.6856560719e-08 -1.7211496366e-07 -2.1722454104e-07 -9.8091349195e-07 
-2.6568448588e-07 -3.1500878062e-08 -2.0190627847e-07 2.5271406945e-07 1.4093877813e-07 3.3508284015e-07 -1.9239935765e-07 -2.0112652078e-07 1.3504648223e-07 
-1.8728541142e-07 -2.6371328693e-07 -4.5288086868e-07 1.48765204e-08 2.8085789102e-07 1.0221810841e-06 -2.6197408001e-07 -3.0496989341e-08 -6.7187193184e-07 
-7.2403794818e-07 4.8603596401e-07 -2.0677710486e-07 1.6203869571e-07 -6.7581767763e-09 2.0928552052e-07 3.6502080055e-07 7.2426128198e-08 6.3292447991e-07 
-5.0246615654e-08 1.3584876812e-07 1.156646528e-07 -8.8702545873e-08 1.8826239174e-07 1.0329908176e-07 -4.0872590668e-08 1.8011270912e-07 5.7097256548e-07 
-1.4950482961e-06 4.9157913571e-07 1.7421075295e-06 3.7726923548e-07 -5.4062806753e-07 3.7313676523e-07 1.8479724991e-07 1.611279414e-07 1.5906503733e-07 
-1.6195347047e-07 -3.5477597722e-07 1.0147427229e-07 -1.2965603706e-07 8.83485316e-09 2.8028583668e-07 4.1251410076e-07 -2.9352024605e-07 -2.7921888068e-07 
3.520434018e-07 2.331797557e-07 6.5167586468e-07 3.5920555476e-07 -1.1621605658e-06 8.4894774453e-09 3.096111639e-08 -4.2965648195e-07 -8.0216912549e-07 
-3.7322086169e-08 -5.9338497476e-07 3.7314315653e-07 -1.9549794757e-07 -4.5943971822e-07 3.1958173972e-07 -9.1367942307e-08 2.308425213e-07 6.2003219418e-08 
-5.9006897695e-07 9.5545707503e-07 1.4931548563e-07 1.4235436293e-07 1.071935241e-08 -1.5982951239e-07 -2.0812993078e-07 -6.5264054107e-08 -4.2111155176e-08 
-7.4062698855e-08 1.6553905258e-07 1.3155192932e-07 3.1671435756e-07 -2.5659258528e-07 -2.2460182812e-07 -1.9895933258e-07 -6.0831392284e-08 -1.2575365504e-08 
-1.0290475484e-07 1.7638028139e-08 -9.833591367e-08 5.1378108371e-08 1.9106027593e-07 6.5966441512e-08 -4.266222777e-08 -1.0084072277e-07 1.0405375065e-07 
1.0845059615e-07 -7.8649796848e-08 1.0224982848e-07 -2.1933864872e-07 1.5042045586e-07 2.1567256431e-07 -7.7696526918e-09 -2.8788912155e-08 1.7022722769e-07 
8.3237419059e-08 3.8169854211e-07 4.3936553257e-08 -1.4101130534e-08 2.0688461131e-07 -1.246700322e-07 3.4547536506e-09 -4.1923014879e-08 5.775091366e-08 
4.5600408273e-08 -6.1913523966e-08 -4.5544562801e-08 
f 3 70 double
4.4061950967e-06 -1.884549787e-05 0.00014830693934 6.7963497756e-05 -8.1101078356e-05 6.5911488739e-05 1.1584451977e-06 1.0424853766e-05 6.9851115338e-06 
5.0906856492e-06 1.0051969833e-05 3.1248842038e-05 -2.0898848041e-05 -4.6370056657e-05 1.182792652e-05 -6.4145592684e-05 -9.1080389389e-05 1.9535756133e-05 
-5.4809460644e-05 2.6888674801e-05 3.2332797268e-05 2.1145520675e-05 1.1772390445e-05 -7.6475336028e-06 -6.4152771705e-05 1.8602094919e-06 -1.2405037972e-05 
-1.8276307141e-05 1.0811544278e-05 -5.2630778168e-05 6.6442394849e-05 -5.5683882296e-06 4.6841957148e-05 -3.1174028142e-05 4.2040749408e-05 1.3030225195e-05 
0.00011360624777 -4.5187473758e-05 -3.5463943992e-05 -5.1034173698e-05 -4.2888573989e-05 -2.581156435e-05 -1.0219300164e-05 -2.0704091845e-05 -1.8449522436e-05 
-7.7887945464e-05 4.8525687659e-05 -3.3525880254e-06 -6.1107315665e-05 5.790844809e-06 -1.553838633e-05 1.31219249e-05 -3.5463579642e-07 -3.8025806665e-06 
1.37876216e-05 -7.0123625504e-06 1.4623928521e-05 1.1530007799e-05 2.4317820089e-05 -1.6039682494e-06 -3.118133238e-05 2.1160492107e-05 7.7244641335e-06 
1.0237035153e-05 -4.0356711159e-05 2.6161878168e-05 -3.9881383105e-05 -0.00010677784885 -1.4646481031e-05 3.243321975e-06 1.9205552418e-05 2.5088657615e-05 
-7.6703689899e-05 9.8559329263e-05 -8.133578116e-05 -9.4850534326e-06 1.7620040858e-06 1.5105924449e-06 -4.2362504589e-06 -6.5381948063e-06 -6.4848093741e-06 
-8.8885092641e-06 -2.2023641594e-05 1.2646901139e-05 4.7290180438e-06 2.8939206649e-05 -5.9235317262e-05 6.9615264014e-06 1.0688367136e-05 -3.4515889325e-05 
-2.431871677e-05 2.0873807092e-05 1.2459160664e-05 4.9642944655e-05 2.1456193273e-05 1.3938653573e-05 1.4259680579e-05 -2.2509196818e-05 9.542371474e-06 
-2.3032821935e-05 2.9453651492e-05 3.3741948652e-05 7.3328867481e-06 9.5932493398e-06 3.4756313187e-05 3.9997403581e-05 -4.388665229e-06 -6.5345559416e-05 
9.4073473677e-06 -6.9022574542e-06 -6.7417327503e-06 1.6567464092e-06 -1.2833168264e-05 1.4940821153e-05 -1.91928573e-05 -1.8219310236e-05 1.634223693e-06 
3.8173189022e-06 6.3298473015e-07 -8.8183672389e-07 -3.0039927952e-06 2.1986234991e-05 -3.7369465441e-05 -1.43081611e-05 -4.8173525757e-05 8.0055048227e-05 
0.00015297130732 -8.8093027453e-05 1.6449307649e-05 -2.0308442993e-05 9.5748910802e-06 9.9881400704e-06 1.1958283977e-06 -3.0668731386e-05 -1.411412249e-05 
3.0567127227e-05 -4.2636337448e-06 -8.030420603e-06 -7.6936808477e-06 2.2169310163e-05 -2.6465513877e-06 4.4589002471e-05 4.1022571747e-05 6.7407557756e-06 
-1.0948603217e-05 -3.4375658894e-05 -8.2113830921e-06 2.4818060559e-05 -6.8814891316e-05 -9.4389833489e-07 5.2424478038e-06 2.4216339578e-06 3.8977773327e-05 
1.336312559e-05 3.6995366396e-05 2.1349638215e-06 4.2078959236e-05 -7.404987567e-06 1.6212961726e-05 1.600525714e-05 -8.1831686407e-07 -1.9898834802e-06 
-9.5230270671e-06 2.0593262712e-05 2.9064630587e-06 2.1751084982e-07 -1.6337354729e-05 -1.4227668639e-05 -7.0982344732e-06 -1.1308481381e-06 3.09067327e-06 
-6.0327564691e-06 1.2610100969e-06 -5.3277513243e-06 -2.7624786437e-05 2.6798438152e-05 1.2554972809e-05 5.8713379466e-06 5.3055026112e-06 -9.7755458511e-06 
5.8139087575e-06 2.8266962194e-06 -3.2223913695e-05 1.5900554709e-05 4.2302736835e-06 1.8797824256e-06 -4.078580111e-06 1.1721445645e-05 -1.2459146479e-05 
-4.2368024377e-06 2.601043225e-05 1.9701760282e-06 -1.1095130424e-05 -8.4666351604e-08 1.3227091401e-06 9.0280501222e-06 -7.3154442312e-06 -1.5882694676e-05 
-1.3660245671e-05 5.436408475e-06 -1.2462812427e-05 -1.0979324767e-06 -1.3634986108e-06 -1.3250347419e-06 8.6213606335e-07 -4.5380958557e-06 -5.2671030816e-07 
-1.0388756004e-05 -2.4578212767e-06 -4.709891491e-06 
radius 1 70 double
0.003 0.003 0.003 0.003 0.003 0.003 0.003 0.003 0.003 
0.003 0.003 0.003 0.003 0.003 0.003 0.003 0.003 0.003 
0.003 0.003 0.003 0.003 0.003 0.003 0.003 0.003 0.003 
0.003 0.003 0.003 0.003 0.003 0.003 0.003 0.003 0.003 
0.003 0.003 0.003 0.003 0.003 0.003 0.003 0.003 0.003 
0.003 0.003 0.003 0.003 0.003 0.003 0.003 0.003 0.003 
0.003 0.003 0.003 0.003 0.003 0.003 0.003 0.003 0.003 
0.003 0.003 0.003 0.003 0.003 0.003 0.003 
omega 3 70 double
-0.00056348664378 -0.00029735893695 -0.00044810695648 -9.1428700679e-06 0.00011869862432 3.4933334675e-05 0.00019941173094 5.2800958322e-05 4.6038175779e-05 
-2.8618587302e-05 -0.00014728270772 -9.1716163556e-05 0.00017815064703 -6.6020047237e-06 -2.406310665e-05 -0.00027385345648 0.00031633911642 5.7435228449e-05 
0.0012699028437 0.00089353592955 -0.0016512898528 0.00012196274803 2.418005292e-05 0.00032387657959 0.00010882144141 0.00015136510124 -6.4383029621e-05 
0.00033491810045 0.00057295982247 0.00035891751363 0.0021099151128 0.00071598939884 -0.00069488828181 -0.00026609399771 0.00029107914819 0.00037432742982 
0.00031765405195 0.00028296654598 5.3317478872e-05 -2.7784656496e-05 -0.00017346982694 -0.00020324620561 -0.00010007395705 1.9702246761e-05 -0.00055252797638 
0.00074892998679 0.00013576107379 0.0001076688969 -0.00024253667675 -0.00034879538305 -0.00020561484393 -4.7037646812e-05 -0.00015670441646 8.7256754983e-05 
-0.0003954983862 -7.6114605373e-05 0.00033360739666 0.00014875868177 -7.221368507e-05 -0.00020113217713 0.00012618873798 -3.0445907091e-05 -3.3548450301e-05 
6.7792648208e-05 -0.00062491829323 -0.00053727195556 0.00018528000631 0.00010367528275 8.3849228062e-05 -9.7701548587e-05 -0.00025352479633 0.00024431935193 
-0.00053253633953 -0.000226629472 -0.00046845943634 -1.6618864698e-05 -0.00026610081977 -0.00020849442758 -7.9266135793e-05 7.0017449199e-06 -3.7076451268e-05 
6.1117250328e-05 -4.2689667179e-05 -8.6773932618e-05 -0.00012064650649 5.0678398076e-05 -7.7958219661e-05 -0.00017841255038 -1.5094561331e-05 -0.00013935480847 
-2.3799526315e-06 -1.6747058114e-05 1.4260943596e-07 4.9602875633e-05 4.6034397178e-05 0.00011163654974 -0.00014768149536 0.00016393559571 -0.0001182967728 
0.00017707593516 0.00077445607628 -0.0016315817607 -0.0011522462207 -0.00045039897558 0.00038507785097 -0.00067911197458 -0.00039938169611 0.00025460731721 
0.00062026470896 9.0976597872e-05 -0.00056148540419 0.00014617971393 -0.00027191339148 -8.861293684e-05 0.00015765763744 -0.00011054347639 0.00020240957695 
0.00015903238551 -3.3616418236e-05 -2.5033857295e-05 7.5549561336e-05 -0.0001060115868 -0.00012384678 0.0001130423998 0.00045576842696 -0.00068043118243 
0.00038781948494 -0.00076504691764 -0.0013212298784 0.00047271163092 0.00021490135832 -1.669595634e-05 2.701350431e-05 9.8591491653e-05 6.8673726488e-05 
-1.9830736481e-05 0.00015358034186 -2.0533811972e-05 6.656193e-05 0.00012484911289 9.9809692529e-05 0.00018670308752 0.00044941808132 -8.6502103309e-05 
0.0002672458122 0.00038924506185 -0.00025470814835 -0.00094095212482 -1.7465336938e-05 -9.0684326299e-05 4.9157893242e-05 6.3902092523e-05 -0.00049019595765 
7.0945699238e-06 2.1741806287e-05 -1.9818947046e-05 -0.0001457783369 -5.265302978e-05 -0.00013510178035 -4.123039797e-05 -9.8374392154e-05 -1.1647399521e-05 
0.0002866591093 0.00026484758058 -0.0010280299086 2.1869356423e-05 6.2865268071e-05 -6.9574677065e-05 -0.0001415048727 0.00014006880684 -0.00022044750558 
0.0001103062297 -2.2168321375e-05 -6.1203965866e-05 -0.00040590379317 4.4825610939e-05 3.0081776747e-05 1.071799497e-05 -0.00035478868054 -9.2961882485e-05 
-0.0002809232611 -4.7108215715e-05 0.00010403832717 0.00010434098178 -6.9640681028e-05 -3.0492869509e-05 3.5835613303e-05 0.00010599797743 -0.00012165757677 
-9.3655960084e-06 -3.896808145e-05 0.00026570166269 -4.9543297678e-05 -0.00017231277227 -5.5789612732e-05 1.7975950721e-05 -4.6888335323e-05 4.4478166645e-05 
-5.6690214261e-05 4.8724536592e-05 4.6183911345e-05 -0.00013083910899 5.2084441298e-06 -0.00012537106212 -9.8011707171e-05 -4.7287301286e-05 -6.9364978559e-05 
3.4302486239e-06 -9.763409012e-05 2.3325828738e-05 
