# vtk DataFile Version 4.2
Generated by LIGGGHTS
ASCII
DATASET POLYDATA
POINTS 70 float
0.00415463 -0.0398914 0.00499925 0.00189331 -0.0127272 0.00918618 0.0161664 -0.00511958 0.00499963 
-0.0288731 0.000683811 0.00499951 -0.00627622 -0.00307519 0.00840947 -0.00173169 -0.00115005 0.00499867 
-0.00954385 0.0115412 0.00499923 0.00596364 0.0067348 0.00499935 0.034077 0.00940817 0.00942642 
-0.0244976 0.0129951 0.00499909 -0.00413072 0.0187455 0.00499898 -0.0271457 0.0228517 0.01022 
0.00848483 0.0222272 0.00737971 0.0327017 0.0237786 0.00499893 -0.0158004 0.0300754 0.00499936 
0.0104887 0.0321007 0.00810017 0.0193373 0.0303733 0.00744596 -0.0120432 -0.0345829 0.018388 
0.0180697 -0.0197106 0.0181489 0.0357457 -0.0185345 0.0178799 0.031029 -0.00345836 0.0187753 
0.00221154 0.011842 0.0116273 -0.0318749 0.0152471 0.0189962 0.0274982 0.0234341 0.0175247 
0.00626411 -0.0387443 0.0202854 0.0222686 -0.0233558 0.0262158 -0.0203187 -0.0151885 0.021603 
0.00678314 -0.0144132 0.0242332 0.0249597 -0.0106361 0.0227673 0.011572 -0.00156322 0.0247216 
0.0176547 -0.00338256 0.0199045 0.0254961 -0.00154088 0.0263904 -0.0305904 0.0071055 0.0246424 
0.00935547 0.00965154 0.0251507 0.0275189 0.00990879 0.0261827 -0.000308171 0.0141261 0.0236588 
0.0125088 0.0175187 0.0272189 0.00184313 0.0281875 0.0214579 0.0228226 0.0375984 0.0195493 
-0.0145585 -0.0310339 0.032851 -0.010359 -0.0324735 0.0287771 0.016791 -0.0311122 0.0346448 
0.0263484 -0.0317271 0.0280191 -0.0418205 -0.0136199 0.0322057 -0.00841226 -0.0153001 0.0317959 
0.0200132 -0.0163745 0.0317398 0.00855048 -0.00731594 0.0353744 -0.0170789 0.00802935 0.0292565 
0.035766 0.00753715 0.0279136 -0.00440421 0.0223088 0.0280027 0.0131928 0.0212309 0.0318824 
-0.0275159 0.0323081 0.0333748 -0.00252422 0.0405105 0.0293863 -0.00337847 -0.0208856 0.0400041 
-0.0125358 -0.0166588 0.0424125 0.00325235 -0.0159539 0.0365206 0.0263872 -0.0175727 0.0382567 
-0.0319993 -0.00926989 0.0411704 -0.0143467 -0.00758229 0.0433045 -0.0084736 -0.00787377 0.0421132 
-0.0249206 0.00132678 0.03753 -0.026906 -0.00358547 0.0443499 -0.00458335 0.0105025 0.0433803 
0.0210925 0.00651766 0.0360969 -0.00420116 0.0197373 0.0439462 -0.0130053 0.0259172 0.0402099 
0.0192862 0.0319925 0.0364117 0.000513969 -0.0272944 0.0448254 0.0256082 -0.00272951 0.0448913 
-0.0121959 0.0308987 0.0466202 
VERTICES 70 140
1 0 
1 1 
1 2 
1 3 
1 4 
1 5 
1 6 
1 7 
1 8 
1 9 
1 10 
1 11 
1 12 
1 13 
1 14 
1 15 
1 16 
1 17 
1 18 
1 19 
1 20 
1 21 
1 22 
1 23 
1 24 
1 25 
1 26 
1 27 
1 28 
1 29 
1 30 
1 31 
1 32 
1 33 
1 34 
1 35 
1 36 
1 37 
1 38 
1 39 
1 40 
1 41 
1 42 
1 43 
1 44 
1 45 
1 46 
1 47 
1 48 
1 49 
1 50 
1 51 
1 52 
1 53 
1 54 
1 55 
1 56 
1 57 
1 58 
1 59 
1 60 
1 61 
1 62 
1 63 
1 64 
1 65 
1 66 
1 67 
1 68 
1 69 

POINT_DATA 70
FIELD FieldData 7
id 1 70 int
203 1744 375 597 1457 912 661 54 958 
394 467 1373 717 1174 728 934 844 1779 
1976 1593 2267 1428 2154 1925 2673 3155 2824 
2476 2255 2736 2121 2909 2812 3525 3244 2597 
3108 2539 2172 3802 3049 3936 3264 3766 3877 
3960 4218 3395 3241 3303 3862 4092 3557 4774 
5469 4537 4044 4863 5064 5129 4669 5429 5196 
4333 5591 4215 4415 5493 5453 5477 
type 1 70 int
2 2 2 2 2 2 2 2 2 
2 2 2 2 2 2 2 2 2 
2 2 2 2 2 2 2 2 2 
2 2 2 2 2 2 2 2 2 
2 2 2 2 2 2 2 2 2 
2 2 2 2 2 2 2 2 2 
2 2 2 2 2 2 2 2 2 
2 2 2 2 2 2 2 
i 3 70 int
0 0 0 0 0 0 0 0 0 
0 0 0 0 0 0 0 0 0 
0 0 0 0 0 0 0 0 0 
0 0 0 0 0 0 0 0 0 
0 0 0 0 0 0 0 0 0 
0 0 0 0 0 0 0 0 0 
0 0 0 0 0 0 0 0 0 
0 0 0 0 0 0 0 0 0 
0 0 0 0 0 0 0 0 0 
0 0 0 0 0 0 0 0 0 
0 0 0 0 0 0 0 0 0 
0 0 0 0 0 0 0 0 0 
0 0 0 0 0 0 0 0 0 
0 0 0 0 0 0 0 0 0 
0 0 0 0 0 0 0 0 0 
0 0 0 0 0 0 0 0 0 
0 0 0 0 0 0 0 0 0 
0 0 0 0 0 0 0 0 0 
0 0 0 0 0 0 0 0 0 
0 0 0 0 0 0 0 0 0 
0 0 0 0 0 0 0 0 0 
0 0 0 0 0 0 0 0 0 
0 0 0 0 0 0 0 0 0 
0 0 0 
v 3 70 double
1.8993175276e-06 5.5103820699e-08 -1.4033803436e-06 -6.3076641158e-07 1.2086211913e-06 1.8396769287e-07 3.2708921595e-07 -1.6510673905e-06 1.7603350644e-06 
3.2717662944e-07 2.9969562863e-07 3.1732108745e-07 6.575925338e-07 1.9840784216e-07 -1.6017766709e-07 -1.857970551e-07 -3.63924839e-07 -1.3428433258e-07 
5.2309350003e-07 -2.8413561296e-06 -1.4470774727e-06 -3.1921459536e-07 -2.86340677e-08 6.0682407176e-07 2.2777102157e-07 -9.9163870283e-07 -4.8041935972e-07 
1.7663259768e-06 2.4623188874e-06 -2.2261909343e-06 2.7183755723e-06 -1.8423117105e-06 -4.8056729811e-06 1.1168593746e-07 -1.2441834878e-06 1.9219419811e-06 
2.5721992636e-06 -1.2055204793e-06 -1.8070658844e-06 8.7841751918e-07 2.4405722773e-07 -1.9170407223e-07 7.9860969167e-07 -7.365858451e-07 4.1946825297e-06 
9.1864778825e-07 1.7450362408e-06 -3.4507674018e-07 6.6660509372e-08 6.2307033729e-08 -2.6026131269e-07 1.7784456381e-07 1.9023769538e-07 -4.6261405795e-07 
6.9000185172e-07 1.0531509568e-06 6.6154325607e-07 -1.2174169465e-06 -3.8234914364e-07 -2.4681039266e-06 2.6708447928e-07 -2.4050251494e-07 6.7526932941e-07 
6.8010501855e-07 -7.9212505777e-07 -7.301615661e-07 -5.1009375903e-07 2.3745512969e-08 1.7081500198e-07 3.8908884838e-08 5.6704492783e-07 9.7569406143e-08 
-3.2425378205e-07 3.7474598365e-06 1.6383627939e-06 6.6696517331e-07 6.6132745852e-07 1.7245778036e-07 -3.8254331151e-07 -3.5641972733e-07 -3.8064064292e-08 
-1.4103929499e-07 -3.4125969981e-07 -1.0763893939e-08 -5.2983830552e-07 -1.7278227783e-08 -1.2359569706e-06 4.1559359384e-08 1.0851767518e-06 3.6130917353e-07 
3.1584045007e-07 -4.9361088108e-07 -3.3964510812e-08 -6.547533776e-07 -2.6134291362e-07 -1.1005426813e-07 -1.5579472175e-07 -6.5975283099e-07 1.1157988476e-07 
9.9845532196e-07 -6.2809971092e-07 -1.0646800492e-07 1.3832783915e-07 -1.9413394136e-07 -3.0216330081e-07 2.0588429054e-08 -5.1845707525e-07 -1.2812313306e-08 
-1.3051944371e-06 9.6840997733e-08 4.3948673275e-07 -4.977363226e-07 -4.7164789178e-07 3.1593658179e-07 -2.916466776e-08 1.821216686e-07 -1.1143748768e-07 
-1.267311383e-07 -1.4786659207e-09 2.7579463887e-07 1.8772376719e-07 2.2782310741e-07 4.79397747e-07 -5.6764295892e-07 -2.3972667817e-07 -2.0314109475e-07 
1.0054222066e-06 -5.917563867e-07 7.3087337688e-07 1.3808158346e-07 -2.3174777652e-07 2.5692041025e-07 2.1228120238e-07 3.6058041883e-08 -7.2925894107e-08 
-2.7024338622e-07 -1.1718846867e-07 3.8168014874e-07 6.4668716019e-08 1.4577052764e-07 -2.5888446733e-07 7.3076205395e-07 -5.9062981483e-07 -9.4845632041e-07 
-3.8900910352e-07 -2.2998007359e-07 1.313278404e-07 -2.3814648589e-07 -4.2769244893e-07 5.3765398707e-08 8.3370628916e-07 2.1784010194e-08 -1.5346952093e-07 
-4.7256636547e-07 -2.4704323458e-08 1.73722212e-07 4.2808612367e-07 7.2732967985e-07 6.1409145321e-07 2.2812526929e-07 -9.9436216777e-08 -6.1481823078e-07 
-2.4267781906e-07 3.6127063283e-09 9.4371793602e-08 1.2968528761e-07 -5.6494859568e-08 -1.4004963575e-07 -8.182933154e-08 -1.8680388288e-07 4.4793640335e-07 
-8.5385213446e-08 7.4105565874e-08 -9.7616085269e-08 -1.3916587338e-07 -7.0540542088e-09 -2.854076079e-08 -8.9913662316e-08 -4.0826016143e-08 2.3479241518e-07 
2.9219145464e-07 4.7054867617e-08 -2.3087015012e-07 -2.8426160907e-08 4.9042003437e-08 1.42282641e-07 1.4644733146e-07 -8.3000162906e-08 4.4009540423e-08 
1.7883392529e-07 -1.9871972376e-07 1.887397911e-07 6.5668752848e-07 2.0925267831e-08 6.5606654081e-08 -1.0527085935e-07 -4.4474374451e-08 -7.1303642183e-08 
1.1299722366e-07 -7.8897578924e-08 -1.0629906041e-07 -1.1039611362e-07 -9.8379292835e-08 -3.5560901598e-07 5.86424683e-08 -3.5537983086e-07 -1.7049081343e-07 
6.7855526256e-08 -1.0993470212e-07 -1.0226275374e-07 
f 3 70 double
2.0254346393e-05 3.3608170072e-05 0.00011325562129 3.3183209558e-05 -0.00012245867504 4.7548518452e-06 3.506984481e-05 -1.4413826585e-05 -1.907727832e-05 
-9.2597273526e-06 1.1992960971e-05 -1.7891631202e-05 -2.7255948423e-05 -2.4523791079e-05 3.7986326379e-05 -1.740301477e-05 4.522760746e-05 3.1667421271e-05 
3.0963340392e-06 1.7321590762e-05 9.0990375133e-05 -2.3451704786e-05 -5.6438956976e-06 4.7300291205e-05 -8.5193914881e-06 1.1010096866e-05 -6.0287673641e-05 
4.1188808853e-05 1.1197782441e-05 9.4034979905e-06 5.7426343335e-05 4.8350279754e-06 1.8478307645e-05 -1.5002158952e-05 -1.7953146065e-06 -3.2232690819e-06 
2.3897904607e-05 7.145305701e-05 1.0616633832e-05 -8.4578930272e-05 -1.1154987199e-05 1.5150839765e-05 8.6833177384e-05 -6.3045848425e-05 -6.2654908785e-05 
-7.4970495724e-05 3.2328160014e-05 7.5124522178e-05 -1.6603883828e-05 2.5899089777e-05 -7.4531170355e-05 3.1837814589e-05 -3.7612007892e-05 6.5854757536e-07 
4.8432347398e-05 1.7196667627e-05 3.1548157451e-05 -1.3798300124e-05 -2.0402782145e-06 2.4905668018e-05 1.9119705164e-05 -8.6292930456e-06 -1.6466645106e-05 
5.163887243e-06 2.9155315112e-05 -7.4016378173e-06 2.8957065241e-05 7.0753037694e-06 -9.3224595045e-06 1.616476831e-05 -8.2702755595e-06 -1.5227368057e-05 
2.5294155442e-05 -1.3927843013e-05 5.2763368141e-05 2.7288613624e-05 -5.2189320936e-06 -1.8292677225e-05 1.1303948631e-05 1.6277190368e-05 5.1339576373e-06 
-2.6602768228e-05 -3.7642091076e-05 1.8433790817e-06 -3.6715821752e-06 9.36256456e-06 -3.8197816487e-05 2.8650395116e-06 1.1609220563e-05 -1.4950205217e-05 
8.5224808815e-06 -1.597815266e-06 -2.0769559746e-05 6.852034084e-05 1.8048570187e-05 -6.3087061804e-06 3.6489885702e-05 -2.3212267797e-06 2.8698861827e-05 
-2.4388923009e-05 3.5016879108e-05 1.4909300424e-05 -2.7162371556e-05 2.6175123392e-05 -4.1286425743e-05 -5.8195348609e-05 1.954350398e-06 8.7625586024e-05 
3.9565657455e-05 -9.5024703216e-06 8.8476954992e-06 -8.8509517627e-06 1.5655571424e-05 -5.1245552976e-06 3.287929094e-05 9.6274568051e-06 -1.347853134e-05 
2.8744218898e-05 -3.7564662172e-05 2.9714662821e-05 3.8417138982e-05 -9.6091962153e-06 -1.5613857863e-05 -8.7550509102e-06 -1.6465281543e-05 -1.3007654892e-06 
6.9228034612e-06 2.8768886654e-05 -1.1332484061e-05 4.0486377049e-05 -1.4620891769e-06 1.4198244365e-06 5.7335907453e-06 -1.3279964078e-05 -5.0223234504e-06 
-7.2009816985e-06 1.2492640386e-05 -1.9680625623e-05 5.0458937953e-07 -2.210818967e-05 6.8276181698e-06 -2.0314527116e-05 -1.1841698741e-05 3.0188099719e-05 
5.459706304e-05 1.3533038209e-07 -4.0923571066e-05 2.1231967305e-05 -3.7471643384e-05 -1.0272277502e-06 3.1454456034e-05 -2.0774300589e-05 8.0253813729e-07 
1.9747528932e-05 -2.9522129959e-05 -9.4288494865e-06 1.2748244101e-05 2.8108367363e-05 -2.497391303e-05 -3.8872289302e-05 1.4847389838e-06 3.4677248544e-05 
3.9210877814e-06 -1.1737108378e-05 -3.9173330039e-06 -2.1556887687e-05 -5.8538535207e-06 -2.1679241792e-05 1.3296722392e-06 -9.0058846367e-07 3.5508877502e-06 
-6.9775576191e-06 -7.4443903918e-06 -4.8125026077e-06 2.1484348023e-05 -6.8753328838e-06 -1.3427697836e-05 2.2710065543e-06 -3.8635331816e-06 6.9633074444e-06 
3.1128498793e-06 1.3059309938e-05 -3.2252624087e-05 7.124238026e-06 1.806800008e-06 -1.3791583817e-05 4.8196018627e-06 -6.7425212455e-06 8.0511427617e-07 
-8.7428409387e-06 5.4815270262e-06 9.3981540329e-06 -7.0120296773e-06 4.4273212648e-06 1.7116152948e-06 9.6724439395e-07 -1.2450186703e-05 4.9071499269e-06 
-1.5373854385e-05 -1.0516969412e-05 2.0393112454e-05 2.2377735091e-05 -2.7304112413e-06 -2.5888281658e-06 -3.1638988164e-06 -8.4574575668e-06 -1.3568457673e-06 
-5.5955258361e-06 2.2009549891e-06 -4.0594373724e-06 
radius 1 70 double
0.003 0.003 0.003 0.003 0.003 0.003 0.003 0.003 0.003 
0.003 0.003 0.003 0.003 0.003 0.003 0.003 0.003 0.003 
0.003 0.003 0.003 0.003 0.003 0.003 0.003 0.003 0.003 
0.003 0.003 0.003 0.003 0.003 0.003 0.003 0.003 0.003 
0.003 0.003 0.003 0.003 0.003 0.003 0.003 0.003 0.003 
0.003 0.003 0.003 0.003 0.003 0.003 0.003 0.003 0.003 
0.003 0.003 0.003 0.003 0.003 0.003 0.003 0.003 0.003 
0.003 0.003 0.003 0.003 0.003 0.003 0.003 
omega 3 70 double
-0.00085249249746 0.0001472605277 0.00018269702017 0.00020380115261 -0.0001504157818 0.00025745098925 -0.00065971313524 -0.0011420644612 0.00063015043961 
-4.6144584963e-06 -2.3316216673e-05 -0.00011270718698 -4.8174226987e-05 -4.8891198852e-05 0.00015300334293 -0.00012937394622 8.7696582717e-05 3.4037216166e-05 
-7.5881025574e-05 -0.0005982009227 0.00051029327453 0.00010424535777 -0.00019481010595 -9.879387417e-05 -4.0050131818e-05 4.9523234936e-05 -1.0050588525e-05 
-5.1405339337e-05 0.00023163579339 0.00015000748275 -0.0011838579081 -0.00046530991422 -0.00054726687117 0.00027932273722 -0.00067759166385 -0.00052965288244 
-0.00074297588303 -0.0019400603374 0.00049855968665 -0.00018839105295 0.00023442135221 0.00041776773227 -8.1826263891e-05 0.00033433783841 0.0027302095367 
-0.00014610162043 0.00025691959639 -0.00027370353627 4.9227908403e-05 -5.7770665401e-05 -0.00015939451933 -9.9486034792e-05 2.9061293271e-05 2.7667452738e-05 
-0.00076018223133 -0.00018327343552 7.8815652208e-05 -0.00095815929716 -9.1610834828e-05 -0.00072640603675 -0.00019118049827 -0.00029809424151 1.7835104624e-05 
0.00046559192665 0.00022122332495 0.00022254879389 0.00027763599374 -0.0012993764596 -7.7893618735e-05 -0.00015483296684 -0.00021758172636 0.00028910075236 
0.00019782223947 0.00026705463085 0.002255300506 -9.9671242056e-05 0.00012105360214 -1.7716279203e-05 -8.5584333362e-05 4.9197268282e-06 3.4106252326e-06 
-4.5830303239e-05 -0.00041388126534 -0.00014132881869 -5.0239721526e-05 0.00013338003936 0.00012975524762 -7.819577349e-05 0.00012447147689 3.3777450168e-05 
0.00021228673714 -5.9178358921e-05 -2.939900642e-05 -3.2635857504e-05 -4.6948889874e-05 0.00030602396599 -5.3634704503e-05 0.00036630731473 0.00037249183334 
-0.00012850155061 -7.3345746249e-05 -0.00054506813978 -0.00031986291278 -0.00040829203453 -5.7082133575e-05 -0.00048365579123 -0.00014474591026 0.00011969079183 
-0.00027141015564 -0.00036746262377 -0.0010420154555 0.00023636317766 -0.00025151793763 0.00019383912453 -0.00035477207088 -0.00024349888203 0.00011203198705 
-6.8260966777e-05 5.6669831235e-05 -3.7904941195e-05 -1.9922994812e-05 -7.8043854871e-05 -3.3773898255e-05 -0.00046582196033 0.00015330502743 0.0003822498469 
-0.00061936176525 -2.6072812156e-05 0.0011702382395 0.00030418861714 0.00011201178885 -0.0001580200917 -0.00013858893849 7.4228632631e-05 5.1724541201e-06 
2.3059239043e-05 -0.00017930904617 0.00013462254127 9.2670426598e-05 2.1994797234e-05 -4.1034439926e-05 0.00037121344797 -0.00020722466097 -0.00024342514015 
2.8425339012e-05 -7.4509272713e-05 0.00018012383331 -0.00026210520909 -8.0061767356e-05 0.00015020957937 -0.00017509051045 0.00015182445251 -3.8231213548e-05 
-0.00017920629716 6.7683028647e-05 0.00010808459341 0.00039792916531 -0.00016368995305 -0.0001032322927 0.00019169255756 0.00016295037319 -5.5051609914e-05 
2.3203104924e-05 0.00014989176183 -0.00060668521806 -0.00011019817895 3.7994275458e-05 -0.00026670693619 0.00020104377172 0.00010883731377 7.7459594155e-06 
0.0001725132031 4.1476597137e-06 -0.00016624865053 1.965628571e-05 4.869357278e-05 7.2579876228e-05 -0.00015627769957 6.9586256926e-05 -6.6538087168e-05 
-0.00016941932145 0.00029614013977 0.0003595634222 1.1392336748e-05 1.8149989063e-05 7.0699480304e-05 0.00015409920746 0.00012183988588 -6.0429968838e-05 
-0.0001708575565 -6.4522140536e-05 -3.5294801703e-05 4.3026486006e-06 -0.00028441618387 -0.00016077354177 -1.1573974788e-06 4.5254611375e-05 -4.9936228429e-05 
2.4266557624e-05 -0.00027192428302 -5.2430431554e-05 1.3658395502e-05 0.00014296007337 0.00013889388738 -5.822598576e-05 -0.00014386233421 2.2076160611e-05 
1.2574969247e-05 -6.4543329498e-06 -6.0952609625e-05 
