# vtk DataFile Version 4.2
Generated by LIGGGHTS
ASCII
DATASET POLYDATA
POINTS 70 float
0.0145465 -0.0386206 0.021429 -0.00511217 -0.0320306 0.0246572 0.0195276 -0.0353737 0.022298 
0.0177185 -0.0297075 0.0231337 0.0289881 -0.032928 0.0234221 -0.0164602 -0.0211995 0.0217007 
0.00551178 -0.0207073 0.0221573 0.0127132 -0.0279137 0.0291413 0.0253606 -0.0280473 0.0216034 
0.0309369 -0.0260974 0.022669 0.034118 -0.0209975 0.0238475 -0.00638813 -0.0177539 0.0226855 
0.034063 0.00259678 0.027414 0.00552128 0.0233476 0.0283668 0.014109 0.0227221 0.0260234 
-0.0204784 0.035029 0.0274165 0.0188575 -0.0358606 0.0301459 0.00225381 -0.0242363 0.0309869 
-0.0149187 -0.0144101 0.0330273 -0.00318617 -0.0178668 0.0367494 0.0237162 -0.0131548 0.0339599 
0.0362146 -0.0172535 0.0365224 0.0303823 -0.0162901 0.0378893 -0.00877847 -0.0114758 0.034737 
0.0179622 0.00989733 0.0375952 0.0306563 0.0148708 0.0308653 -0.0250295 0.0215908 0.0312748 
0.0146126 0.0234963 0.0366455 0.00260916 0.0305891 0.030081 -0.00952568 0.04273 0.0327198 
-0.00266152 -0.0210417 0.0429853 0.00727745 -0.026181 0.0427352 0.0399715 -0.0144612 0.0402735 
0.0175978 -0.00904626 0.0441579 0.0271453 -0.0108469 0.0397485 -0.0343456 0.0136786 0.0439725 
-0.0229491 0.0174354 0.0448697 -0.00753222 0.0282048 0.0425266 -0.000367173 0.020966 0.0460252 
-0.0275987 0.0292726 0.0454028 -0.0227236 0.0330529 0.0450291 -0.0192215 0.0343853 0.0403382 
-0.0130382 0.0306067 0.0434778 -0.0181049 0.0399452 0.0426175 -0.00949949 -0.0260652 0.0503504 
-0.00169502 -0.0222602 0.0510038 0.00237159 -0.0267656 0.0512427 -0.022702 -0.0143865 0.0517517 
-0.0173975 -0.0119951 0.0498988 -0.0184642 -0.0186453 0.0525255 -0.00807988 -0.0153756 0.0500698 
-7.83339e-05 -0.016285 0.0543008 0.00143322 -0.00999986 0.0488983 0.0178011 -0.00428417 0.0520931 
0.0237287 -0.00520289 0.052571 0.0372604 -0.00585711 0.0480711 0.00491755 -0.00303003 0.0524463 
0.0191253 -0.00123247 0.0470504 0.0243626 0.000160515 0.0496819 -0.0299526 0.00626946 0.0490161 
-0.0224707 0.00567975 0.0513603 -0.00142097 0.00965418 0.0482161 -0.0189301 0.0138856 0.0475937 
0.00533222 0.0197962 0.0475982 0.00776765 0.0143282 0.0529296 0.0174216 0.0172986 0.0513264 
-0.0163649 0.027948 0.0477748 0.0210767 0.0253261 0.0518764 -0.0201307 0.0319984 0.0504181 
-0.00621153 -0.0175676 0.0557543 
VERTICES 70 140
1 0 
1 1 
1 2 
1 3 
1 4 
1 5 
1 6 
1 7 
1 8 
1 9 
1 10 
1 11 
1 12 
1 13 
1 14 
1 15 
1 16 
1 17 
1 18 
1 19 
1 20 
1 21 
1 22 
1 23 
1 24 
1 25 
1 26 
1 27 
1 28 
1 29 
1 30 
1 31 
1 32 
1 33 
1 34 
1 35 
1 36 
1 37 
1 38 
1 39 
1 40 
1 41 
1 42 
1 43 
1 44 
1 45 
1 46 
1 47 
1 48 
1 49 
1 50 
1 51 
1 52 
1 53 
1 54 
1 55 
1 56 
1 57 
1 58 
1 59 
1 60 
1 61 
1 62 
1 63 
1 64 
1 65 
1 66 
1 67 
1 68 
1 69 

POINT_DATA 70
FIELD FieldData 7
id 1 70 int
1976 4218 3960 2255 2121 4044 1593 3155 5453 
2736 3241 3264 4415 3557 5477 4092 3525 4537 
203 5493 2267 2909 4333 3936 1174 2172 1373 
5591 4215 2597 5129 4774 375 958 3244 5469 
2154 5196 3303 4863 4669 2812 728 5429 3877 
2476 3395 3802 1779 5064 3049 1744 2673 1925 
3862 54 1457 3108 1428 597 912 934 394 
2539 844 467 661 717 3766 2824 
type 1 70 int
2 2 2 2 2 2 2 2 2 
2 2 2 2 2 2 2 2 2 
2 2 2 2 2 2 2 2 2 
2 2 2 2 2 2 2 2 2 
2 2 2 2 2 2 2 2 2 
2 2 2 2 2 2 2 2 2 
2 2 2 2 2 2 2 2 2 
2 2 2 2 2 2 2 
i 3 70 int
0 0 0 0 0 0 0 0 0 
0 0 0 0 0 0 0 0 0 
0 0 0 0 0 0 0 0 0 
0 0 0 0 0 0 0 0 0 
0 0 0 0 0 0 0 0 0 
0 0 0 0 0 0 0 0 0 
0 0 0 0 0 0 0 0 0 
0 0 0 0 0 0 0 0 0 
0 0 0 0 0 0 0 0 0 
0 0 0 0 0 0 0 0 0 
0 0 0 0 0 0 0 0 0 
0 0 0 0 0 0 0 0 0 
0 0 0 0 0 0 0 0 0 
0 0 0 0 0 0 0 0 0 
0 0 0 0 0 0 0 0 0 
0 0 0 0 0 0 0 0 0 
0 0 0 0 0 0 0 0 0 
0 0 0 0 0 0 0 0 0 
0 0 0 0 0 0 0 0 0 
0 0 0 0 0 0 0 0 0 
0 0 0 0 0 0 0 0 0 
0 0 0 0 0 0 0 0 0 
0 0 0 0 0 0 0 0 0 
0 0 0 
v 3 70 double
-0.072053844207 -0.030588404802 0.34321257451 -0.090804450817 0.012131804832 0.34658560071 -0.065528129768 -0.036380048388 0.3159546328 
-0.054755245485 -0.031759841965 0.30767866923 -0.034411559178 -0.062942289489 0.29831694662 -0.071646741609 0.029549463417 0.37328357986 
-0.075494623344 -0.020847271617 0.33316970362 -0.074434522703 -0.017037219454 0.30743084197 -0.039744816151 -0.02033896773 0.30664089707 
-0.043342200843 -0.028981006239 0.29326483877 -0.015820765739 -0.022063909885 0.29710193323 -0.077054833583 -0.00075529835249 0.36114313913 
-0.04529393812 0.015951160853 0.30697751175 -0.093870664078 -0.0024783092266 0.32464950974 -0.098884876723 0.00098369591982 0.32074591297 
-0.079284945695 -0.047781060061 0.34934321829 -0.063729532068 -0.025813482681 0.32875924307 -0.080006255693 0.0069331096116 0.32689316809 
-0.058259363544 0.030066523853 0.40951518928 -0.0856826226 0.0031461499511 0.34397980297 -0.033402898698 -0.0066128412466 0.2765091848 
-0.018476958665 0.01758834258 0.26530413254 -0.022614522413 0.0046762711285 0.27365236731 -0.067641495288 0.015215763719 0.38486120004 
-0.093045918691 0.012169969224 0.29522529476 -0.064420389838 0.051227629641 0.24865139723 -0.034322555188 -0.025219716769 0.36271230584 
-0.075181160441 0.048884689401 0.29503504266 -0.088024049369 -0.0013477383987 0.31170494795 -0.094070099175 -0.01736748838 0.30640593654 
-0.107250511 0.018065826104 0.32521131408 -0.068982110272 0.0078204565131 0.32643530883 -0.0037309564012 0.024987391431 0.23149430967 
-0.097748915434 0.073928549006 0.26064465583 -0.039507164195 0.041489867727 0.26788815111 -0.041154659974 0.053396323714 0.43580290988 
-0.047335574352 0.021219366126 0.43546958632 -0.07313663068 0.019144071947 0.336697378 -0.081435921621 0.032593660314 0.38128586012 
-0.0085423412 -0.010740007167 0.43821279082 0.011886594387 0.017056058433 0.42571860667 -0.095637694546 0.01100179904 0.38159246853 
-0.081807655348 0.0072329392202 0.36153288771 -0.047688963605 0.009909970977 0.42056019625 -0.10215179484 0.021300535367 0.37797959344 
-0.084300117477 0.0031570475597 0.31879202764 -0.081498516257 0.0030847209198 0.29646630199 -0.098009149668 0.10810498262 0.48760260372 
-0.13057482179 0.01065517793 0.47037510351 -0.131632538 0.040470394831 0.40841857254 -0.091844195506 0.03619124786 0.42468735065 
-0.060013098249 0.00078449543623 0.31960363985 -0.16732148456 0.056935710006 0.34875149217 -0.10678709885 0.046042637447 0.29876894891 
-0.14262322135 0.01135232128 0.22126456297 -0.015193316196 0.010955912336 0.21895568402 -0.13359616672 0.055838804998 0.32672512337 
-0.11013172291 0.074527158482 0.23894105532 -0.078865859585 0.046453271284 0.22072340306 -0.0065132426224 0.095328660534 0.48570017707 
-0.072939709877 0.18263519444 0.51916549369 -0.11450067576 0.06260541236 0.37088522561 -0.072629036974 0.069730883381 0.44203040964 
-0.097863854116 0.07477414313 0.34005888107 -0.13316623183 0.097521891684 0.29004255815 -0.069715872093 0.099154180067 0.24928410228 
-0.06384484875 0.066155196039 0.40341421963 -0.07182331281 0.10070914243 0.25957943884 -0.041162238667 0.091153797724 0.45632977266 
-0.053960590294 0.033036544844 0.37350826061 
f 3 70 double
0.0079415166645 -0.0011469185395 -0.0046780372948 -0.02918217759 0.012950149111 -0.044176487061 0 0 -0.0085430334339 
0.0011745528386 0.0036686243225 -0.014452600797 0 0 -0.0085430334339 -0.00040687274864 0.0038536156444 -0.0094972022616 
-5.713121851e-05 0.00043027979009 -0.012261751825 0 0 -0.0085430334339 0 0 -0.0085430334339 
0 0 -0.0085430334339 0 0 -0.0085430334339 0.0049621545962 0.0042401676026 -0.0095407343502 
0 0 -0.0085430334339 -0.0016361934474 -0.0059454207683 -0.023008290917 0.016493325944 0.00066613526482 0.0034689401273 
0.019554066507 -0.0091445614541 -0.017951813054 0 0 -0.0085430334339 0.023124949968 0.024634935541 -0.036015603265 
-0.017556149947 -0.0006341561356 -0.0089486187044 0 0 -0.0085430334339 0.0073567100408 -0.0044040943253 -0.0013513912468 
-0.038136912218 -0.016373733627 -0.045432704834 0.028039102621 0.011344862616 -0.029102010752 7.1162992921e-05 9.4563748288e-06 -0.0085134416443 
0 0 -0.0085430334339 -0.050587783965 0.06978418792 -0.10526809476 -0.001338732999 0.012101201875 -0.02418215889 
-0.0079954442436 0.0011670938229 -0.0096963091046 0.0093040386717 0.0015102662147 0.0005261531953 0 0 -0.0085430334339 
0.025459942121 0.0014562309954 0.0022523423638 -0.0095773288206 -0.0054756876142 0.0059089517917 -0.087302467835 0.032910876868 -0.070747655906 
0 0 -0.0085430334339 0 0 -0.0085430334339 0.0015258050771 -0.0018274306024 -0.0054366672328 
0 0 -0.0085430334339 0 0 -0.0085430334339 0 0 -0.0085430334339 
-0.032784661698 0.075928019864 0.001094600332 0 0 -0.0085430334339 -0.0012731788765 -0.017649561858 -0.0005319674529 
0 0 -0.0085430334339 0 0 -0.0085430334339 0.0075492038338 0.0049130375948 0.013438049946 
0 0 -0.0085430334339 -0.0042324161557 -0.013536807772 -0.01153203156 0 0 -0.0085430334339 
0 0 -0.0085430334339 0 0 -0.0085430334339 0 0 -0.0085430334339 
0 0 -0.0085430334339 0.039647383967 -0.0027934312357 0.068077229396 0 0 -0.0085430334339 
0 0 -0.0085430334339 -0.0020234020079 0.0025197531503 -0.0086823665831 0.020767127508 -0.00057558410031 0.0039709713263 
0 0 -0.0085430334339 0 0 -0.0085430334339 0 0 -0.0085430334339 
0 0 -0.0085430334339 0 0 -0.0085430334339 0 0 -0.0085430334339 
0 0 -0.0085430334339 0 0 -0.0085430334339 0 0 -0.0085430334339 
0 0 -0.0085430334339 0.0024851446001 -0.0046013305217 -0.008260207298 0 0 -0.0085430334339 
0 0 -0.0085430334339 
radius 1 70 double
0.003 0.003 0.003 0.003 0.003 0.003 0.003 0.003 0.003 
0.003 0.003 0.003 0.003 0.003 0.003 0.003 0.003 0.003 
0.003 0.003 0.003 0.003 0.003 0.003 0.003 0.003 0.003 
0.003 0.003 0.003 0.003 0.003 0.003 0.003 0.003 0.003 
0.003 0.003 0.003 0.003 0.003 0.003 0.003 0.003 0.003 
0.003 0.003 0.003 0.003 0.003 0.003 0.003 0.003 0.003 
0.003 0.003 0.003 0.003 0.003 0.003 0.003 0.003 0.003 
0.003 0.003 0.003 0.003 0.003 0.003 0.003 
omega 3 70 double
-2.3332436304 -4.9702977815 -0.6764431606 2.3101137571 -0.5855227449 0.54137695464 -6.0083469627 6.2719988029 -2.9510799551 
3.0990846282 2.8820104106 1.9762395522 -2.6672150885 0.99293012632 0.40064396688 2.7236337195 0.53881818599 -2.0349401295 
-0.38040949101 -1.2051727776 -1.0422053234 -4.125037327 0.86187551935 -0.59623066963 2.5884431795 3.7944507914 -1.0137348438 
-1.2652129258 4.9764453588 -3.6547732459 2.5412569596 -3.6653428708 -0.13386760567 4.3788161498 1.1695680682 0.75919794726 
-2.5842354 0.90593319823 0.53349294192 -2.1846833447 0.39834874199 0.35692040946 -1.6376025278 -0.48894551887 2.5220811766 
-0.3133603194 0.65478789534 0.64550756727 0.60801310968 0.97031866502 -4.779306561 -0.37476668373 2.4478884267 -0.30090322724 
0.82826356435 2.4756791578 0.89878404928 -6.178892159 0.68440912371 -1.7537293209 4.1852583977 2.7989696427 3.3713318542 
-1.5291845404 1.8508765245 2.8968862437 -1.1759651451 1.4890856536 4.2960271135 -2.488244043 1.170719819 1.8496317625 
1.5755900015 -5.8095783835 1.5489680611 -6.608994365 1.2159292992 2.0345239022 -6.1745944795 -1.0971512756 0.58454166573 
-5.2690148078 2.845592365 3.6533720412 -0.88911400252 3.3095505619 -0.58239550684 -7.8845812194 1.2594240631 -2.1647510591 
-4.0993099439 3.765686126 5.7491472032 -5.0540223975 -0.40677952431 3.457892564 -0.50573155693 12.677666845 1.3878579027 
-6.5514399853 -19.73051987 0.40124831731 0.51304164626 4.8619701362 0.019663481546 -16.395554851 -7.0325469051 4.5416826569 
-3.1893110671 0.063024571847 6.9799905612 0.010086406293 -3.8900000429 -0.29069953382 -0.18032718794 0.39099925884 5.0336401957 
-10.201987864 2.7196363328 -0.11575100869 -3.565688404 4.7558528168 -1.7836632319 6.901081648 5.9722857481 3.1350477376 
0.85321452131 4.3360795283 1.1866113143 -0.88687375032 -6.8766641369 -2.3611987208 3.7154105465 8.8985911556 -10.6699443 
4.9463806583 -0.21683670803 10.553221232 -9.7472692738 -1.0629774813 11.526033311 6.9646222442 3.2593526649 -5.3320505453 
-2.7839929397 -18.112615827 -4.557943814 18.291092065 0.18054307554 -3.0504857035 1.4932548113 6.1879896492 -5.4477502946 
-12.341672447 14.307225869 3.8485715827 5.331473615 -0.67879974873 6.1194418337 9.1012288396 10.802468852 -0.11017314412 
5.2985206858 -2.5621413016 -0.15245556326 -4.2081171829 -0.7163839789 -0.46798446024 16.874060401 18.044605704 4.0553633697 
-10.92616315 1.8091802688 -3.6729123317 -7.905230116 19.911961302 5.4947619735 3.3472844659 8.9539677985 21.195414689 
20.613560199 -9.8347528267 13.838927034 -3.1869395265 8.5219275653 4.5539800235 8.6485449023 7.9678219002 -4.8812417053 
-10.524561928 7.2269308505 8.1285843016 -6.2340294328 -3.5815931849 -9.9588552827 4.2002879347 -1.8613150307 2.4731697265 
8.6737866789 20.850633527 -5.6512663004 0.55723984159 10.824040881 -5.4532842501 4.9574522541 -8.0593072693 -16.004573619 
1.5121743552 14.089834856 3.774882766 
