# vtk DataFile Version 4.2
Generated by LIGGGHTS
ASCII
DATASET POLYDATA
POINTS 70 float
-0.0137148 -0.0194767 0.0170236 0.0176087 -0.0371223 0.0204422 -0.00284114 -0.0326639 0.0217775 
0.0225189 -0.0337818 0.0235576 0.0324428 -0.0293435 0.0231081 0.0208077 -0.0281004 0.02263 
0.0275271 -0.025962 0.0219612 0.0329699 -0.0227348 0.0223015 -0.00340846 -0.0179206 0.0195877 
0.0092502 -0.0199397 0.0206596 0.0356217 -0.0175964 0.0239555 0.0202411 -0.0348098 0.0302029 
0.00450451 -0.0252185 0.0282568 0.015329 -0.0267028 0.0289233 -0.0133696 -0.0149785 0.0297001 
-0.00191744 -0.0185068 0.0338118 -0.00747538 -0.012349 0.031193 0.0345755 0.00305457 0.0306839 
-0.0247705 0.0198278 0.0323362 0.0315174 0.0143461 0.0349319 0.00568331 0.0232287 0.02919 
0.0144039 0.0236339 0.0272598 -0.0231946 0.0331439 0.0290984 0.00159569 0.0303842 0.0319714 
-0.00117946 -0.0224032 0.0394403 0.0069561 -0.0270318 0.0410881 0.0243886 -0.0130103 0.0361209 
0.0362725 -0.0178259 0.0408296 0.0303658 -0.0168299 0.041371 0.0183315 0.00925154 0.0386 
-0.00803068 0.026256 0.0429791 0.0151923 0.0234044 0.0375906 -0.0220905 0.0324355 0.0434215 
-0.0141769 0.0415491 0.0362864 -0.00998356 -0.0258481 0.0492101 -0.00348906 -0.0244699 0.0508375 
-0.0187493 -0.0195009 0.0500976 -0.00816607 -0.0160534 0.0478995 -0.00859288 -0.0203693 0.0520917 
0.0269764 -0.0125538 0.0444692 0.0387549 -0.0157882 0.0459142 -0.0155435 -0.0115609 0.0497164 
0.000360889 -0.0123001 0.0481405 0.0178209 -0.0103829 0.0477844 0.0198815 -0.00545092 0.0518222 
-0.0204742 0.00526188 0.0516319 -0.000270458 0.0106152 0.0457893 -0.0331302 0.0121682 0.0465756 
-0.0235011 0.0167381 0.0467535 -0.0182604 0.0139098 0.0489968 0.00524341 0.0174249 0.0468752 
0.0165313 0.0147439 0.0511417 -0.0305521 0.0261576 0.0475591 -0.0126878 0.0282374 0.0462582 
-0.0159969 0.0263308 0.0509722 0.000358386 0.0208811 0.0455474 0.0210601 0.0240055 0.051724 
-0.0259425 0.0306797 0.0481518 -0.021562 0.0380374 0.0458328 0.00160294 -0.0253062 0.0560799 
-0.0215634 -0.0131971 0.0520705 -0.00328309 -0.0179705 0.056006 0.00177605 -0.00431753 0.0525067 
0.0150673 -0.00602997 0.0557162 0.0224335 -0.00863779 0.0567497 0.0366333 -0.00860347 0.0528448 
0.0248729 -0.00298053 0.0541318 -0.027463 0.00537513 0.0521134 0.00634243 0.0142649 0.0531508 
-0.0225059 0.0316292 0.0533369 
VERTICES 70 140
1 0 
1 1 
1 2 
1 3 
1 4 
1 5 
1 6 
1 7 
1 8 
1 9 
1 10 
1 11 
1 12 
1 13 
1 14 
1 15 
1 16 
1 17 
1 18 
1 19 
1 20 
1 21 
1 22 
1 23 
1 24 
1 25 
1 26 
1 27 
1 28 
1 29 
1 30 
1 31 
1 32 
1 33 
1 34 
1 35 
1 36 
1 37 
1 38 
1 39 
1 40 
1 41 
1 42 
1 43 
1 44 
1 45 
1 46 
1 47 
1 48 
1 49 
1 50 
1 51 
1 52 
1 53 
1 54 
1 55 
1 56 
1 57 
1 58 
1 59 
1 60 
1 61 
1 62 
1 63 
1 64 
1 65 
1 66 
1 67 
1 68 
1 69 

POINT_DATA 70
FIELD FieldData 7
id 1 70 int
4044 1976 4218 3960 2121 2255 5453 2736 3264 
1593 3241 3525 4537 3155 203 5493 3936 4415 
1373 2172 3557 5477 4092 4215 5129 4774 2267 
2909 4333 1174 5196 5591 2812 2597 3877 2476 
5064 3049 2824 3244 375 1779 2673 958 3108 
912 934 5469 2154 394 2539 467 4863 728 
661 3303 717 4669 5429 3395 3802 1744 1457 
1925 3862 54 1428 597 844 3766 
type 1 70 int
2 2 2 2 2 2 2 2 2 
2 2 2 2 2 2 2 2 2 
2 2 2 2 2 2 2 2 2 
2 2 2 2 2 2 2 2 2 
2 2 2 2 2 2 2 2 2 
2 2 2 2 2 2 2 2 2 
2 2 2 2 2 2 2 2 2 
2 2 2 2 2 2 2 
i 3 70 int
0 0 0 0 0 0 0 0 0 
0 0 0 0 0 0 0 0 0 
0 0 0 0 0 0 0 0 0 
0 0 0 0 0 0 0 0 0 
0 0 0 0 0 0 0 0 0 
0 0 0 0 0 0 0 0 0 
0 0 0 0 0 0 0 0 0 
0 0 0 0 0 0 0 0 0 
0 0 0 0 0 0 0 0 0 
0 0 0 0 0 0 0 0 0 
0 0 0 0 0 0 0 0 0 
0 0 0 0 0 0 0 0 0 
0 0 0 0 0 0 0 0 0 
0 0 0 0 0 0 0 0 0 
0 0 0 0 0 0 0 0 0 
0 0 0 0 0 0 0 0 0 
0 0 0 0 0 0 0 0 0 
0 0 0 0 0 0 0 0 0 
0 0 0 0 0 0 0 0 0 
0 0 0 0 0 0 0 0 0 
0 0 0 0 0 0 0 0 0 
0 0 0 0 0 0 0 0 0 
0 0 0 0 0 0 0 0 0 
0 0 0 
v 3 70 double
0.087062063313 -0.004057362339 -0.37380532996 0.062450477059 0.018483325864 -0.28591485677 0.065658057564 -0.019942312656 -0.33593360865 
0.037468890874 0.015670219889 -0.26543418209 0.034645579193 0.0028190348186 -0.26189987048 0.046473630117 0.020535588734 -0.2724172764 
0.035727088141 0.0073083287335 -0.25086167369 0.011462547649 0.010385235879 -0.27942428071 0.074995178577 -0.012924992739 -0.3406886691 
0.074176603127 0.00096385733913 -0.31639257529 0.033570488425 0.0074073344839 -0.26409239735 0.017395022342 0.01430356448 -0.25297919135 
0.042737413105 -0.015778072562 -0.30632898559 0.026114766371 0.0059568595831 -0.27922247771 0.053125802712 -0.027369380599 -0.36850737658 
0.043037202997 -0.027533388922 -0.32529159589 0.053218155309 -0.027891579404 -0.34943802527 0.022475361981 -0.045064796998 -0.22371960734 
0.024254644918 -0.015380182819 -0.34782213432 0.035388077397 -0.054889309257 -0.21086880548 0.062606922161 -0.023416675172 -0.28239432502 
0.062302467037 -0.027758735109 -0.26884595867 0.026626266772 0.0081057040481 -0.32007347024 0.050162061698 -0.021488599943 -0.28794039282 
0.023918239478 -0.026138713135 -0.30432797266 0.0060020230172 -0.02169913451 -0.25235542478 0.019335112073 -0.031710588318 -0.22812770374 
-0.0014618754647 -0.016392277126 -0.1862475758 -0.0047144804829 -0.022830696118 -0.18983279266 0.028508524873 -0.033538990104 -0.23719987131 
0.012024749163 -0.038633267441 -0.31635888095 0.042425847389 -0.032219030563 -0.26557127735 -0.023552623851 -0.035413285855 -0.33552983255 
0.011848889217 0.0061959783843 -0.29828520813 0.00022345313371 -0.046470361972 -0.31292658347 0.0098880787185 -0.064113590759 -0.27127062822 
-0.0093414862239 -0.065174964076 -0.36561138177 0.025884333469 -0.057474354226 -0.30366454497 -0.0018378232404 -0.036816151517 -0.29715567371 
-0.006953135337 -0.029975713162 -0.19525913826 -0.01103117235 -0.054291587946 -0.17103651964 0.012829610449 -0.098530263414 -0.3565136532 
0.018576064746 -0.052749172315 -0.27533060841 0.010115537723 -0.03404268694 -0.18940561188 0.0044260730365 -0.055267064695 -0.18250777761 
-0.017081582993 -0.090957787481 -0.35425858222 0.017764480775 -0.042293996355 -0.2934804396 -0.01525317625 -0.082131745718 -0.37481936395 
-0.0078709160982 -0.057044639791 -0.35141058926 -0.029376223699 -0.053971078974 -0.3721935412 0.023690510765 -0.044208765774 -0.28448435099 
0.026487806759 -0.041855383997 -0.2255052112 -0.053541733163 -0.052518958319 -0.34206496243 -0.00053461008538 -0.037014554239 -0.3329808118 
-0.024246443071 -0.070522442561 -0.3634300425 0.016970805287 -0.044504756649 -0.30249764834 0.019438011547 -0.02510598766 -0.24529159485 
-0.036851441093 -0.059224780442 -0.34260353283 -0.036438442979 -0.028219333986 -0.33402531146 -0.0037475630054 -0.045949216548 -0.22304766747 
0.012315542936 -0.1165271849 -0.37825438803 0.0035295898778 -0.080208932424 -0.28929200291 0.0052967172571 -0.061950666712 -0.26813819677 
0.0016483396872 -0.055563535811 -0.17468828802 -0.0011452230831 -0.063667759909 -0.1713466275 -0.0026861267831 -0.046019776698 -0.16045386702 
-0.00072863527455 -0.066295477274 -0.17444274027 -0.029708729952 -0.092974699841 -0.3744854491 0.044956501819 -0.053350471111 -0.26263563587 
-0.034621662669 -0.066625545201 -0.31663759424 
f 3 70 double
0 0 -0.0085430334339 0 0 -0.0085430334339 0 0 -0.0085430334339 
0 0 -0.0085430334339 0 0 -0.0085430334339 0.0046054890661 0.0083283957746 -0.0069204607087 
0 0 -0.0085430334339 0 0 -0.0085430334339 0 0 -0.0085430334339 
0 0 -0.0085430334339 0.0026744060544 -0.01907850502 -0.010385711788 0.00084708425032 -0.0004918612362 -0.0081827347679 
0.009853850601 -0.011092821531 -0.010327997022 0 0 -0.0085430334339 0 0 -0.0085430334339 
0 0 -0.0085430334339 0 0 -0.0085430334339 0 0 -0.0085430334339 
0 0 -0.0085430334339 0 0 -0.0085430334339 0 0 -0.0085430334339 
0.0058682026094 0.0063104619843 -0.020586238979 0 0 -0.0085430334339 0 0 -0.0085430334339 
-0.011389704511 0.0065381299177 0.0020407043104 0 0 -0.0085430334339 0 0 -0.0085430334339 
-0.00021607581927 0.00026930013775 -0.0081930702977 0.0069369252404 0.0011465258055 -0.0067805191387 0 0 -0.0085430334339 
0 0 -0.0085430334339 0 0 -0.0085430334339 0 0 -0.0085430334339 
0 0 -0.0085430334339 0 0 -0.0085430334339 0 0 -0.0085430334339 
0.00030476985788 -8.5167354724e-06 -0.0085977805454 0 0 -0.0085430334339 0 0 -0.0085430334339 
0 0 -0.0085430334339 0 0 -0.0085430334339 0 0 -0.0085430334339 
0 0 -0.0085430334339 0 0 -0.0085430334339 0 0 -0.0085430334339 
0 0 -0.0085430334339 0.0079550726082 -0.020193022543 -0.016034288682 0 0 -0.0085430334339 
0 0 -0.0085430334339 0 0 -0.0085430334339 0 0 -0.0085430334339 
0.011167820321 0.0040356488738 -0.012227835474 -0.017283855846 -0.018068633946 0.031537319904 0 0 -0.0085430334339 
0 0 -0.0085430334339 0 0 -0.0085430334339 0 0 -0.0085430334339 
0 0 -0.0085430334339 0 0 -0.0085430334339 0 0 -0.0085430334339 
0 0 -0.0085430334339 0 0 -0.0085430334339 0 0 -0.0085430334339 
0 0 -0.0085430334339 0 0 -0.0085430334339 0 0 -0.0085430334339 
0 0 -0.0085430334339 0 0 -0.0085430334339 0 0 -0.0085430334339 
0 0 -0.0085430334339 
radius 1 70 double
0.003 0.003 0.003 0.003 0.003 0.003 0.003 0.003 0.003 
0.003 0.003 0.003 0.003 0.003 0.003 0.003 0.003 0.003 
0.003 0.003 0.003 0.003 0.003 0.003 0.003 0.003 0.003 
0.003 0.003 0.003 0.003 0.003 0.003 0.003 0.003 0.003 
0.003 0.003 0.003 0.003 0.003 0.003 0.003 0.003 0.003 
0.003 0.003 0.003 0.003 0.003 0.003 0.003 0.003 0.003 
0.003 0.003 0.003 0.003 0.003 0.003 0.003 0.003 0.003 
0.003 0.003 0.003 0.003 0.003 0.003 0.003 
omega 3 70 double
2.1893866377 -4.6039546004 -4.6290493144 -0.58091214581 -7.0208426545 1.7978450327 0.076397718189 -2.2478790203 1.3327481441 
-1.5239963476 -1.1183353914 -1.4096292196 -2.734029059 -5.2848185643 2.4037071726 0.61788699777 -2.3663477502 -1.8482545696 
2.5677763708 -1.2375086903 -2.1393866924 0.96807163649 4.5312798113 -2.0923574942 2.5525659752 -2.3420581572 1.4623567972 
1.2138495589 -0.65289661073 1.6361080819 3.2854375323 -6.5626060134 -4.516235131 2.4872541668 -4.2197646796 0.46793244545 
1.8818016569 -4.1709546603 2.9792634081 0.8899854024 -6.1490647738 -1.4085839708 0.76284877312 -5.0851140663 1.4360757002 
0.22457372043 -5.1700492985 0.60811519255 1.3504102937 -4.1239390919 0.50817972419 2.1530860167 -1.3750572497 -1.8652949272 
3.2967621443 -2.967250523 3.2933276569 1.1646832274 -2.5493492629 -0.89726330159 0.46416429437 -2.080470157 -0.27102054739 
-0.078202140481 -2.3182497175 -0.3245303704 -1.9793848459 -2.7367291388 -0.47793823709 0.27564673603 -1.8653668133 0.25669441411 
-0.3559949758 -3.2731265923 -4.5869587773 4.3286365851 -5.1876638581 -0.57101995724 2.9495998222 -2.8165460337 -0.58379508188 
5.1857941562 0.97186636653 1.6239634971 2.5286493255 -1.9929299837 -2.0132948183 1.1756643504 -1.4491573568 1.4932617554 
0.92787556432 -3.1466078157 -0.97053671626 -1.2712546141 -1.4889464228 -0.48145682938 0.67469883359 -4.2902853594 -0.30316250919 
5.9757041474 0.9043140991 -0.014076635247 8.3516529702 -3.8393757823 -2.9830708052 0.91692916375 -3.4309879875 4.9095203879 
1.4747019856 -3.1368436522 9.4900628497 4.201871681 2.0673711753 -3.9350410427 -1.9202796036 -3.4561038474 10.666621129 
1.6071908427 -4.592140874 -0.58213541886 0.60142655658 -2.8846231605 1.1173710648 -3.976664899 -2.4020421618 0.42331865637 
1.1648012008 -2.4667843808 0.87546503529 -1.5841561602 -3.2887992294 -0.64798848422 -0.88102931003 0.79646229295 -1.2491515352 
4.1496956488 -8.1373043161 9.5640809806 -0.63190699486 -4.2596689698 0.2094280697 4.8879497763 -0.48319086997 2.4966382783 
2.2953495327 -5.7386361953 -0.045440091838 3.1242268466 -8.6245438547 0.30480722322 0.19679135778 -1.242440312 -0.46893432238 
-2.205383381 1.7267142181 1.0945369636 0.35927305746 -8.7985594373 3.3168257214 0.22231812589 -6.9149527649 3.811434565 
0.80758038227 -5.1319651601 3.5059365754 0.11506945239 -3.0116581493 -2.147516888 -1.9906934656 -0.79649771999 0.97630846541 
1.2134187155 -2.5714256179 -2.8350036256 4.7058611987 0.67725132142 5.4946459102 7.7842131999 -1.6449248495 8.9585515605 
-0.016111759219 0.94081706344 11.573333264 10.140433876 -12.450389272 9.4986728836 -3.2836891835 -3.5899017691 4.5241449965 
0.81069081254 3.5359597089 -0.65975229921 7.5152457268 -2.8855927769 1.9421912063 0.74343076663 -0.35107677394 -2.5564095929 
6.2000204935 -2.7383239425 1.7802402131 -2.745792344 -11.035311796 1.5380882862 -0.61798922289 -3.948419662 -0.26645175858 
-8.0061529268 -3.9884536703 -6.990853807 
