# vtk DataFile Version 4.2
Generated by LIGGGHTS
ASCII
DATASET POLYDATA
POINTS 70 float
0.00415465 -0.0398914 0.00499925 0.00189332 -0.0127272 0.00918618 0.0161664 -0.00511958 0.00499963 
-0.0288731 0.000683799 0.00499951 -0.00627622 -0.0030752 0.00840947 -0.00173169 -0.00115005 0.00499867 
-0.00954385 0.0115412 0.00499923 0.00596364 0.00673481 0.00499935 0.034077 0.00940819 0.00942642 
-0.0244976 0.0129951 0.00499909 -0.00413072 0.0187455 0.00499898 -0.0271457 0.0228517 0.01022 
0.00848482 0.0222272 0.00737971 0.0327017 0.0237786 0.00499893 -0.0158004 0.0300754 0.00499936 
0.0104887 0.0321008 0.00810017 0.0193373 0.0303733 0.00744596 -0.0120432 -0.0345829 0.018388 
0.0180697 -0.0197106 0.0181489 0.0357458 -0.0185345 0.0178799 0.031029 -0.00345835 0.0187753 
0.00221153 0.011842 0.0116273 -0.0318749 0.0152471 0.0189962 0.0274982 0.0234341 0.0175247 
0.00626413 -0.0387443 0.0202854 0.0222686 -0.0233558 0.0262158 -0.0203187 -0.0151885 0.021603 
0.00678315 -0.0144132 0.0242332 0.0249597 -0.0106361 0.0227673 0.011572 -0.00156321 0.0247216 
0.0176547 -0.00338255 0.0199045 0.0254961 -0.00154087 0.0263904 -0.0305904 0.00710548 0.0246424 
0.00935546 0.00965154 0.0251507 0.0275189 0.0099088 0.0261827 -0.000308175 0.0141261 0.0236588 
0.0125088 0.0175187 0.0272189 0.00184312 0.0281875 0.0214579 0.0228226 0.0375984 0.0195493 
-0.0145585 -0.0310339 0.032851 -0.010359 -0.0324735 0.0287771 0.016791 -0.0311122 0.0346448 
0.0263484 -0.0317271 0.0280191 -0.0418205 -0.01362 0.0322057 -0.00841225 -0.0153001 0.0317959 
0.0200132 -0.0163745 0.0317398 0.00855049 -0.00731594 0.0353744 -0.0170789 0.00802934 0.0292565 
0.035766 0.00753716 0.0279136 -0.00440421 0.0223088 0.0280027 0.0131928 0.0212309 0.0318824 
-0.0275159 0.0323081 0.0333748 -0.00252423 0.0405105 0.0293863 -0.00337846 -0.0208856 0.0400041 
-0.0125358 -0.0166588 0.0424125 0.00325236 -0.0159539 0.0365206 0.0263872 -0.0175727 0.0382567 
-0.0319993 -0.0092699 0.0411704 -0.0143467 -0.0075823 0.0433045 -0.0084736 -0.00787378 0.0421132 
-0.0249206 0.00132677 0.03753 -0.026906 -0.00358548 0.0443499 -0.00458335 0.0105025 0.0433803 
0.0210925 0.00651767 0.0360969 -0.00420116 0.0197373 0.0439462 -0.0130053 0.0259172 0.0402099 
0.0192862 0.0319925 0.0364117 0.000513989 -0.0272944 0.0448254 0.0256082 -0.00272951 0.0448913 
-0.0121959 0.0308986 0.0466202 
VERTICES 70 140
1 0 
1 1 
1 2 
1 3 
1 4 
1 5 
1 6 
1 7 
1 8 
1 9 
1 10 
1 11 
1 12 
1 13 
1 14 
1 15 
1 16 
1 17 
1 18 
1 19 
1 20 
1 21 
1 22 
1 23 
1 24 
1 25 
1 26 
1 27 
1 28 
1 29 
1 30 
1 31 
1 32 
1 33 
1 34 
1 35 
1 36 
1 37 
1 38 
1 39 
1 40 
1 41 
1 42 
1 43 
1 44 
1 45 
1 46 
1 47 
1 48 
1 49 
1 50 
1 51 
1 52 
1 53 
1 54 
1 55 
1 56 
1 57 
1 58 
1 59 
1 60 
1 61 
1 62 
1 63 
1 64 
1 65 
1 66 
1 67 
1 68 
1 69 

POINT_DATA 70
FIELD FieldData 7
id 1 70 int
203 1744 375 597 1457 912 661 54 958 
394 467 1373 717 1174 728 934 844 1779 
1976 1593 2267 1428 2154 1925 2673 3155 2824 
2476 2255 2736 2121 2909 2812 3525 3244 2597 
3108 2539 2172 3802 3049 3936 3264 3766 3877 
3960 4218 3395 3241 3303 3862 4092 3557 4774 
5469 4537 4044 4863 5064 5129 4669 5429 5196 
4333 5591 4215 4415 5493 5453 5477 
type 1 70 int
2 2 2 2 2 2 2 2 2 
2 2 2 2 2 2 2 2 2 
2 2 2 2 2 2 2 2 2 
2 2 2 2 2 2 2 2 2 
2 2 2 2 2 2 2 2 2 
2 2 2 2 2 2 2 2 2 
2 2 2 2 2 2 2 2 2 
2 2 2 2 2 2 2 
i 3 70 int
0 0 0 0 0 0 0 0 0 
0 0 0 0 0 0 0 0 0 
0 0 0 0 0 0 0 0 0 
0 0 0 0 0 0 0 0 0 
0 0 0 0 0 0 0 0 0 
0 0 0 0 0 0 0 0 0 
0 0 0 0 0 0 0 0 0 
0 0 0 0 0 0 0 0 0 
0 0 0 0 0 0 0 0 0 
0 0 0 0 0 0 0 0 0 
0 0 0 0 0 0 0 0 0 
0 0 0 0 0 0 0 0 0 
0 0 0 0 0 0 0 0 0 
0 0 0 0 0 0 0 0 0 
0 0 0 0 0 0 0 0 0 
0 0 0 0 0 0 0 0 0 
0 0 0 0 0 0 0 0 0 
0 0 0 0 0 0 0 0 0 
0 0 0 0 0 0 0 0 0 
0 0 0 0 0 0 0 0 0 
0 0 0 0 0 0 0 0 0 
0 0 0 0 0 0 0 0 0 
0 0 0 0 0 0 0 0 0 
0 0 0 
v 3 70 double
-5.8895893904e-07 1.1927775321e-06 1.8838243476e-06 -5.178095809e-07 1.1746958448e-06 -8.6888483925e-08 2.6533966445e-07 -1.2151140458e-06 2.0775358565e-06 
1.7204665946e-07 3.082964879e-08 -4.9944021144e-09 7.0301417644e-07 -6.5987509462e-08 8.1472938397e-08 -2.8219625842e-07 -1.9863904282e-07 4.2791602883e-07 
-3.3884456718e-07 5.0751640556e-07 2.1298548903e-07 3.9868426648e-07 3.6550440669e-07 1.0486297049e-07 3.4107186574e-07 -8.9471497977e-07 -1.0427996141e-07 
6.0308105464e-07 2.4274065437e-06 -4.2156986047e-06 6.7589197232e-06 -9.498818578e-08 -1.8963128227e-06 -9.0591534414e-07 -1.6375827348e-06 -2.0525670671e-06 
-8.130156443e-10 -1.6292769251e-06 8.803662419e-07 1.3051268294e-08 -2.6466384649e-07 -5.7345075705e-08 7.0058350174e-06 -4.5746812101e-06 -1.8875989763e-06 
3.0780125479e-06 -1.2637541316e-07 1.4497955845e-06 -3.2184736502e-07 -5.2851321329e-08 -1.7533112467e-07 6.8616215268e-07 -3.7802011521e-07 -3.8925366978e-07 
1.4438433368e-06 6.7940542204e-09 4.4353948575e-07 -7.1699394366e-07 -1.9780179006e-07 -8.1444566494e-07 5.0061805127e-07 -6.5403817654e-07 -1.3291584179e-07 
8.5600447815e-08 -2.8153628248e-07 -3.7007384403e-07 -5.6103494329e-07 -1.4443678489e-07 9.0586879568e-08 1.0269140232e-07 7.8810591748e-07 2.8053818866e-08 
-1.7849880384e-06 -6.0600458949e-07 3.0433741798e-06 5.3844418311e-07 -5.4847560179e-07 4.6717758396e-08 3.5533317356e-07 1.7893776887e-07 -2.957746666e-08 
4.6742910809e-07 -3.5650149746e-07 3.417949917e-07 -4.4476794747e-07 -1.8423213262e-07 -1.0332903882e-06 -1.599291498e-07 6.1281984628e-07 5.56271726e-07 
1.0921352878e-08 -4.2109962333e-07 -1.8857897391e-07 1.8411740252e-07 6.7680991611e-08 -1.8658376824e-07 5.4985780013e-07 -2.5274673602e-07 2.6026716268e-07 
-1.6428752861e-06 1.0713853465e-06 7.1170054796e-07 -2.8817779268e-07 -7.8345689698e-07 4.1010704431e-07 -3.0107465668e-07 5.6779754551e-08 6.1918030765e-07 
1.2888263052e-06 -1.0070552569e-07 3.5098356159e-07 1.7548131144e-07 -7.5354736283e-07 -2.8429075791e-07 4.3259687898e-07 4.4194683277e-08 4.0663001908e-07 
1.0280588068e-07 -4.6687966043e-08 3.4361396923e-07 -1.4649298876e-07 -1.5468816757e-07 2.4066866559e-08 -2.9733967158e-09 1.1110534671e-06 -1.139911779e-06 
6.5166128713e-07 1.2313419142e-06 -2.3412150422e-06 1.7333647329e-07 -5.8305534664e-07 1.9909393772e-07 3.287075056e-08 -2.1045145714e-07 1.295195943e-07 
-2.7046642605e-07 -3.1045570582e-07 3.5132943448e-07 -4.1922239173e-08 -2.0871670738e-07 -3.8263412024e-08 5.6899137989e-07 -4.8508586262e-07 1.611564975e-07 
-5.4770546552e-07 9.566335612e-08 6.262056835e-07 -4.985482686e-07 6.1905525395e-07 2.0795180909e-07 6.2439485068e-07 -2.0551007969e-07 -2.8936074428e-07 
-2.7030674516e-07 -4.3932831548e-08 -7.934050025e-07 5.3399592978e-07 -1.5988313073e-07 2.9214142319e-07 -2.1160232594e-07 -1.0110771254e-07 -2.8116728618e-07 
1.7261650557e-07 1.5329880632e-07 1.3034569135e-07 -2.4035508812e-07 -1.8175413828e-08 1.8679845984e-08 -1.5157781509e-07 -8.27966862e-07 -3.5363737817e-08 
1.6726475323e-07 -3.1015346476e-07 2.587584573e-07 -7.046664332e-09 6.2541186845e-08 4.7143682324e-08 -9.2134601981e-08 -1.1721763659e-08 -6.1983596318e-08 
-3.8122836413e-07 -2.5991477975e-07 2.3512199434e-08 3.8017999209e-08 -5.2536252959e-09 1.6417179818e-07 -1.8572701902e-07 1.7486655434e-07 -1.4946416451e-07 
-1.2570415473e-06 1.3265421968e-06 1.4622100262e-06 1.7356160232e-07 -4.7836796042e-08 -2.3654833873e-07 -1.5948282803e-08 8.3605030554e-09 -1.0886287022e-07 
2.1007934846e-07 1.0990488175e-07 -2.0115479782e-07 1.0466735608e-07 2.8639738918e-07 4.8361103091e-07 5.1395225891e-08 -7.8026942374e-08 3.1667152346e-07 
-1.6622772784e-07 6.9953003475e-08 -2.2177628632e-07 
f 3 70 double
-2.9408438878e-07 2.1349281855e-05 0.00011932198058 5.6360705984e-05 -3.8718189212e-05 -2.6227744383e-05 4.2331939937e-05 -1.7108244278e-05 -1.8981833379e-05 
-9.9098199551e-06 1.2840480818e-05 -2.2523740116e-05 -2.7296531327e-05 -2.465510238e-05 2.9810028611e-05 -1.7542744281e-05 4.2042608487e-05 3.2273207358e-05 
-1.6259748593e-05 4.2004932064e-05 9.9895656604e-05 -2.4020231346e-05 -7.8703590676e-07 3.8479039843e-05 -1.0257761156e-05 5.4047393872e-06 -6.5832028752e-05 
-1.4720958007e-05 -3.3615267365e-05 8.2365904797e-05 -2.9246323099e-05 2.5432861127e-05 9.4045561729e-05 8.3537404877e-05 -2.7714640083e-05 -6.7211114614e-05 
3.6697515657e-05 5.9311512981e-05 1.3000611193e-05 -9.2163261869e-05 -2.1104296859e-05 1.8916982871e-05 -1.2245235888e-05 1.9954220828e-06 -9.4296553836e-05 
-9.3265986905e-05 5.5568421504e-05 0.0001096681568 -1.163324656e-05 2.9541489481e-05 -6.6834349516e-05 2.7812726575e-05 -3.0249237175e-05 6.264507461e-06 
2.8195266135e-05 -1.9875768598e-06 3.5375055575e-06 4.5022866165e-06 -9.8601156978e-06 4.275431212e-05 3.4675372005e-06 -1.2431632656e-05 -2.7099116972e-05 
-7.852265226e-06 4.3647573683e-05 6.3193079087e-06 5.5885100843e-05 2.4860278117e-05 -1.3019947751e-05 1.6796085328e-05 -1.2226903695e-05 -1.8656744512e-05 
5.9908200947e-05 -6.4789140118e-05 -1.7549868897e-05 1.3879460662e-05 1.1265324071e-05 -1.0446717393e-05 1.0999593368e-05 1.7663258424e-05 2.4949463389e-06 
0.00013200331037 2.697115014e-05 3.5079841912e-05 -1.1316481482e-05 6.8371024943e-06 -3.8979736214e-05 -1.8968075189e-05 -2.0326812407e-05 2.0288702905e-05 
4.8792697584e-05 -4.0946963982e-05 -5.2962598423e-05 7.0604177458e-05 2.3548938361e-05 1.3337819356e-05 2.9935653916e-06 -3.3093484828e-06 3.7391570529e-07 
-3.5423842188e-05 -9.8550823136e-06 3.2880423275e-05 -3.7123044882e-05 1.2680908283e-06 -1.4652722601e-05 -3.8970213536e-05 -9.6982652764e-06 2.5683168908e-05 
8.6632919322e-07 -6.6441205919e-06 -5.0669507882e-06 -8.0929981512e-06 1.4637142176e-05 -2.405375887e-06 2.7929927121e-05 1.7390794026e-05 -2.0636666813e-05 
2.421314766e-05 -1.6765616294e-05 2.8956072787e-05 3.433109066e-05 -6.8636884524e-06 -2.3801881247e-05 1.3167193262e-05 5.2448251804e-06 1.7069537868e-05 
4.3552407736e-06 1.8778605118e-05 8.9967926913e-06 2.2723282089e-05 2.3021445676e-05 -1.2583601058e-05 4.4505705864e-06 -1.2892132314e-05 -4.6834229237e-06 
6.226318112e-06 1.0853914074e-05 -1.8368622384e-05 1.1103381363e-06 -1.403008527e-05 -1.7524409845e-06 -4.1640654393e-05 4.6046079983e-06 4.2387009558e-05 
5.6848175712e-05 -7.817434614e-08 -3.8152895671e-05 4.2042657885e-05 -4.7812751505e-05 2.9946075705e-05 1.0961857199e-05 -2.2909008177e-05 -2.7829716436e-05 
-1.2617113863e-05 -3.2506717312e-05 -1.1274809961e-05 -6.7755587697e-06 1.0859981905e-06 -1.7739561957e-05 -2.1236833029e-05 9.9065343423e-07 6.7051055895e-06 
3.3865692583e-06 -7.4344634482e-06 -1.5399794693e-07 -1.2693026266e-05 -1.1596682028e-05 -1.3915967451e-05 4.4135130165e-06 1.1949983101e-06 1.5254786506e-05 
-7.9930649884e-06 -9.8639825988e-06 -8.4216703371e-06 8.2284653315e-06 -7.5824690812e-06 -9.2775709279e-06 2.7392567661e-06 -1.2176159955e-05 1.6025673577e-05 
1.6767732582e-05 2.6246653008e-05 -5.6872724889e-05 6.6032611714e-06 1.6514580017e-06 -1.7603085599e-05 8.2460759631e-06 -2.3771283316e-06 6.5161215394e-06 
-3.5936988859e-05 1.6494466359e-05 6.0299717961e-06 -2.0189549572e-05 2.9890742039e-06 5.1201658761e-06 -6.7434002978e-06 -7.2727075747e-06 5.3273494075e-06 
-1.4544201748e-05 -1.9276373814e-05 1.706662241e-05 3.9789130342e-06 -7.1074048176e-06 -3.4939182871e-07 -4.7038307649e-06 -5.8870964035e-06 -5.7796664698e-07 
6.597166744e-06 1.6394982243e-06 -4.8008373076e-06 
radius 1 70 double
0.003 0.003 0.003 0.003 0.003 0.003 0.003 0.003 0.003 
0.003 0.003 0.003 0.003 0.003 0.003 0.003 0.003 0.003 
0.003 0.003 0.003 0.003 0.003 0.003 0.003 0.003 0.003 
0.003 0.003 0.003 0.003 0.003 0.003 0.003 0.003 0.003 
0.003 0.003 0.003 0.003 0.003 0.003 0.003 0.003 0.003 
0.003 0.003 0.003 0.003 0.003 0.003 0.003 0.003 0.003 
0.003 0.003 0.003 0.003 0.003 0.003 0.003 0.003 0.003 
0.003 0.003 0.003 0.003 0.003 0.003 0.003 
omega 3 70 double
-0.00026204349551 7.0087886012e-06 0.00013270283893 0.00094217026093 0.00088003299103 0.001465616024 -0.00050171321071 -0.0009888990575 0.00048172098426 
-7.8184896226e-06 6.2864074493e-05 5.4892459996e-05 -0.00025583512151 9.6486298958e-05 0.00016729702889 0.00014411016247 -9.6525928113e-05 -4.667729545e-05 
-5.8500141836e-05 -0.0010931201217 -0.00020941739358 0.0002621803163 -0.00048507785521 -0.00016677003378 -0.00015616264139 0.00017147592476 -0.00013463444553 
0.00018262488632 -0.00010363962921 0.00039364973028 0.0022061170462 0.00052172972739 -0.0019630910529 -0.00063860234654 -0.00054924900625 -0.0011296047412 
-0.001095791808 2.8226641269e-05 -0.00030888737737 0.00026819878965 -0.00033223073962 -0.00054770100605 -0.00029851797728 0.00019247034559 0.0025401492828 
-0.00116786651 -0.00011593222155 -0.0011192700154 1.071792338e-05 -0.00012019424625 -6.9531360587e-05 -3.8516696777e-05 -5.2533634598e-05 0.00010536506487 
-0.0005990405224 0.00032699301985 0.00014558272548 -0.00084637269518 -0.0001789591046 0.00019243660564 -9.7437530998e-05 -0.00027992341455 1.4070146869e-05 
0.00013996746511 0.00046207620147 -0.0001484399745 0.00022009605205 -0.00026719921108 -9.3400841284e-05 -0.00016079953067 -0.00018143837213 0.00034463109459 
-0.0012376980962 -0.00073614454326 -0.0016971895113 2.4608463405e-06 5.7283593107e-05 1.0255990949e-05 -5.9185511126e-05 -6.2316265787e-05 7.5482650237e-05 
0.00040115170552 0.00036334741955 0.0005473316561 0.00021043759515 -0.00017799246641 0.00023991976218 0.00014828650293 -0.00022054299235 5.5550827214e-05 
-0.00098828001497 -0.0005643048152 -0.00025055644409 0.0002248728353 5.6874496155e-05 -0.00028289380313 -8.4741949531e-05 0.00071656029219 0.00032443052368 
-0.00017793861186 -9.6906630645e-05 0.00079173028454 0.00031032532059 0.00025158230766 0.00016576384384 0.00022712847279 0.00048707799708 0.00013858205375 
-0.00089249996991 -0.0002184762452 0.0010725180857 -9.277243459e-05 -0.000604939466 0.00027829206933 -0.00033125870005 -2.1981273118e-05 0.00015796860552 
3.6343143606e-05 -3.9602046065e-05 -0.00014352755537 3.1356073771e-05 0.00016133089308 -6.233538351e-05 0.00099188519133 -0.00083853647264 0.00058846230614 
0.0016218007902 0.00044996025798 -0.0016336754974 0.00023661426928 0.0003764051737 4.7411460221e-06 -9.7258512552e-05 -1.7978231823e-05 5.8887106495e-05 
7.4144873314e-06 -5.0222073579e-05 0.00012085270648 -0.00023050031766 0.00011767822936 6.9076059477e-05 -0.00010041696701 3.7796165994e-05 6.3486284713e-05 
0.00045154313262 0.00024349673602 9.3080302842e-05 0.00040342149118 0.00025716184883 0.000202786031 -0.00021640004179 -3.7552813444e-05 -0.00025845559753 
-0.00026253452042 -0.0010406361257 0.0002027865531 -0.00012976109507 -0.00043853546188 0.00026594013941 -9.2655272502e-05 1.4403924187e-05 -5.5023605686e-05 
-4.8582962175e-05 7.5474561028e-05 0.00010452071377 0.00017529044843 4.6794650226e-05 -2.1924296326e-05 7.925569781e-05 0.00012439745271 -0.00015710299954 
3.7322669705e-05 -0.00010589821246 1.9515404748e-05 0.00017280890203 0.0001140593027 3.0279491485e-05 -5.9101380631e-05 8.7174432259e-05 -3.4785740726e-05 
3.6224464936e-05 4.5928756483e-05 0.00020163029135 0.00016043308282 -8.8337658349e-05 -6.404951586e-05 0.00013666978802 3.0155121628e-05 -5.0665594665e-05 
0.00055176303444 0.00013179219383 -7.6500663753e-05 -8.9308804026e-06 2.5143291953e-05 -3.1879823731e-06 3.9649734094e-05 0.00016271553693 3.2835796762e-05 
0.00020070275883 0.00023267687195 -0.0001295854812 -8.2112028626e-05 6.8316165409e-05 -2.1373445239e-05 1.6573539394e-05 -6.7655051698e-05 -0.00014101492794 
0.00015279590127 0.0001199754087 -4.5402519701e-05 
