# vtk DataFile Version 4.2
Generated by LIGGGHTS
ASCII
DATASET POLYDATA
POINTS 70 float
0.00415463 -0.0398914 0.00499925 0.00189331 -0.0127272 0.00918618 0.0161664 -0.00511959 0.00499963 
-0.0288731 0.000683811 0.00499951 -0.00627622 -0.00307519 0.00840947 -0.00173169 -0.00115005 0.00499867 
-0.00954385 0.0115412 0.00499923 0.00596364 0.0067348 0.00499935 0.034077 0.00940817 0.00942642 
-0.0244976 0.0129951 0.00499909 -0.00413072 0.0187455 0.00499898 -0.0271457 0.0228517 0.01022 
0.00848483 0.0222272 0.00737971 0.0327017 0.0237786 0.00499893 -0.0158004 0.0300754 0.00499936 
0.0104887 0.0321007 0.00810017 0.0193373 0.0303733 0.00744596 -0.0120432 -0.0345829 0.018388 
0.0180697 -0.0197106 0.0181489 0.0357457 -0.0185345 0.0178799 0.031029 -0.00345836 0.0187753 
0.00221154 0.011842 0.0116273 -0.0318749 0.0152471 0.0189962 0.0274982 0.0234341 0.0175247 
0.00626411 -0.0387443 0.0202854 0.0222686 -0.0233558 0.0262158 -0.0203187 -0.0151885 0.021603 
0.00678314 -0.0144132 0.0242332 0.0249597 -0.0106361 0.0227673 0.011572 -0.00156322 0.0247216 
0.0176547 -0.00338256 0.0199045 0.0254961 -0.00154088 0.0263904 -0.0305904 0.0071055 0.0246424 
0.00935547 0.00965154 0.0251507 0.0275189 0.00990879 0.0261827 -0.00030817 0.0141261 0.0236588 
0.0125088 0.0175187 0.0272189 0.00184313 0.0281875 0.0214579 0.0228226 0.0375984 0.0195493 
-0.0145585 -0.0310339 0.032851 -0.010359 -0.0324735 0.0287771 0.016791 -0.0311122 0.0346448 
0.0263484 -0.0317271 0.0280191 -0.0418205 -0.0136199 0.0322057 -0.00841226 -0.0153001 0.0317959 
0.0200132 -0.0163744 0.0317398 0.00855048 -0.00731594 0.0353744 -0.0170789 0.00802935 0.0292565 
0.035766 0.00753715 0.0279136 -0.00440421 0.0223088 0.0280027 0.0131928 0.0212309 0.0318824 
-0.0275159 0.0323081 0.0333748 -0.00252421 0.0405105 0.0293863 -0.00337847 -0.0208856 0.0400041 
-0.0125358 -0.0166588 0.0424125 0.00325235 -0.0159539 0.0365206 0.0263872 -0.0175727 0.0382567 
-0.0319993 -0.00926989 0.0411704 -0.0143467 -0.00758229 0.0433045 -0.00847361 -0.00787378 0.0421132 
-0.0249206 0.00132678 0.03753 -0.026906 -0.00358547 0.0443499 -0.00458335 0.0105025 0.0433803 
0.0210925 0.00651766 0.0360969 -0.00420116 0.0197373 0.0439462 -0.0130053 0.0259172 0.0402099 
0.0192862 0.0319925 0.0364117 0.000513984 -0.0272944 0.0448254 0.0256082 -0.00272952 0.0448913 
-0.0121959 0.0308987 0.0466202 
VERTICES 70 140
1 0 
1 1 
1 2 
1 3 
1 4 
1 5 
1 6 
1 7 
1 8 
1 9 
1 10 
1 11 
1 12 
1 13 
1 14 
1 15 
1 16 
1 17 
1 18 
1 19 
1 20 
1 21 
1 22 
1 23 
1 24 
1 25 
1 26 
1 27 
1 28 
1 29 
1 30 
1 31 
1 32 
1 33 
1 34 
1 35 
1 36 
1 37 
1 38 
1 39 
1 40 
1 41 
1 42 
1 43 
1 44 
1 45 
1 46 
1 47 
1 48 
1 49 
1 50 
1 51 
1 52 
1 53 
1 54 
1 55 
1 56 
1 57 
1 58 
1 59 
1 60 
1 61 
1 62 
1 63 
1 64 
1 65 
1 66 
1 67 
1 68 
1 69 

POINT_DATA 70
FIELD FieldData 7
id 1 70 int
203 1744 375 597 1457 912 661 54 958 
394 467 1373 717 1174 728 934 844 1779 
1976 1593 2267 1428 2154 1925 2673 3155 2824 
2476 2255 2736 2121 2909 2812 3525 3244 2597 
3108 2539 2172 3802 3049 3936 3264 3766 3877 
3960 4218 3395 3241 3303 3862 4092 3557 4774 
5469 4537 4044 4863 5064 5129 4669 5429 5196 
4333 5591 4215 4415 5493 5453 5477 
type 1 70 int
2 2 2 2 2 2 2 2 2 
2 2 2 2 2 2 2 2 2 
2 2 2 2 2 2 2 2 2 
2 2 2 2 2 2 2 2 2 
2 2 2 2 2 2 2 2 2 
2 2 2 2 2 2 2 2 2 
2 2 2 2 2 2 2 2 2 
2 2 2 2 2 2 2 
i 3 70 int
0 0 0 0 0 0 0 0 0 
0 0 0 0 0 0 0 0 0 
0 0 0 0 0 0 0 0 0 
0 0 0 0 0 0 0 0 0 
0 0 0 0 0 0 0 0 0 
0 0 0 0 0 0 0 0 0 
0 0 0 0 0 0 0 0 0 
0 0 0 0 0 0 0 0 0 
0 0 0 0 0 0 0 0 0 
0 0 0 0 0 0 0 0 0 
0 0 0 0 0 0 0 0 0 
0 0 0 0 0 0 0 0 0 
0 0 0 0 0 0 0 0 0 
0 0 0 0 0 0 0 0 0 
0 0 0 0 0 0 0 0 0 
0 0 0 0 0 0 0 0 0 
0 0 0 0 0 0 0 0 0 
0 0 0 0 0 0 0 0 0 
0 0 0 0 0 0 0 0 0 
0 0 0 0 0 0 0 0 0 
0 0 0 0 0 0 0 0 0 
0 0 0 0 0 0 0 0 0 
0 0 0 0 0 0 0 0 0 
0 0 0 
v 3 70 double
-7.4015518184e-07 -9.4514807632e-07 1.2726431126e-07 5.5935288295e-09 6.2143445424e-07 1.3292488096e-07 -1.4258241727e-07 -5.2714760286e-07 2.1573209073e-08 
3.6983562742e-07 4.5578745051e-07 -3.5501861704e-08 4.2633117756e-07 3.0633014542e-08 -3.9858181251e-09 -3.4506264217e-08 2.219735761e-07 2.2525059988e-07 
-8.3460741741e-07 2.484923654e-06 -3.4796765747e-07 5.6676162157e-07 1.8581641255e-07 -1.3357981403e-06 -1.6741774799e-06 9.4057508778e-09 3.7620151751e-07 
-1.2251597718e-06 -5.5274413206e-07 1.0905535273e-06 -3.226699993e-06 1.8539122625e-06 -8.2284947791e-06 1.0368154569e-06 -4.6676161383e-07 -1.1577125867e-06 
3.3340430823e-06 -7.1385852322e-07 -3.3632029188e-06 -6.018756556e-08 -7.8473333904e-07 5.7927036523e-07 1.1520422529e-07 2.2894284889e-06 5.6945092603e-07 
6.7628926239e-07 -2.4808653867e-06 -5.2883136433e-07 3.5980913377e-07 -5.7060758252e-07 3.7653372878e-07 9.8871696954e-08 1.9413093169e-07 -1.8178457218e-08 
1.225882728e-06 -1.5452950756e-06 -1.1709104001e-06 -1.5261415616e-06 -1.3128815493e-06 -4.5370947115e-06 -3.4355493957e-06 3.3414816461e-06 1.1118517448e-06 
-2.961746893e-07 -1.2530371779e-07 1.0439565662e-06 9.7326601243e-07 6.0917905693e-07 6.450552789e-07 -2.3597008532e-07 -2.1033962962e-07 -5.9120607413e-07 
-5.0298640836e-06 1.8857058475e-06 2.9933975283e-06 -1.7862971978e-06 -6.3397520964e-07 -4.4279731755e-07 -6.9651311338e-08 -6.757988262e-08 -9.0712202127e-08 
-1.4382389792e-07 -3.5059062649e-07 -3.5501624547e-08 -8.0311998122e-07 -1.2018830248e-07 -6.5912559942e-07 5.8611218402e-07 -1.3460951434e-07 -1.2599502469e-07 
1.9664280579e-07 1.6453186326e-07 -1.7230968116e-07 -3.1410596797e-07 -8.7335691021e-08 -1.7599794612e-07 4.2422443499e-08 -1.5433625562e-07 1.9141914411e-07 
1.0513021024e-06 1.4534275526e-07 1.0755512512e-06 -5.2279749837e-07 -3.5618305367e-07 4.5878491201e-07 2.4351926451e-07 -1.1874131544e-08 -1.6648719188e-07 
-1.3667656383e-06 9.2554361518e-08 3.9049965387e-07 -8.1225445911e-08 -1.5185668576e-07 -2.1293952262e-07 -3.8090792863e-07 -1.7260528189e-07 -1.1185228413e-07 
-2.9293334061e-07 2.9279635428e-08 -6.3947630871e-08 4.9235370311e-07 -2.4362601347e-07 -1.8548051416e-07 5.3970727193e-07 -2.5893817813e-07 -5.966156201e-07 
-3.686565315e-09 -2.9747015711e-07 -4.4299419e-07 -1.0006769938e-07 3.269878296e-08 -2.1012168882e-08 6.0661710985e-08 3.1844589052e-08 -9.8880777216e-09 
5.6786400119e-07 6.2316477157e-08 -2.1200987384e-07 -1.9785683087e-07 -4.103627041e-07 2.8186551245e-07 1.7781712935e-07 -3.1522335322e-07 1.6946886551e-08 
-3.798777183e-07 -1.8509918992e-07 -5.1449389792e-07 -1.3314864929e-07 2.0610728513e-07 4.5617068414e-08 4.3056249231e-08 3.5869745693e-07 4.9618184961e-07 
2.6437818483e-08 -1.5890871744e-06 1.4810785206e-06 3.1265746093e-07 -3.3096656206e-07 -2.5960504581e-07 -8.1488602887e-07 -7.3336939906e-07 2.6926174319e-07 
-1.6061357107e-07 -2.8462127215e-07 6.6760804056e-08 -4.1580509289e-07 3.5295954125e-07 2.428342521e-07 -2.9327827976e-07 6.2437278137e-07 2.5384992048e-07 
-3.2881284022e-07 1.0108699103e-08 -5.0275469698e-09 -1.799212449e-07 1.5620595153e-07 4.890070118e-08 -1.2310552774e-07 -1.4134348351e-07 3.0307084606e-07 
-4.4909408432e-07 1.1292597709e-07 3.9525269194e-07 -5.9968647277e-07 1.0552451895e-07 -1.2097545395e-07 1.1414601225e-07 -1.2143500143e-07 3.866138687e-07 
-4.0584788551e-07 -3.0688691878e-09 -4.3255634973e-08 5.757802718e-08 -4.3951915926e-08 -4.4857540691e-08 1.054010025e-06 1.2604899569e-06 -1.7514255386e-08 
-1.680579941e-07 -2.7730073444e-07 5.3220176145e-07 -8.1392616495e-08 5.9281440588e-07 7.0815444124e-07 1.2600703107e-07 -3.5884726307e-07 7.084861101e-08 
1.428178298e-08 -7.8104675738e-08 -4.114055893e-07 
f 3 70 double
-6.7768244783e-05 -2.1280140361e-05 0.00014600317886 -2.5888546246e-05 -9.4729783489e-06 2.2830853654e-05 -1.2851480497e-05 3.7217295824e-06 4.7403570841e-06 
1.0336519176e-06 -2.330957601e-05 9.9773270183e-06 -5.3177432794e-06 3.6353238116e-06 -2.2693364909e-05 -3.747539313e-05 -7.4457234441e-05 -1.8694224539e-05 
5.7352613868e-06 -1.8727702927e-05 2.8188679591e-05 -2.9540406467e-05 1.2182854762e-05 -1.6889039867e-05 -7.1490527898e-05 -5.6002461675e-06 1.9729307664e-05 
-5.8439965038e-06 -5.9797909347e-06 1.5879811513e-05 8.1461440633e-05 -2.8241725291e-05 2.1356515599e-05 1.3946667552e-05 -6.2802798703e-05 -2.9199283536e-05 
-2.6597000374e-05 0.00011774962782 0.00013106750764 -5.8306083042e-05 -4.2477711237e-05 8.0488319966e-05 -2.1947429572e-05 -4.7589812831e-05 -9.6741262989e-05 
-4.7009443679e-05 2.6526472384e-05 7.3233885141e-05 4.6402091894e-05 -6.9125991527e-06 1.8764990942e-05 1.3276555187e-05 1.9779919152e-05 -3.4848187362e-05 
2.1144319115e-05 3.937718264e-05 1.8900948742e-05 -5.6873620706e-05 -1.8597293029e-05 0.00014080235112 -2.3758972568e-05 -4.4852964562e-05 -4.7886061334e-05 
4.2081911748e-05 6.500074127e-05 -4.8004819357e-05 5.0741509775e-05 7.4375475697e-05 6.4940359541e-05 1.1166354625e-07 -1.1304745883e-05 1.3254064021e-05 
-6.8506348692e-05 1.0695265681e-05 -5.6198043254e-05 3.0832014015e-06 8.6466903011e-06 2.233738361e-06 1.6971279105e-05 -2.8838153826e-06 6.4639209832e-06 
4.9324275071e-06 9.3624973217e-06 2.597663912e-05 4.9239167534e-05 -4.8043455558e-06 1.5247800107e-05 1.8783835626e-05 2.901871759e-05 -1.7581588806e-05 
-4.4164377958e-05 3.4389702598e-05 1.6538567695e-05 9.2009334527e-06 4.4419332193e-05 3.8065872377e-05 1.3375778268e-05 8.3465399352e-06 5.283131028e-06 
-3.519634774e-05 1.3231046536e-05 -4.6420209102e-06 4.8534815952e-06 2.5739105732e-06 5.1035965537e-05 -1.6015371188e-05 1.134872962e-05 4.2961261208e-05 
7.1392941009e-05 -3.1927359036e-06 1.6449735993e-05 5.1875498249e-06 -1.1024498808e-05 -6.6086378171e-06 -9.4937694234e-06 -5.6351145467e-06 2.1046970435e-05 
1.6192366143e-05 -1.4781446352e-05 7.9223673769e-06 1.3167954241e-06 -1.4795225274e-05 1.4563735147e-05 1.9198864518e-05 1.8011466865e-05 -1.490027347e-05 
-2.8462445844e-05 8.2040583003e-05 -1.1540495196e-05 3.2143374425e-05 2.5448531157e-06 4.2887354816e-06 1.8233689237e-05 1.7408434081e-05 3.3958294765e-05 
1.1984248213e-05 3.9948210066e-06 2.7474998479e-05 -1.1863213442e-05 6.2043574989e-08 2.5817922128e-05 -1.0925391237e-06 2.1349686919e-05 6.8783382906e-05 
-7.6893211915e-06 3.047203437e-05 4.8569555062e-05 3.9642069637e-05 -5.1243359635e-05 3.8294518678e-05 3.8856809146e-05 -1.8961403038e-05 3.4642193629e-06 
-2.02836706e-05 1.9651772696e-05 -4.8287808511e-06 1.7620402291e-05 -1.2691298885e-05 1.9698027873e-05 -1.2469104406e-05 -5.4582806526e-06 -5.1260322493e-06 
2.6404001575e-06 -1.1815299284e-05 -1.2882842683e-06 -1.172140795e-05 1.794512616e-05 2.0872989183e-05 3.9340873332e-06 -1.1236666019e-06 1.8090500002e-05 
4.3582895127e-06 9.0514480214e-06 6.0923158544e-06 1.3607820674e-05 -2.2734146275e-06 -8.2743105589e-06 -4.2227971553e-07 -8.082300103e-06 1.5709219621e-05 
-7.4118989943e-06 -1.2903962076e-05 1.7836768022e-05 -8.1393023231e-06 -5.0318398085e-06 5.4428555775e-06 -1.9318903799e-06 -5.4885171239e-06 -1.6075371133e-06 
2.2566059806e-06 5.3834142367e-06 2.2392289978e-06 2.3204794245e-05 -4.9862128438e-05 -3.6425857305e-05 5.126848625e-05 -2.2487456229e-05 -9.5168642247e-06 
1.4808326995e-05 -1.2676499378e-06 3.7971587725e-05 -7.7009564028e-06 4.0275803676e-06 5.3277115775e-06 2.7699451841e-06 1.6314225535e-07 -1.2422653284e-05 
-1.3031247672e-05 7.5773504157e-07 -1.7657481987e-05 
radius 1 70 double
0.003 0.003 0.003 0.003 0.003 0.003 0.003 0.003 0.003 
0.003 0.003 0.003 0.003 0.003 0.003 0.003 0.003 0.003 
0.003 0.003 0.003 0.003 0.003 0.003 0.003 0.003 0.003 
0.003 0.003 0.003 0.003 0.003 0.003 0.003 0.003 0.003 
0.003 0.003 0.003 0.003 0.003 0.003 0.003 0.003 0.003 
0.003 0.003 0.003 0.003 0.003 0.003 0.003 0.003 0.003 
0.003 0.003 0.003 0.003 0.003 0.003 0.003 0.003 0.003 
0.003 0.003 0.003 0.003 0.003 0.003 0.003 
omega 3 70 double
-0.00062062481417 -0.00028993782146 -0.00014415756704 -0.0013409668549 0.00092448202093 9.5202714804e-05 -0.00094385588157 -8.3410018065e-05 -0.00034444110671 
0.00012971583971 0.00018693419099 -0.00044066448279 0.00077818757986 -8.7098344103e-05 0.00024673593409 8.7259673932e-05 9.797997712e-06 0.00014489509762 
0.00041371283572 0.00076847820782 -0.00040600064476 8.1523455828e-05 8.9002806197e-07 6.1494531564e-05 -0.00014356688527 2.0383142738e-05 0.00022936838813 
-0.00049003091823 -0.00016644170773 0.00022487307666 0.0037749346182 -0.00043973008684 0.00066045834413 -0.00062862914595 -0.00032090250458 -0.00059487936745 
0.00089570481643 -0.0037436006121 0.0012126575601 8.7306873067e-05 0.00026675581468 0.00040145353693 0.001022242574 -2.8963500893e-06 -0.0020244167897 
-0.0012475912569 -0.00099116300989 -0.0016426602537 2.3017463725e-06 0.00022967406559 -0.00011227388198 -0.00020335767384 -0.00015936115229 -1.4658044655e-05 
-0.00043717397475 0.00018924935078 -6.1338449937e-05 7.0707849353e-05 0.0021831958715 0.00054921193379 -0.00023989907007 -6.7893084197e-05 0.00016571974459 
0.00017601910122 0.00025774102577 -0.00025078746918 -0.0010480742464 0.00082401702464 0.00016932249831 -0.00017514151599 4.3293123907e-05 1.8065882611e-05 
-0.00024280487283 0.00098382901987 -0.00093353387434 -0.00023032828946 0.00034884461023 -0.0002205205282 0.00023697275548 -0.00011773628042 0.00018400064432 
-0.00028921068587 0.0003903559148 0.00011792769835 8.3430362842e-05 -0.00011019118268 7.6650181198e-05 0.00011054984982 6.2861436424e-05 -0.00011849162077 
-9.1352278984e-05 2.131660696e-05 -0.00015176793251 1.281196901e-05 -0.0001404246941 0.00018602602411 -0.00055738104382 0.00081522796064 -0.00026795917276 
-0.00040339568981 0.00076560456309 -0.0012166810143 -2.6952300598e-05 -0.00018348665414 2.8636016493e-05 -1.4076441336e-05 0.00025894929365 0.00020366184429 
0.00057090429433 7.0970661283e-06 -0.00093482324609 0.00012601499971 1.372914744e-05 1.9723805926e-05 2.0282883346e-05 -0.00010645018489 0.00011083432753 
7.542932254e-05 0.00011155511808 0.00011580406312 0.00010571914923 0.00026308682707 -8.8469355174e-05 3.507093599e-05 3.0806829156e-05 0.00011851898782 
0.0001308837915 0.0010298075527 -0.0011138283968 -1.1027182865e-05 -2.1468456451e-05 2.2175335615e-06 -0.00032242287787 6.7820820347e-05 0.00041074372112 
-0.00029063720228 0.00019530386418 9.1703300743e-05 0.00047308099779 -0.00013655666966 0.00039406453861 0.00064675473325 -0.00057022376754 0.00014750349434 
-0.00013699579007 -0.0003454257682 7.7821340445e-05 0.00020117734013 0.00058774650264 -0.00017481701307 0.00036528376296 -0.00024112745279 -0.00061124827238 
-0.00011528680132 -0.00040393035702 -0.00042078876785 -0.00012893631187 1.5453624247e-06 -0.0002553412005 -0.0002766811868 0.00099788305765 -0.00013749085026 
-7.2318072918e-06 -2.205820046e-05 0.00015659048276 -6.3453878668e-05 0.0002099730415 -0.00027858316259 -0.00012683875495 0.00018562168297 -0.00012874470454 
0.00015942296648 7.143602433e-05 -4.316736545e-05 5.27414539e-05 6.5293942478e-05 3.6032581547e-05 -5.8183224699e-05 3.3952988379e-05 4.5097333607e-06 
-0.00012349863122 0.00039541960233 3.1033635073e-05 6.2140984685e-05 -0.00020563516877 0.00012747167731 -2.4965286426e-05 -9.3079249177e-05 -2.6942171154e-05 
-0.00034921039725 -0.00025303413478 0.00027005927074 -0.00036890878432 -0.0003451915425 -9.887961814e-06 -9.8008034181e-06 0.00029597463454 -0.00087036002416 
3.8108834979e-05 0.00036850464391 -0.00045295416368 -1.1068034671e-05 0.00022522763562 -5.9190263189e-05 -0.00014317794604 0.00016302139708 -7.6665640875e-05 
0.00014028518573 -0.00016986940309 -0.00024134979204 
