# vtk DataFile Version 4.2
Generated by LIGGGHTS
ASCII
DATASET POLYDATA
POINTS 70 float
0.00415463 -0.0398914 0.00499925 0.00189331 -0.0127272 0.00918618 0.0161664 -0.00511958 0.00499963 
-0.0288731 0.000683811 0.00499951 -0.00627622 -0.00307519 0.00840947 -0.00173169 -0.00115005 0.00499867 
-0.00954385 0.0115412 0.00499923 0.00596364 0.0067348 0.00499935 0.034077 0.00940817 0.00942642 
-0.0244976 0.0129951 0.00499909 -0.00413072 0.0187455 0.00499898 -0.0271457 0.0228517 0.01022 
0.00848483 0.0222272 0.00737971 0.0327017 0.0237786 0.00499893 -0.0158004 0.0300754 0.00499936 
0.0104887 0.0321007 0.00810017 0.0193373 0.0303733 0.00744596 -0.0120432 -0.0345829 0.018388 
0.0180697 -0.0197106 0.0181489 0.0357457 -0.0185345 0.0178799 0.031029 -0.00345836 0.0187753 
0.00221154 0.011842 0.0116273 -0.0318749 0.0152471 0.0189962 0.0274982 0.0234341 0.0175247 
0.00626411 -0.0387443 0.0202854 0.0222686 -0.0233558 0.0262158 -0.0203187 -0.0151885 0.021603 
0.00678314 -0.0144132 0.0242332 0.0249597 -0.0106361 0.0227673 0.011572 -0.00156322 0.0247216 
0.0176547 -0.00338256 0.0199045 0.0254961 -0.00154088 0.0263904 -0.0305904 0.0071055 0.0246424 
0.00935547 0.00965154 0.0251507 0.0275189 0.00990879 0.0261827 -0.00030817 0.0141261 0.0236588 
0.0125088 0.0175187 0.0272189 0.00184313 0.0281875 0.0214579 0.0228226 0.0375984 0.0195493 
-0.0145585 -0.0310339 0.032851 -0.010359 -0.0324735 0.0287771 0.016791 -0.0311122 0.0346448 
0.0263484 -0.0317271 0.0280191 -0.0418205 -0.0136199 0.0322057 -0.00841226 -0.0153001 0.0317959 
0.0200132 -0.0163745 0.0317398 0.00855048 -0.00731594 0.0353744 -0.0170789 0.00802935 0.0292565 
0.035766 0.00753715 0.0279136 -0.00440421 0.0223088 0.0280027 0.0131928 0.0212309 0.0318824 
-0.0275159 0.0323081 0.0333748 -0.00252421 0.0405105 0.0293863 -0.00337847 -0.0208856 0.0400041 
-0.0125358 -0.0166588 0.0424125 0.00325235 -0.0159539 0.0365206 0.0263872 -0.0175727 0.0382567 
-0.0319993 -0.00926989 0.0411704 -0.0143467 -0.00758229 0.0433045 -0.0084736 -0.00787378 0.0421132 
-0.0249206 0.00132678 0.0375301 -0.026906 -0.00358547 0.0443499 -0.00458335 0.0105025 0.0433803 
0.0210925 0.00651766 0.0360969 -0.00420116 0.0197373 0.0439462 -0.0130053 0.0259172 0.0402099 
0.0192862 0.0319925 0.0364117 0.000513986 -0.0272944 0.0448254 0.0256082 -0.00272952 0.0448913 
-0.0121959 0.0308987 0.0466202 
VERTICES 70 140
1 0 
1 1 
1 2 
1 3 
1 4 
1 5 
1 6 
1 7 
1 8 
1 9 
1 10 
1 11 
1 12 
1 13 
1 14 
1 15 
1 16 
1 17 
1 18 
1 19 
1 20 
1 21 
1 22 
1 23 
1 24 
1 25 
1 26 
1 27 
1 28 
1 29 
1 30 
1 31 
1 32 
1 33 
1 34 
1 35 
1 36 
1 37 
1 38 
1 39 
1 40 
1 41 
1 42 
1 43 
1 44 
1 45 
1 46 
1 47 
1 48 
1 49 
1 50 
1 51 
1 52 
1 53 
1 54 
1 55 
1 56 
1 57 
1 58 
1 59 
1 60 
1 61 
1 62 
1 63 
1 64 
1 65 
1 66 
1 67 
1 68 
1 69 

POINT_DATA 70
FIELD FieldData 7
id 1 70 int
203 1744 375 597 1457 912 661 54 958 
394 467 1373 717 1174 728 934 844 1779 
1976 1593 2267 1428 2154 1925 2673 3155 2824 
2476 2255 2736 2121 2909 2812 3525 3244 2597 
3108 2539 2172 3802 3049 3936 3264 3766 3877 
3960 4218 3395 3241 3303 3862 4092 3557 4774 
5469 4537 4044 4863 5064 5129 4669 5429 5196 
4333 5591 4215 4415 5493 5453 5477 
type 1 70 int
2 2 2 2 2 2 2 2 2 
2 2 2 2 2 2 2 2 2 
2 2 2 2 2 2 2 2 2 
2 2 2 2 2 2 2 2 2 
2 2 2 2 2 2 2 2 2 
2 2 2 2 2 2 2 2 2 
2 2 2 2 2 2 2 2 2 
2 2 2 2 2 2 2 
i 3 70 int
0 0 0 0 0 0 0 0 0 
0 0 0 0 0 0 0 0 0 
0 0 0 0 0 0 0 0 0 
0 0 0 0 0 0 0 0 0 
0 0 0 0 0 0 0 0 0 
0 0 0 0 0 0 0 0 0 
0 0 0 0 0 0 0 0 0 
0 0 0 0 0 0 0 0 0 
0 0 0 0 0 0 0 0 0 
0 0 0 0 0 0 0 0 0 
0 0 0 0 0 0 0 0 0 
0 0 0 0 0 0 0 0 0 
0 0 0 0 0 0 0 0 0 
0 0 0 0 0 0 0 0 0 
0 0 0 0 0 0 0 0 0 
0 0 0 0 0 0 0 0 0 
0 0 0 0 0 0 0 0 0 
0 0 0 0 0 0 0 0 0 
0 0 0 0 0 0 0 0 0 
0 0 0 0 0 0 0 0 0 
0 0 0 0 0 0 0 0 0 
0 0 0 0 0 0 0 0 0 
0 0 0 0 0 0 0 0 0 
0 0 0 
v 3 70 double
-4.573940885e-07 1.149352229e-06 -4.9784029237e-07 4.5888037169e-07 -6.7217207801e-07 3.9671943064e-07 -1.1302341323e-06 1.3726484471e-06 -1.9190454101e-06 
2.1024082413e-07 2.5175144337e-08 9.7288136314e-09 -4.2045929785e-07 -4.5741359928e-07 3.0344267679e-07 2.2500175065e-07 -8.3723515476e-08 4.0719809884e-08 
-6.830572235e-07 1.8564106517e-06 8.9107560767e-07 6.7592292285e-07 -5.2297738448e-07 -2.8884625115e-07 1.6854963031e-07 7.2112406358e-07 5.9938242553e-08 
4.744518612e-07 -1.3936039801e-07 -1.2911116966e-06 4.1073213648e-06 2.0210639093e-06 3.359376411e-06 1.4257789023e-06 -2.4532210377e-06 -3.1126844699e-06 
1.2258616856e-06 1.0580365223e-06 5.531077437e-09 8.814976877e-08 3.7139273031e-07 1.9114934751e-07 5.5447923838e-06 -3.3903579626e-06 -5.9120385678e-06 
7.936745764e-07 1.4368060686e-07 9.3024163545e-07 -8.0830847013e-08 -1.9939606344e-07 -9.0893855717e-08 7.5189883158e-07 -2.6065644744e-07 -2.822874457e-07 
-1.9434235637e-07 -5.6984016199e-07 1.1327428745e-06 2.0064638723e-07 -1.0125222941e-07 1.1021322273e-07 -2.5304167072e-07 3.9426348673e-07 -7.9215603634e-07 
1.1439092721e-07 5.5238412857e-08 2.9453498369e-07 -1.7033853603e-07 2.4765412804e-08 4.2561508198e-07 -1.8149000018e-07 -6.1595618372e-07 1.9363983558e-08 
-2.5919930867e-06 2.5435775815e-07 2.7466819008e-06 -3.1307390648e-08 1.1830025507e-07 1.9592377262e-07 5.0238305766e-07 3.6271780726e-07 -2.6422448776e-07 
1.0650035788e-06 5.9810507185e-07 -5.4901388971e-08 3.3640626265e-07 1.2874458259e-07 6.5857911791e-07 -2.5556878099e-07 -8.2282853387e-07 -4.5006382685e-07 
-1.2488974091e-07 7.8499773544e-07 5.5414161546e-07 7.0158368207e-07 2.8415705293e-08 3.2523740566e-07 -4.4348097053e-07 1.479319827e-07 -9.3081764365e-08 
-8.6613755298e-07 8.7515952629e-07 3.3479711303e-07 2.4922917837e-07 5.8162887432e-07 -2.1842706386e-07 -6.7960096125e-08 -1.7010723659e-07 -3.5467885811e-07 
1.3526537573e-06 1.3852983942e-07 -1.3590286767e-07 4.0158125966e-07 -4.3511074189e-07 -3.0429034109e-07 5.5907471573e-07 -1.2227676894e-07 -2.8113331657e-08 
-1.799797298e-07 -1.4108781695e-07 2.4809741547e-07 9.9016869166e-08 -1.7738267126e-07 1.6918625565e-07 -7.67432613e-10 -4.9922951298e-07 -3.4699201951e-07 
5.8665438321e-07 2.4103729336e-07 1.3982248299e-06 -3.9251841406e-08 2.2856200663e-08 2.4948738858e-07 -3.4568580296e-08 2.0190211872e-07 2.0756180597e-07 
2.998166285e-07 -6.9113730826e-08 -1.7166607378e-07 -7.6167090401e-08 1.6838144683e-07 3.1456303573e-07 4.6049104707e-07 -4.8038945119e-08 1.1539404238e-07 
-8.9996397393e-08 2.7334826911e-07 -1.8066675083e-07 -2.8929855171e-07 -1.3879348907e-07 3.0432362786e-07 -7.5009682814e-07 -2.4947502676e-07 1.6656376071e-08 
-3.0282192654e-07 -5.6405820642e-08 6.1029321388e-08 2.3431985752e-07 1.181027904e-07 -2.0048733618e-07 3.4253571087e-07 -1.5118812624e-07 -3.0498614805e-07 
-4.9100764065e-07 -8.4492767879e-08 -6.1906602894e-07 6.9731574044e-08 7.0114209811e-08 3.1534291279e-07 -1.8612328037e-07 -4.9820786666e-08 3.9256487246e-07 
-1.1130295988e-07 1.1345526988e-08 -1.5881231584e-07 -1.7290443866e-07 3.4682728451e-07 -1.8698882354e-07 2.5906725271e-08 8.6316369379e-08 -1.3337213309e-07 
-1.6335127607e-07 -4.2486277241e-08 5.3282714672e-08 -5.7233770776e-09 -1.1724144075e-08 -3.2467196011e-08 1.2111333322e-07 1.0301570542e-07 -1.6631310798e-08 
-9.8020262944e-08 5.5391608697e-08 5.0184927398e-08 -1.8521806085e-07 -1.5615506945e-09 1.3445835839e-08 -1.4306084922e-07 1.9377362176e-07 1.6509680344e-07 
1.9801396904e-07 -5.8670495407e-09 3.2608552275e-08 -2.457692615e-07 1.9498464234e-07 7.7164984819e-08 -1.0158272019e-08 2.3314542492e-07 4.9800610544e-08 
3.5785403922e-07 2.0635685574e-07 2.2864969775e-07 
f 3 70 double
6.7539366968e-07 4.5650180998e-05 0.00010270334436 1.1718230001e-05 -0.00014095334607 1.6679240373e-05 -3.9101251804e-05 -3.9074228013e-07 -7.5715955505e-06 
-1.1883985195e-05 4.5663805548e-06 -2.0155896125e-05 -3.101939662e-05 -2.1383783392e-05 3.290384787e-05 -1.725369593e-05 3.8396151445e-05 2.7153068379e-05 
-6.7063640156e-06 2.3879301739e-05 7.5504900398e-05 -1.4030668436e-05 -1.4688574018e-05 4.1434022374e-05 6.3772558178e-06 -7.8751718852e-06 -6.4929961929e-05 
8.0041738251e-06 -4.4574347236e-05 6.6324267887e-05 -4.975021426e-05 9.6978736292e-06 9.7242477651e-05 2.7757142106e-05 -2.7445738197e-05 -3.7247977356e-05 
7.5134359477e-05 0.0001271138636 -2.938497324e-05 -0.00011358373282 -3.8274359317e-05 3.037099531e-05 -4.8138221344e-05 2.967876123e-05 -6.9392767186e-05 
-0.00011152865666 -0.00012887983431 3.1551046439e-05 -1.7349456727e-05 2.9765013108e-05 -7.307060844e-05 1.7167285596e-05 -3.694831455e-05 9.299392164e-06 
5.1076334184e-05 8.2233859366e-06 3.8321798795e-05 -2.0768296323e-05 -1.0862006072e-05 -1.3461235998e-05 5.7259553921e-06 -1.7268540529e-06 -3.0091378965e-05 
4.2762325037e-06 3.9688778749e-05 -9.9511070928e-06 3.7581677217e-05 1.0773212139e-05 2.0879484779e-06 1.3333942795e-05 -3.7640016871e-06 -2.034698538e-05 
2.0644509753e-05 -3.4689461923e-05 -2.3609436125e-05 2.777438907e-05 -6.3501517965e-06 -3.7794652009e-06 6.1923391198e-06 2.5947136224e-05 1.1451917579e-05 
2.4644798584e-05 -1.7443787197e-05 -2.3130251971e-06 9.2570639912e-06 1.5139390464e-05 -5.8346699285e-05 -2.7413067236e-05 -1.4500811115e-05 1.9899079608e-05 
5.9001028492e-05 -2.6094495543e-05 -2.421518736e-05 6.4038247525e-05 4.8938851567e-06 1.663419505e-05 4.3356505125e-05 -3.2620259258e-07 2.594003809e-05 
6.4254585159e-05 -8.3862764717e-05 -2.7871568274e-05 -2.4665987899e-05 1.2534072046e-05 -4.7571620658e-06 -3.88047993e-05 -1.5272093846e-05 4.9519937607e-05 
-9.9364636674e-05 -6.4638005975e-06 -1.212165682e-05 -9.3614772388e-06 3.2243086153e-05 -3.8289382418e-06 1.9424099932e-05 4.9520051101e-06 -4.339969314e-06 
2.8938687578e-05 -2.8078009172e-05 1.7620715448e-05 3.7690592283e-05 -1.0572758308e-05 -1.7205218836e-05 -1.8794063122e-05 -4.0691114579e-05 2.7744006965e-05 
3.4548045035e-05 -8.9594140597e-05 8.0080524594e-05 5.0256787499e-05 -6.9321719778e-06 1.2833215066e-05 5.781002189e-06 -1.4158516509e-05 -6.1479902198e-06 
1.4730433463e-06 9.9002503158e-06 -1.6515985343e-05 4.0410052227e-06 -7.6962760269e-06 4.612456365e-06 -4.0113356451e-05 -9.7680462048e-06 3.7188799019e-05 
4.0933619784e-05 7.1288914429e-06 -3.3744571051e-05 2.026412472e-05 -2.1158356265e-05 1.7106286552e-05 3.2903557719e-05 -2.5608869618e-05 -6.2804039651e-06 
2.2689256371e-05 -2.5208394117e-05 1.3019876967e-05 -1.3046653315e-05 -3.0921152657e-05 -2.5736219684e-05 -1.7727783168e-05 -2.2393569568e-06 -1.2748968151e-05 
4.3801115404e-06 -8.6341306462e-06 -3.0312478839e-06 -1.1550354946e-05 -2.4278331309e-05 -6.4787453849e-06 1.2084217217e-05 8.6986098453e-07 2.0184489533e-05 
-9.4524655977e-06 -2.1471795915e-06 -8.4679287321e-07 2.9301855053e-06 -3.3514138819e-06 -1.3980003302e-05 -1.0380395509e-06 -1.0014920981e-05 1.4039488192e-05 
1.1415716115e-05 2.4896476042e-05 -4.3577758984e-05 8.22607362e-06 2.1671976851e-06 -1.5532987519e-05 3.7982571038e-06 -5.2211129133e-06 2.746034195e-06 
-3.3372772822e-05 1.0582441586e-05 1.7474250152e-06 -1.243149902e-05 -1.0977536312e-07 4.9609567201e-06 -2.4746013735e-06 1.414859538e-06 1.0904562553e-05 
-1.3683701481e-05 -1.0657109574e-05 1.0185557506e-05 -2.5562651412e-06 -3.5494553871e-06 5.3735445205e-06 -1.906658473e-07 -7.4691638996e-06 -6.9880681422e-06 
-6.2740443625e-06 -1.1142390402e-06 -4.137563538e-06 
radius 1 70 double
0.003 0.003 0.003 0.003 0.003 0.003 0.003 0.003 0.003 
0.003 0.003 0.003 0.003 0.003 0.003 0.003 0.003 0.003 
0.003 0.003 0.003 0.003 0.003 0.003 0.003 0.003 0.003 
0.003 0.003 0.003 0.003 0.003 0.003 0.003 0.003 0.003 
0.003 0.003 0.003 0.003 0.003 0.003 0.003 0.003 0.003 
0.003 0.003 0.003 0.003 0.003 0.003 0.003 0.003 0.003 
0.003 0.003 0.003 0.003 0.003 0.003 0.003 0.003 0.003 
0.003 0.003 0.003 0.003 0.003 0.003 0.003 
omega 3 70 double
-0.00069652598552 2.9181107616e-05 0.00023939702434 -0.00086276317663 -0.0010220057815 -0.0014132499396 0.00085847816755 0.0015242263147 -0.00065482720071 
4.1142344004e-05 0.00019504001771 -9.4312328995e-05 -0.00013052149753 9.9499975305e-05 -0.00014477915841 0.00026042433179 -0.00019306675859 -0.00014746356759 
-0.00017676630972 -0.00032816175629 -0.00030494493279 8.6421986391e-05 -0.00013449549183 -0.00010104426242 -0.00016026198902 -0.00016741120618 0.00021158919368 
0.00041513062356 0.00033111232802 -7.8412808094e-05 0.0043668981487 0.001058626578 -0.0015009843141 -0.00079194039543 -0.00038903389757 -0.0013004834814 
0.00021090171343 -0.00074866645995 0.00018929944496 -0.00017942027426 0.00016082602353 -4.8585933719e-07 0.0002077863178 -1.3244745856e-06 0.00087252009172 
4.8904080852e-05 0.00014591129573 -0.00039937064334 -5.7998135501e-05 0.00022608288612 0.00019099700591 -0.00015274130584 -1.6443332088e-05 0.00024530892874 
-0.00011985448916 -2.9209243664e-05 0.00060131071442 0.00059296407301 -0.00019746242659 -0.00038772011008 0.00012420631245 9.9695725283e-05 -2.7309416813e-05 
3.4419440069e-05 0.00028264215491 -0.00011606143285 -0.00034100199505 8.8878089775e-05 0.0001219858161 5.1278307557e-06 -0.00017165179098 -2.0101120883e-05 
-0.0010709208495 0.00010140024838 -0.001049754583 0.00030374301514 0.00010768077954 -0.00031574038294 -2.9611094092e-05 4.0213412191e-05 2.2625654907e-05 
-0.0007323888706 0.0010170208302 -5.6742959063e-05 1.5786299494e-05 -2.4272158497e-05 0.00022794201396 0.0001812810066 -0.00013736741792 -5.8894621935e-05 
-0.00010054170912 0.00021770106813 0.00015131292357 7.0994696435e-05 -1.1073340687e-05 -0.00022380644808 9.4566776592e-05 -0.00060217497945 0.00012552324126 
-0.00012429458097 0.00018464851841 0.00017788675899 -0.00055110385427 -0.00058176366057 -0.00019362802333 -0.0004810598081 -0.00028098236134 -0.00011772886458 
0.00043593436321 0.00032410565119 0.00080598554024 -0.00013363623471 -0.00065386416317 0.00037268713516 0.00012087422504 -0.00014168574123 -0.00010343100789 
-0.00012200986322 -2.1711837056e-05 1.32755876e-05 -1.7570311142e-05 0.00013431705248 -0.0001092322681 -0.00063998245327 0.00076865549737 -0.00025231147023 
-0.00039298171854 -0.0011225960678 0.0011484948068 0.00022067783584 -0.00022802661841 -0.00017632423987 5.3283295056e-05 -6.5109882156e-05 -5.2078039039e-05 
8.6351184618e-05 -3.6803057119e-06 -4.0800178167e-05 -9.7784013464e-06 6.9510160655e-05 -0.00014023446901 0.00038691658441 -0.0006545803893 6.3769138899e-06 
-8.9742796981e-05 0.00025682430852 0.00050032691744 -6.1418524877e-05 -0.00012779203167 0.00024085378478 -0.00010873611546 -4.1558094498e-05 2.3119351454e-05 
9.6714979709e-05 -0.00013159468421 -0.00027267011267 -0.00017585945438 0.00019400475524 0.00010181135619 4.0667440312e-06 0.00012805698516 0.00021599354275 
9.229206248e-05 -1.7078703499e-05 -1.7896703838e-05 -0.00018693351505 0.00030280044155 6.910417956e-06 0.00011012865909 -6.7247084408e-05 -0.00012200828501 
0.00020796292944 0.00018915061969 -0.00014306441857 0.00023221519479 4.4779167774e-06 9.7412534601e-05 -0.00010532757408 2.7184183338e-05 1.2804370434e-07 
7.1187675123e-05 -4.5192301316e-05 0.00012678571598 0.00020886576198 -1.8992801623e-05 2.6862202481e-05 1.0331697141e-05 -0.00011634154306 1.475611384e-05 
0.00018322278547 5.051445592e-05 8.6986907645e-05 -2.7233453674e-05 9.297492633e-05 4.8246421685e-05 -0.00017210468966 -3.8154645335e-05 -2.0296089901e-05 
2.0276735647e-05 -0.0002244191471 0.00010497646327 0.00058378637954 0.00018028184979 0.00017105542993 0.00011707857213 0.00018361929653 -0.00021377404689 
-9.2644030518e-06 -0.00016482261626 0.00016059404927 
