# vtk DataFile Version 4.2
Generated by LIGGGHTS
ASCII
DATASET POLYDATA
POINTS 70 float
0.00415464 -0.0398914 0.00499925 0.00189332 -0.0127272 0.00918618 0.0161664 -0.00511958 0.00499963 
-0.0288731 0.0006838 0.00499951 -0.00627622 -0.0030752 0.00840947 -0.00173169 -0.00115006 0.00499867 
-0.00954385 0.0115412 0.00499923 0.00596364 0.0067348 0.00499935 0.034077 0.00940818 0.00942642 
-0.0244976 0.0129951 0.00499909 -0.00413072 0.0187455 0.00499898 -0.0271457 0.0228517 0.01022 
0.00848482 0.0222272 0.00737971 0.0327017 0.0237786 0.00499893 -0.0158004 0.0300754 0.00499936 
0.0104887 0.0321008 0.00810017 0.0193373 0.0303733 0.00744596 -0.0120432 -0.0345829 0.018388 
0.0180697 -0.0197106 0.0181489 0.0357458 -0.0185345 0.0178799 0.031029 -0.00345835 0.0187753 
0.00221153 0.011842 0.0116273 -0.0318749 0.0152471 0.0189962 0.0274982 0.0234341 0.0175247 
0.00626412 -0.0387443 0.0202854 0.0222686 -0.0233558 0.0262158 -0.0203187 -0.0151885 0.021603 
0.00678314 -0.0144132 0.0242332 0.0249597 -0.0106361 0.0227673 0.011572 -0.00156322 0.0247216 
0.0176547 -0.00338256 0.0199045 0.0254961 -0.00154087 0.0263904 -0.0305904 0.00710549 0.0246424 
0.00935546 0.00965154 0.0251507 0.0275189 0.00990879 0.0261827 -0.000308174 0.0141261 0.0236588 
0.0125088 0.0175187 0.0272189 0.00184312 0.0281875 0.0214579 0.0228226 0.0375984 0.0195493 
-0.0145585 -0.0310339 0.032851 -0.010359 -0.0324735 0.0287771 0.016791 -0.0311122 0.0346448 
0.0263484 -0.0317271 0.0280191 -0.0418205 -0.0136199 0.0322057 -0.00841226 -0.0153001 0.0317959 
0.0200132 -0.0163745 0.0317398 0.00855049 -0.00731594 0.0353744 -0.0170789 0.00802934 0.0292565 
0.035766 0.00753716 0.0279136 -0.00440421 0.0223088 0.0280027 0.0131928 0.0212309 0.0318824 
-0.0275159 0.0323081 0.0333748 -0.00252422 0.0405105 0.0293863 -0.00337846 -0.0208856 0.0400041 
-0.0125358 -0.0166588 0.0424125 0.00325236 -0.0159539 0.0365206 0.0263872 -0.0175727 0.0382567 
-0.0319993 -0.0092699 0.0411704 -0.0143467 -0.0075823 0.0433045 -0.0084736 -0.00787378 0.0421132 
-0.0249206 0.00132677 0.03753 -0.026906 -0.00358548 0.0443499 -0.00458335 0.0105025 0.0433803 
0.0210925 0.00651766 0.0360969 -0.00420116 0.0197373 0.0439462 -0.0130053 0.0259172 0.0402099 
0.0192862 0.0319925 0.0364117 0.000513991 -0.0272944 0.0448254 0.0256082 -0.00272951 0.0448913 
-0.0121959 0.0308986 0.0466201 
VERTICES 70 140
1 0 
1 1 
1 2 
1 3 
1 4 
1 5 
1 6 
1 7 
1 8 
1 9 
1 10 
1 11 
1 12 
1 13 
1 14 
1 15 
1 16 
1 17 
1 18 
1 19 
1 20 
1 21 
1 22 
1 23 
1 24 
1 25 
1 26 
1 27 
1 28 
1 29 
1 30 
1 31 
1 32 
1 33 
1 34 
1 35 
1 36 
1 37 
1 38 
1 39 
1 40 
1 41 
1 42 
1 43 
1 44 
1 45 
1 46 
1 47 
1 48 
1 49 
1 50 
1 51 
1 52 
1 53 
1 54 
1 55 
1 56 
1 57 
1 58 
1 59 
1 60 
1 61 
1 62 
1 63 
1 64 
1 65 
1 66 
1 67 
1 68 
1 69 

POINT_DATA 70
FIELD FieldData 7
id 1 70 int
203 1744 375 597 1457 912 661 54 958 
394 467 1373 717 1174 728 934 844 1779 
1976 1593 2267 1428 2154 1925 2673 3155 2824 
2476 2255 2736 2121 2909 2812 3525 3244 2597 
3108 2539 2172 3802 3049 3936 3264 3766 3877 
3960 4218 3395 3241 3303 3862 4092 3557 4774 
5469 4537 4044 4863 5064 5129 4669 5429 5196 
4333 5591 4215 4415 5493 5453 5477 
type 1 70 int
2 2 2 2 2 2 2 2 2 
2 2 2 2 2 2 2 2 2 
2 2 2 2 2 2 2 2 2 
2 2 2 2 2 2 2 2 2 
2 2 2 2 2 2 2 2 2 
2 2 2 2 2 2 2 2 2 
2 2 2 2 2 2 2 2 2 
2 2 2 2 2 2 2 
i 3 70 int
0 0 0 0 0 0 0 0 0 
0 0 0 0 0 0 0 0 0 
0 0 0 0 0 0 0 0 0 
0 0 0 0 0 0 0 0 0 
0 0 0 0 0 0 0 0 0 
0 0 0 0 0 0 0 0 0 
0 0 0 0 0 0 0 0 0 
0 0 0 0 0 0 0 0 0 
0 0 0 0 0 0 0 0 0 
0 0 0 0 0 0 0 0 0 
0 0 0 0 0 0 0 0 0 
0 0 0 0 0 0 0 0 0 
0 0 0 0 0 0 0 0 0 
0 0 0 0 0 0 0 0 0 
0 0 0 0 0 0 0 0 0 
0 0 0 0 0 0 0 0 0 
0 0 0 0 0 0 0 0 0 
0 0 0 0 0 0 0 0 0 
0 0 0 0 0 0 0 0 0 
0 0 0 0 0 0 0 0 0 
0 0 0 0 0 0 0 0 0 
0 0 0 0 0 0 0 0 0 
0 0 0 0 0 0 0 0 0 
0 0 0 
v 3 70 double
-6.5933811727e-07 5.3963510231e-07 1.2052288745e-06 -2.3184223037e-07 6.3744128723e-07 -1.8676272044e-07 -7.1531261237e-08 -1.4129883318e-06 -3.6101720932e-07 
3.8004423918e-08 1.23473262e-07 -9.9391288556e-08 2.5608242124e-08 -5.9831029202e-07 4.2500668448e-07 -4.7480948133e-07 -4.2050750307e-07 -1.849338137e-07 
-4.7273771e-07 4.9952861817e-07 -9.6449227288e-07 8.7588672825e-07 5.3411880471e-07 -8.8161921976e-07 -1.6180154537e-07 -1.9027293086e-07 9.5718276534e-08 
-6.6146119233e-07 1.3669930271e-07 2.0688198698e-06 -2.4375964569e-06 -3.0878094048e-07 3.9858182803e-06 6.418425899e-07 6.9643812803e-08 1.5008581266e-07 
4.3764944486e-07 -1.2362005549e-06 -1.3067955574e-07 -1.8586088458e-07 -5.2303115457e-07 -1.3977178684e-07 -1.3557336724e-06 -1.2451216357e-06 -3.0349132152e-06 
3.6088096682e-07 2.1762142318e-08 2.8539507562e-07 5.6708561732e-07 -6.3348864374e-07 2.0813977493e-07 -3.8982137072e-07 -4.6720046365e-07 5.415210918e-07 
-9.8330164727e-08 -1.2040477485e-07 -4.3545335509e-07 -2.1126027004e-07 -1.2412708372e-07 1.0375758548e-08 1.8796541261e-07 1.9573174572e-07 2.9869991979e-07 
5.2098568344e-07 8.7275354213e-08 -1.4083228338e-07 4.6421004365e-07 -8.1010237087e-08 7.0146794175e-07 -1.2063145134e-07 3.7273102548e-07 4.4138219782e-07 
-5.7648732754e-07 -5.0549930116e-07 -2.0289079844e-07 -4.0735908555e-07 -1.5610069016e-08 7.109678684e-07 5.647874988e-08 1.2723195315e-07 4.5590389919e-08 
2.1651810864e-07 -3.8487727538e-07 -1.564377848e-07 2.8612190755e-07 -1.1814145433e-07 3.026309092e-07 5.8179300656e-07 2.8701199253e-07 -6.6143304894e-07 
-7.2533285104e-08 -3.1603541036e-07 4.9906417415e-07 3.0593047339e-07 -4.5026695349e-07 -2.984600904e-08 -9.7270041546e-08 4.6471604105e-07 -1.7932971594e-07 
7.9819608034e-07 -5.6119872439e-07 4.1436597058e-07 -2.2694785435e-07 -4.7118762047e-07 8.0587024337e-07 6.6489716102e-07 -2.9903382784e-07 -9.3670652475e-07 
-4.2626017523e-08 4.8237879185e-07 1.8621859801e-07 2.2308385e-07 2.0129981585e-07 2.0779323196e-07 5.3013370114e-07 -2.5417318902e-07 6.1397777096e-07 
7.0267779664e-08 9.94414018e-08 -9.860618726e-08 1.6745663233e-07 3.1849230975e-07 -1.4165197937e-07 6.1009607671e-08 -6.012180002e-07 6.9911089749e-07 
7.2534932699e-08 -9.8439803386e-07 2.0684254038e-06 2.5684650679e-07 -5.6584358328e-07 3.2185925161e-07 4.735064374e-08 -1.6020767883e-07 -1.8592144853e-07 
3.6490683259e-07 -3.8078738534e-07 -7.9134020963e-08 9.1539915679e-08 -8.5478843262e-08 3.4930888692e-07 1.4520414874e-07 9.6006558164e-08 3.2514565626e-07 
3.97286795e-07 -2.7661929331e-07 7.7670484627e-07 4.8164984773e-07 -3.37603788e-07 -7.6350959199e-08 3.5001491215e-07 -3.8584817741e-07 -7.4858619877e-07 
4.1882151823e-07 -2.7996007009e-07 5.9731631587e-07 -2.4253287692e-07 -3.1791310333e-07 2.2471616139e-07 1.0156681193e-07 4.4654701683e-08 3.8499225425e-08 
4.2782734999e-07 -9.3885593676e-07 -1.0266069543e-07 1.2839063517e-07 1.6372457347e-08 8.3615508263e-08 -2.5097466297e-07 -2.6935085319e-07 -2.049762101e-07 
-1.125506412e-07 1.0824641824e-07 1.367700335e-07 5.3416569162e-07 -5.2156550536e-07 2.2068452871e-08 3.6924406096e-08 -2.2316572065e-07 1.7700769983e-07 
5.0380106138e-07 1.114971893e-07 -1.1340695438e-07 -6.2077367314e-08 6.9834957873e-08 4.513536979e-09 -7.5874359816e-08 1.4889932902e-08 -2.6040145682e-07 
3.077709768e-07 -5.633267346e-07 2.2747994268e-07 3.5907606253e-07 -2.9660531363e-07 -3.4011971182e-08 2.5250943619e-07 -1.0630753267e-07 2.76398516e-07 
3.9447954622e-07 2.4876649049e-08 3.8722979585e-08 -8.992337084e-08 -2.3713265271e-07 6.0000003966e-08 8.1305574459e-08 -2.8636461956e-07 -3.0207965795e-08 
2.4373418316e-07 -5.7653320064e-08 -3.9191681736e-08 
f 3 70 double
1.4965127137e-05 -6.8664131279e-06 0.0001541221946 3.6093846483e-05 -7.3998512163e-05 8.1736445727e-05 -2.7240651087e-06 -1.3829446956e-05 2.9338536764e-06 
7.1107924177e-06 8.5070822052e-06 3.0841111559e-05 -1.8696409136e-06 -3.969657194e-05 1.7434267633e-05 -7.0997881336e-05 -9.5291995905e-05 2.5007541676e-05 
-2.5405267033e-05 3.591235455e-06 8.5308869666e-05 1.4477508198e-05 2.1752361374e-05 -2.6014149724e-05 -6.6234430583e-05 9.1242806943e-07 -8.3229246882e-06 
-2.0380964835e-05 1.0805046293e-06 -6.0174118429e-05 9.3255187818e-05 -7.1013510804e-06 -1.7997368272e-06 -4.1976697638e-05 3.3432066444e-05 1.5904572316e-05 
0.00014683478438 -4.1595270816e-05 -5.4165164403e-05 -4.6813377357e-05 -4.043418084e-05 -2.5205822061e-05 5.3237980206e-06 -3.6146253515e-06 5.2856131265e-06 
-6.0989740249e-05 3.3319874305e-05 8.9273092042e-05 -7.6815205125e-05 2.5260060046e-05 -3.6554922008e-05 5.9866920325e-06 5.0177212721e-07 1.751288425e-06 
-4.728717153e-06 -1.8908689109e-06 1.416935435e-06 3.2861114369e-05 2.8774335073e-05 1.2735291049e-05 -3.3057264279e-05 1.6007938527e-05 -1.5483266962e-07 
2.2312569283e-05 -3.1051209041e-05 2.9216332333e-05 -4.0646815828e-05 -0.00011086741006 -1.5704670777e-05 -3.3984384552e-07 2.3448355259e-05 3.2770940648e-05 
-5.9293132812e-05 8.1690440541e-05 -6.2991565073e-05 -2.675415421e-05 -2.1878695213e-06 1.3194434978e-05 -2.4992025684e-06 -7.5665503161e-06 -6.8358332848e-06 
-1.3038679669e-05 -2.0080454257e-05 9.6067658678e-07 6.3946425138e-06 3.1958137403e-05 -5.1534902007e-05 1.8352124238e-05 2.7686231679e-06 -1.0853825032e-05 
-1.1643664636e-05 1.5977952528e-05 1.0351017441e-05 5.5952063971e-05 2.1908925159e-05 1.3762918332e-05 1.579603054e-05 -1.902824593e-05 2.2415869972e-05 
-1.6917902782e-05 5.9998696497e-05 4.1688156851e-05 -5.5743656763e-07 -2.7375078831e-06 -1.7089660164e-05 -6.3258869808e-06 5.8383405676e-05 0.00015554181516 
3.1755479502e-05 -4.8532974256e-06 1.0355996178e-05 4.29851847e-06 -1.7735108177e-05 1.3764241008e-05 -1.2387649169e-05 -1.7633576942e-05 -3.0414776412e-07 
7.4899815452e-06 1.642023742e-07 4.6658981614e-06 -2.1738349611e-06 2.6417846411e-05 -3.8015832386e-05 -1.3211867577e-06 -1.4158081136e-05 1.5398409819e-05 
0.00013797599277 -8.5180157079e-05 -2.5942667602e-05 -7.3568881385e-06 -5.9455751503e-06 2.3512234955e-05 2.7985741659e-06 -2.9113003058e-05 -2.2947333595e-05 
2.9648867551e-05 2.0637103935e-06 -5.6762960724e-06 -9.2397044233e-06 2.0158911909e-05 2.6572113836e-06 3.164260256e-05 3.9752275852e-05 3.0367644453e-05 
-1.8168088465e-05 -4.697785519e-05 -3.5682372366e-05 2.2447961601e-05 2.2820591855e-05 -1.2150950938e-05 4.8606111715e-06 -2.9439594543e-06 3.2902072825e-05 
1.3843083121e-05 3.5955499654e-05 1.747522173e-06 3.7381591912e-05 1.4448001196e-06 1.7805278415e-05 1.8203750143e-05 -5.2950312757e-06 -8.671339187e-07 
-1.750551995e-06 7.0026225079e-06 -1.488976767e-06 2.4120751508e-06 -1.7240767009e-05 -1.4138770037e-05 5.6751516387e-08 -3.1016833431e-06 -9.4626626233e-06 
-9.878760437e-06 4.1127999352e-06 -5.9031573261e-06 2.4579466362e-06 -1.6208123622e-05 4.7861896943e-06 5.2880450466e-06 6.8557815088e-06 -4.7728468668e-06 
-1.6718793702e-05 2.4405642342e-06 4.8007548918e-05 1.5474034705e-05 4.2482670159e-06 4.4782972163e-06 1.0140015813e-05 5.6272140514e-07 2.8021622345e-06 
-5.5647243471e-06 2.9328964412e-05 6.8960478434e-06 -2.5810526097e-05 5.0650862884e-06 -1.1640076427e-05 2.2880608798e-06 -4.2589367856e-06 -1.194688981e-05 
-2.1554706553e-05 9.5748573445e-06 -1.233866793e-05 2.1810909691e-06 -4.7027510301e-06 -2.7287523652e-06 5.0303856744e-06 -8.6672803752e-06 -4.671211989e-06 
-1.0535388326e-05 -7.6060527955e-07 -3.5603389013e-06 
radius 1 70 double
0.003 0.003 0.003 0.003 0.003 0.003 0.003 0.003 0.003 
0.003 0.003 0.003 0.003 0.003 0.003 0.003 0.003 0.003 
0.003 0.003 0.003 0.003 0.003 0.003 0.003 0.003 0.003 
0.003 0.003 0.003 0.003 0.003 0.003 0.003 0.003 0.003 
0.003 0.003 0.003 0.003 0.003 0.003 0.003 0.003 0.003 
0.003 0.003 0.003 0.003 0.003 0.003 0.003 0.003 0.003 
0.003 0.003 0.003 0.003 0.003 0.003 0.003 0.003 0.003 
0.003 0.003 0.003 0.003 0.003 0.003 0.003 
omega 3 70 double
-0.00073645582159 -0.00037280001547 -0.00018506792921 0.00019054881317 -0.00010321876867 -0.00029604992512 9.3716516982e-05 5.5180040951e-05 -0.00030675392681 
-8.0732375296e-06 -0.00011193702076 -0.00015038112436 0.00016019948858 -2.3073538693e-05 0.00014808240674 3.7439728921e-06 -1.6621729392e-05 -3.9729375323e-05 
0.0019460760405 0.0011549490658 -5.605010767e-05 -0.00011430578931 1.2163355998e-05 0.00038221233538 0.00016971714467 -5.3523085322e-05 -7.1846771105e-05 
0.0004226400174 0.00062690538273 -0.0001129825495 0.00099655728354 0.00035766658599 0.00033361854498 0.00013908397595 0.00069384345674 0.00080141304286 
-0.00082896094864 -0.00016149709536 0.00011737668166 -2.5953672813e-05 -0.00011751683173 -0.00013015544315 0.00035798948445 -0.00050257798788 -0.00012586480192 
0.00039737200945 -0.00037066487956 -0.00064059353552 -0.00043419220648 -0.0005781243608 -0.00025947619348 6.1403380232e-05 -0.00015939260491 -3.0570921376e-05 
-0.00033520834393 -0.00013745384996 0.00042534505373 -0.00039668678699 -0.00030177818875 -0.00031484400357 9.1394854206e-06 -0.00033990470322 0.00012609903024 
-5.8663844115e-05 -0.00016746250279 -0.00016565827125 9.8602184341e-05 -0.00015756749736 -4.5958338168e-05 -0.0002916140049 -0.00019614366758 0.00023452048434 
-0.00030367857008 0.0001739253639 2.9983998965e-05 0.00018203162097 -4.0361774784e-05 -1.1745988832e-05 4.5609572614e-05 -3.961199665e-05 0.00010327315048 
0.00016389811956 0.00011228305757 -6.7505538486e-05 -0.00019063544261 -5.3544671084e-05 3.3265517384e-05 0.0003858858631 -0.00046288259638 -2.2021474552e-05 
0.00010515114989 -0.0001663059431 6.7838525616e-06 0.00024856254565 0.00014072335052 0.00010281702502 -7.7596411019e-05 3.8509397329e-05 0.00027380303539 
0.000129385058 -0.00025067966086 0.00058179675349 -0.0012050233407 -0.00032413689552 5.1501457056e-05 -0.00051931573491 -0.00054964504432 -0.00035394956235 
0.00012754018232 7.1825376435e-06 -0.00035068318495 0.00022205039045 0.00037858784701 6.0211943469e-05 -6.1363366099e-05 -0.00028586191936 0.00019134581941 
5.2653790793e-05 -8.7835222459e-05 -7.0801141526e-05 0.00013594162635 -0.00017945399121 -7.2359530269e-05 -0.00084207460364 -5.9251342674e-06 -0.00043095376333 
-0.00013174708264 -0.0016737721582 0.00055924139713 0.00039816048276 0.00015227574089 -0.00017727155633 -0.00023219301821 8.0484516169e-05 0.0002633824303 
-5.3354063405e-05 -2.7034036261e-05 8.320024841e-05 3.0449428541e-05 1.1750634293e-05 8.8810647053e-05 -0.00058707097381 -6.5580105442e-05 -0.00011223390069 
3.2220382931e-05 -6.8421935018e-06 -0.00043208153133 0.00039354688288 9.902167245e-05 0.00019452627355 0.00013582255597 0.00024026784476 -0.00015865010185 
1.6776283305e-06 -4.7007415117e-05 -6.2882380586e-05 0.00010173042478 -0.00012938301583 -3.6609979389e-05 -4.1216581561e-05 -6.0077350331e-05 1.3562279405e-05 
-0.00032318310641 -0.00022157161591 0.0010110852642 2.9007754519e-05 5.0546149672e-05 5.9586548239e-05 -0.00011054741529 5.7234665318e-06 -0.0002134993763 
-1.1878680433e-05 -0.0001241021718 -1.1742798559e-05 -0.00029229536607 -0.00028530679681 9.6901061841e-06 -8.9883647692e-05 1.5229785214e-05 4.069274048e-05 
0.00020113047168 -0.00044077956852 -0.00016301597013 -2.2616560609e-05 -2.8320580119e-05 3.4888134372e-05 6.7720085118e-05 -8.1957995978e-05 0.00015200607685 
5.8783340758e-05 8.6449257625e-06 0.00018022092902 -1.4090509774e-05 0.00021740311242 -5.3182306168e-05 0.00010055355525 -7.2885826227e-05 -1.1880183395e-05 
0.00030320150876 -5.4622467361e-05 -8.6258529475e-05 -8.0654944525e-05 2.8796899375e-05 -0.00015699840732 -1.9298595151e-05 -4.8693688208e-06 -9.7625495183e-05 
1.817909529e-05 -5.1699963316e-05 -5.8526029799e-05 
