# vtk DataFile Version 4.2
Generated by LIGGGHTS
ASCII
DATASET POLYDATA
POINTS 70 float
0.00415463 -0.0398914 0.00499925 0.00189331 -0.0127272 0.00918618 0.0161664 -0.00511959 0.00499963 
-0.0288731 0.000683811 0.00499951 -0.00627622 -0.00307519 0.00840947 -0.00173169 -0.00115005 0.00499867 
-0.00954384 0.0115412 0.00499923 0.00596364 0.0067348 0.00499935 0.034077 0.00940817 0.00942642 
-0.0244976 0.0129951 0.00499909 -0.00413072 0.0187455 0.00499898 -0.0271457 0.0228517 0.01022 
0.00848483 0.0222272 0.00737971 0.0327017 0.0237786 0.00499893 -0.0158004 0.0300754 0.00499936 
0.0104887 0.0321007 0.00810017 0.0193373 0.0303733 0.00744596 -0.0120432 -0.0345829 0.018388 
0.0180697 -0.0197106 0.0181489 0.0357457 -0.0185345 0.0178799 0.031029 -0.00345836 0.0187753 
0.00221154 0.011842 0.0116273 -0.0318749 0.0152471 0.0189962 0.0274982 0.0234341 0.0175247 
0.00626411 -0.0387443 0.0202854 0.0222686 -0.0233558 0.0262158 -0.0203187 -0.0151885 0.021603 
0.00678314 -0.0144132 0.0242332 0.0249597 -0.0106361 0.0227673 0.011572 -0.00156322 0.0247216 
0.0176547 -0.00338256 0.0199045 0.0254961 -0.00154088 0.0263904 -0.0305904 0.0071055 0.0246424 
0.00935547 0.00965154 0.0251507 0.0275189 0.00990879 0.0261827 -0.00030817 0.0141261 0.0236588 
0.0125088 0.0175187 0.0272189 0.00184313 0.0281875 0.0214579 0.0228226 0.0375984 0.0195493 
-0.0145585 -0.0310339 0.032851 -0.010359 -0.0324735 0.0287771 0.016791 -0.0311122 0.0346448 
0.0263484 -0.0317271 0.0280191 -0.0418205 -0.0136199 0.0322057 -0.00841226 -0.0153001 0.0317959 
0.0200132 -0.0163745 0.0317398 0.00855048 -0.00731594 0.0353744 -0.0170789 0.00802935 0.0292565 
0.035766 0.00753715 0.0279136 -0.00440421 0.0223088 0.0280027 0.0131928 0.0212309 0.0318824 
-0.0275159 0.0323081 0.0333748 -0.00252421 0.0405105 0.0293863 -0.00337847 -0.0208856 0.0400041 
-0.0125358 -0.0166588 0.0424125 0.00325235 -0.0159539 0.0365206 0.0263872 -0.0175727 0.0382567 
-0.0319993 -0.00926989 0.0411704 -0.0143467 -0.00758229 0.0433045 -0.0084736 -0.00787378 0.0421132 
-0.0249206 0.00132678 0.0375301 -0.026906 -0.00358547 0.0443499 -0.00458335 0.0105025 0.0433803 
0.0210925 0.00651766 0.0360969 -0.00420116 0.0197373 0.0439462 -0.0130053 0.0259172 0.0402099 
0.0192862 0.0319925 0.0364117 0.000513986 -0.0272944 0.0448254 0.0256082 -0.00272952 0.0448913 
-0.0121959 0.0308987 0.0466202 
VERTICES 70 140
1 0 
1 1 
1 2 
1 3 
1 4 
1 5 
1 6 
1 7 
1 8 
1 9 
1 10 
1 11 
1 12 
1 13 
1 14 
1 15 
1 16 
1 17 
1 18 
1 19 
1 20 
1 21 
1 22 
1 23 
1 24 
1 25 
1 26 
1 27 
1 28 
1 29 
1 30 
1 31 
1 32 
1 33 
1 34 
1 35 
1 36 
1 37 
1 38 
1 39 
1 40 
1 41 
1 42 
1 43 
1 44 
1 45 
1 46 
1 47 
1 48 
1 49 
1 50 
1 51 
1 52 
1 53 
1 54 
1 55 
1 56 
1 57 
1 58 
1 59 
1 60 
1 61 
1 62 
1 63 
1 64 
1 65 
1 66 
1 67 
1 68 
1 69 

POINT_DATA 70
FIELD FieldData 7
id 1 70 int
203 1744 375 597 1457 912 661 54 958 
394 467 1373 717 1174 728 934 844 1779 
1976 1593 2267 1428 2154 1925 2673 3155 2824 
2476 2255 2736 2121 2909 2812 3525 3244 2597 
3108 2539 2172 3802 3049 3936 3264 3766 3877 
3960 4218 3395 3241 3303 3862 4092 3557 4774 
5469 4537 4044 4863 5064 5129 4669 5429 5196 
4333 5591 4215 4415 5493 5453 5477 
type 1 70 int
2 2 2 2 2 2 2 2 2 
2 2 2 2 2 2 2 2 2 
2 2 2 2 2 2 2 2 2 
2 2 2 2 2 2 2 2 2 
2 2 2 2 2 2 2 2 2 
2 2 2 2 2 2 2 2 2 
2 2 2 2 2 2 2 2 2 
2 2 2 2 2 2 2 
i 3 70 int
0 0 0 0 0 0 0 0 0 
0 0 0 0 0 0 0 0 0 
0 0 0 0 0 0 0 0 0 
0 0 0 0 0 0 0 0 0 
0 0 0 0 0 0 0 0 0 
0 0 0 0 0 0 0 0 0 
0 0 0 0 0 0 0 0 0 
0 0 0 0 0 0 0 0 0 
0 0 0 0 0 0 0 0 0 
0 0 0 0 0 0 0 0 0 
0 0 0 0 0 0 0 0 0 
0 0 0 0 0 0 0 0 0 
0 0 0 0 0 0 0 0 0 
0 0 0 0 0 0 0 0 0 
0 0 0 0 0 0 0 0 0 
0 0 0 0 0 0 0 0 0 
0 0 0 0 0 0 0 0 0 
0 0 0 0 0 0 0 0 0 
0 0 0 0 0 0 0 0 0 
0 0 0 0 0 0 0 0 0 
0 0 0 0 0 0 0 0 0 
0 0 0 0 0 0 0 0 0 
0 0 0 0 0 0 0 0 0 
0 0 0 
v 3 70 double
1.7306308036e-06 -9.0674545972e-07 -1.54984052e-06 9.0490832228e-07 -3.8183416705e-07 -5.0522610384e-07 3.9942125981e-06 -6.685008516e-07 -1.7177587593e-07 
-1.8957520946e-07 6.4791461959e-08 4.2364203329e-08 -1.6528096361e-08 2.9316203121e-07 2.73805173e-07 -6.2931665078e-07 1.1708487728e-07 -2.9950988199e-08 
8.84411743e-07 -3.2097580062e-06 -1.4183836265e-06 -3.1640883834e-07 5.9640069487e-07 6.309723247e-07 -7.9713108981e-07 6.7814873199e-07 4.887834632e-08 
1.9545472729e-06 2.8234023667e-06 -2.4388024142e-06 1.7946660667e-06 -2.1895659538e-06 -6.2512943608e-06 -9.7336367565e-07 -3.0040847422e-07 1.9165178755e-06 
4.5640086727e-07 -8.0977254561e-07 -7.9402510449e-07 -5.8196076378e-07 1.6089679977e-07 -3.666949775e-07 4.8250263773e-07 -6.0200245928e-07 4.9142801855e-06 
4.8179989234e-07 1.6040479149e-06 -5.8583494197e-07 2.0770693502e-07 1.5909032189e-07 -2.0857352993e-07 -6.8598772915e-07 5.0198527121e-07 2.52337667e-07 
-4.4389902996e-07 1.3757535965e-06 -1.3511961603e-06 6.6970400828e-07 -3.1080532343e-08 1.9038737714e-06 -4.0314373252e-07 -3.2126381951e-07 5.1301985885e-07 
-2.0762307585e-07 -9.7177693326e-07 -3.5449987998e-08 -4.3463378797e-08 3.0566211873e-07 -1.1074622125e-07 2.6277390138e-07 -4.6446582491e-08 -7.0993265671e-09 
2.4242755026e-06 9.4666361078e-07 -1.8389322801e-06 6.3810034667e-08 -2.0100962982e-07 -3.2106406536e-07 -3.9334456638e-07 -1.573098283e-07 2.122608534e-07 
2.4229452753e-07 -1.2388979792e-07 4.1768821906e-07 -6.8116032769e-07 -1.7868166767e-07 1.3859675459e-06 7.9437379904e-07 1.3418157518e-07 3.6654096639e-08 
-2.4398787816e-07 -8.4612388564e-07 -1.1791696118e-06 -6.9491075801e-08 1.5135823478e-07 -3.8168633497e-07 1.6672973341e-07 2.7020449402e-07 8.9825739402e-08 
3.5666956668e-07 -8.5191648895e-07 -1.6076372042e-07 -1.4915899171e-07 -6.5775284307e-07 -5.1928125544e-07 -1.4992315068e-07 -1.788071478e-07 4.4161909021e-07 
-7.6892454632e-07 1.3357988816e-07 6.4572423572e-07 -3.247515819e-07 -3.0195390724e-07 6.8728390995e-08 7.898235814e-08 2.2129359368e-07 -2.0128339916e-07 
9.2187062601e-08 1.141267515e-07 -2.9602819071e-07 3.2700166654e-07 2.7492342228e-07 -1.4672197064e-07 -1.8846068004e-07 -7.6439452827e-08 -1.1468585693e-07 
-1.4696521979e-06 -8.7505437238e-07 -1.3551487074e-06 -2.1180692787e-07 3.6328110865e-07 -3.5468632742e-07 1.3133459357e-08 -2.2463015385e-08 -3.6992821845e-07 
1.1507818591e-07 5.7998829889e-07 -1.9371893281e-07 -1.5332200216e-07 -4.5534399496e-07 -9.7919996581e-08 6.2773045385e-07 -6.1571655579e-08 -6.0688768401e-07 
3.5000426571e-07 -1.6036421269e-09 -3.8848728768e-07 -4.6534841022e-07 -5.2157472905e-07 2.1946417614e-08 1.2342436454e-07 3.3437073638e-08 1.2514138091e-07 
-1.0981190104e-07 -3.2171623726e-07 -1.0067057666e-07 3.4117321786e-07 6.3618344523e-07 6.6722373112e-07 -2.9485533863e-07 3.0113525947e-07 4.492576284e-07 
3.9930582555e-07 2.8253504006e-07 1.325081074e-07 2.3277550613e-08 1.1318848394e-07 -4.4590939894e-07 6.7111586693e-08 6.0091157336e-08 -5.9686758317e-07 
2.8325219718e-07 -1.0935863239e-07 -1.3322672796e-07 8.0284137872e-08 -4.3819434633e-07 9.6040918748e-08 2.0261184608e-09 7.9383363465e-08 -1.634797492e-07 
1.2660744463e-07 1.3063117306e-07 -3.3013437871e-07 2.2487871918e-08 2.2447881684e-08 -2.9500260921e-07 1.6923084007e-08 -1.6277754626e-07 7.4235425715e-08 
1.8864290227e-07 -1.208915786e-07 1.0895669257e-07 -6.4969862049e-07 -1.6449086552e-07 3.3231391998e-08 -7.0883614367e-08 1.4101954041e-07 2.1389374302e-08 
9.0823233306e-08 -1.7120037069e-07 -1.1194760731e-07 2.2857044068e-07 8.7806350532e-08 7.4195725112e-08 -7.6899840507e-09 -2.4722422786e-07 1.8398274792e-08 
1.3260518593e-08 -1.3818899426e-08 1.8559758572e-07 
f 3 70 double
4.5309742769e-05 1.2889318361e-05 0.0001214596692 2.7805305045e-05 -0.00015084342819 2.0925892467e-05 -1.6276949853e-05 1.8288901781e-06 -4.5752897122e-05 
-3.5640669277e-06 1.0762893598e-05 -1.351014452e-05 -3.1989342105e-05 -2.5737669852e-05 3.8581275206e-05 -2.3274998513e-05 3.8343166128e-05 3.0241010173e-05 
-5.7492254142e-06 8.0145597593e-06 7.2234793516e-05 -1.2504301605e-05 -1.5982204561e-05 4.6802599545e-05 -6.6896026701e-06 1.0179210495e-05 -6.5301480838e-05 
1.9496490609e-05 1.546273106e-05 5.0307479217e-06 5.9495107056e-05 -2.1217207196e-06 1.7394416437e-05 2.9420674963e-05 -4.5767495351e-05 -3.2246993234e-05 
0.00014036332982 0.00012422710777 -5.6650018219e-05 -9.0687123105e-05 -1.3332003261e-05 2.3636981789e-05 5.5136802379e-05 -3.6683068327e-05 -6.4793625484e-05 
-8.24736843e-05 -5.871076334e-05 5.7097980783e-05 -2.0442847475e-05 3.2926710165e-05 -8.3841104411e-05 3.0092854464e-05 -3.1914630226e-05 -3.9346941775e-06 
3.0181245239e-05 1.94788652e-05 3.3534108424e-05 -2.7334346829e-06 4.6161248485e-06 4.1852791738e-05 1.8446841838e-05 -6.517331899e-07 -1.9262764975e-05 
7.8750113623e-06 3.0533156929e-05 2.953353742e-06 7.6061613763e-05 7.5570922509e-05 1.5075025982e-05 1.1166995335e-05 -8.1895647233e-06 -1.6163421944e-05 
4.0673681361e-05 2.5315931679e-05 4.7704468403e-05 2.3694005094e-05 8.577564799e-06 -1.3071103525e-05 1.1004900298e-05 2.2024262641e-05 8.4692115377e-06 
0.00011981103583 2.2741387006e-05 3.4504968727e-05 -4.6374420053e-07 9.8583248284e-06 -3.7085047723e-05 -2.5530549249e-05 -1.6264944313e-05 8.8637801093e-06 
1.4203980145e-05 8.3306723012e-06 -1.7517579572e-06 6.2582775496e-05 2.7994331286e-05 -6.5781204999e-06 -6.7684001101e-05 1.3445650316e-05 -2.3999953208e-05 
-7.5742217414e-05 -9.7353777261e-06 1.1340122968e-05 -3.1447408139e-05 3.1101956954e-05 -2.2520267077e-05 -5.4168067379e-05 8.0532428747e-06 5.6834952404e-05 
4.7217313381e-05 -1.6337438823e-05 4.5009531499e-06 -9.2575777153e-06 9.5572932878e-06 -3.7773045943e-06 2.9811900344e-05 4.9542303605e-06 -8.6948365601e-06 
2.2369082674e-05 -3.3500226888e-05 2.9241596843e-05 3.6765503773e-05 -1.0987574081e-06 -1.44943242e-05 1.2650108723e-05 1.1706957714e-06 6.3841777234e-06 
-1.1078889777e-05 2.6235164248e-05 -1.6438658213e-06 2.4947171466e-05 2.8626087862e-05 -8.6294788699e-06 5.6762727004e-06 -1.8096453834e-05 -6.2854205882e-06 
3.5412184073e-07 9.5586275994e-06 -2.2463497778e-05 4.4769874073e-06 -1.9120825186e-05 2.8131723352e-06 -5.7248932695e-05 -4.8520409584e-07 2.6695862728e-05 
3.3279368737e-05 1.8311350816e-05 -4.6523839104e-05 1.2701639341e-05 -3.0911046606e-05 -4.9235569685e-06 1.1992657604e-05 -2.2307915815e-05 2.4930739621e-06 
1.8417495803e-05 -3.9257242982e-05 -1.0240047611e-06 1.5990124143e-05 1.4443527927e-05 -2.7356628436e-05 -1.4846221672e-05 -5.1228952693e-06 -1.1174435364e-05 
3.5394364275e-06 -8.1832408084e-06 2.3935279751e-06 -1.1644127321e-05 -6.5752714984e-06 -1.4656004563e-05 1.7048539559e-05 7.1206528451e-06 1.9067370683e-05 
-1.5297614308e-05 -4.4603970993e-06 2.7718983229e-06 1.0386167595e-05 -8.4522020985e-06 -1.1936257898e-05 -4.379958426e-06 -6.7206410797e-06 1.3089295802e-05 
-3.7326736017e-06 6.1777273578e-06 -1.0165681663e-05 7.7214737164e-06 4.5149693882e-06 -2.6437191606e-06 3.7028777173e-06 -4.6193356158e-06 3.901591114e-06 
-1.4023512154e-05 2.5404699692e-06 6.8199775037e-06 -6.4479307815e-06 -7.7734296329e-07 4.3604086729e-06 -3.2662347637e-06 -4.4673897269e-06 5.8723394203e-06 
-7.9823558646e-06 -1.3060076804e-05 1.7280039077e-05 -5.2271313571e-06 -2.6357461474e-06 3.3383826314e-06 8.5041497751e-08 -5.0422832348e-06 -1.9275905962e-06 
-9.1493046977e-06 -4.4733908925e-09 -6.599750251e-06 
radius 1 70 double
0.003 0.003 0.003 0.003 0.003 0.003 0.003 0.003 0.003 
0.003 0.003 0.003 0.003 0.003 0.003 0.003 0.003 0.003 
0.003 0.003 0.003 0.003 0.003 0.003 0.003 0.003 0.003 
0.003 0.003 0.003 0.003 0.003 0.003 0.003 0.003 0.003 
0.003 0.003 0.003 0.003 0.003 0.003 0.003 0.003 0.003 
0.003 0.003 0.003 0.003 0.003 0.003 0.003 0.003 0.003 
0.003 0.003 0.003 0.003 0.003 0.003 0.003 0.003 0.003 
0.003 0.003 0.003 0.003 0.003 0.003 0.003 
omega 3 70 double
-0.00023939668883 0.00010190346967 -7.4941395602e-05 -0.00055326487716 -0.0010887718943 -0.0011368055132 -0.00062661638408 -0.0010968704959 0.00071241674734 
1.4135855649e-05 0.0001092283323 -1.4771374914e-05 -4.2216385176e-05 -0.00012399860932 5.9435927399e-05 -0.00017965828315 0.00011289624493 0.00018761619541 
-0.00015904372294 -0.00052978950905 0.00032587116983 -6.3988815676e-05 0.00014893215818 9.753515847e-05 4.5752606001e-05 0.0001526628723 -0.00013085361225 
0.00020243846878 0.00031198921723 0.00055338463371 -0.00030693592632 -0.00035899292485 -0.00051009811422 0.00047019020119 -0.00041431602764 -0.00058210869895 
-0.00088759290436 -0.00010017729042 -0.00013741525315 0.00032053197346 -0.00037221682541 -0.00057746148914 -9.5137015167e-05 0.00022690267694 0.0025859757099 
0.00029050533012 0.00099291276481 -0.00015263782109 6.382961569e-05 0.00014331055631 -7.0272517032e-05 -0.00011905417948 4.0846567739e-05 -0.00013849853118 
-6.6181385616e-05 4.7039735904e-05 -0.00031507375051 0.00035673105986 0.00029020532573 0.0004323573852 0.00012385483505 0.00023000882463 -5.1596080513e-05 
0.00044593738286 -4.1270438473e-05 6.2664069808e-05 -0.00041074557111 0.00022871489814 -0.00025553841615 0.00013941913258 0.00014326035552 0.00013135230157 
0.00098485124587 0.00026516529792 0.0019993223423 0.00015931421684 -3.7612963802e-05 0.00045778628412 1.0084270902e-05 4.1435126057e-05 7.7084744067e-05 
0.00046431644664 0.00066339176984 0.00049068389254 -1.9446237188e-05 -8.3882300315e-05 -9.0731702131e-07 0.00011541222654 -0.00020676284002 6.1948909932e-05 
7.1433871242e-05 -0.00016452655824 5.6457300542e-05 1.1443629145e-05 0.00022247358663 -1.4710396312e-05 5.9324066785e-05 -0.00027937328611 -0.00045830567699 
0.0003415486447 0.00022150933633 -0.00048728696808 0.00068158307875 0.00042157627676 0.00085503271584 -9.5192634376e-05 1.2962814291e-05 0.00015486873307 
-0.00034769128753 -0.00034090245419 -0.00055534767917 0.00016987119545 -0.00013645853863 -2.9731860325e-05 -0.00020562215481 -0.00034141606599 1.4843635579e-05 
-0.00015038024525 -7.0315496038e-05 8.3976583398e-05 4.3562206039e-05 -0.00010298620869 0.00016981371918 0.00020501116428 -0.00069633771316 0.00095833873928 
0.0012900206595 0.00072182406747 -0.0017182900756 -0.00025331389798 -4.9082863927e-05 0.00016656046596 -3.5955694445e-05 -4.0514479398e-05 7.6120107374e-05 
-1.0805171393e-05 0.00017843368299 7.0970333071e-06 -0.0003292678473 4.3650751902e-05 -8.6528416978e-05 0.00049056675738 -0.00045461740584 -0.00016412897948 
-0.00019314328375 -0.00021671116218 -0.0001191732842 -0.00020355643065 -0.00022629389699 0.00031481236764 -5.4011677296e-05 0.00013672591187 5.5189316909e-05 
-6.5520916613e-05 5.8953179633e-05 0.00027028339885 0.0001469402216 -4.4148124091e-05 3.9053872227e-05 -0.00014678758948 -0.00033326768778 1.4632406239e-05 
1.6766029944e-05 6.9378130784e-05 0.00011422735578 9.7764606237e-05 0.00018002715674 0.00044303965036 3.8879261723e-05 3.2910052756e-05 3.2503024026e-05 
0.00011991770098 0.00038205935658 0.0001964402944 -2.5932280971e-05 -0.000327636898 -0.00012018228739 5.7784453014e-05 -0.00017574768913 -4.7836894673e-05 
0.0001079407189 0.00029502374707 1.4899974491e-05 0.00015331871372 -7.9848319478e-05 0.00011932351479 -7.6168304362e-05 -3.4679686152e-05 6.2178958364e-05 
-6.5153029403e-05 -4.5957594328e-05 -8.1955841744e-05 -8.6604782738e-06 0.00035195126102 0.00019748712794 -5.3396943098e-05 5.0373899378e-05 3.9473355906e-05 
0.00011246156653 -0.00033636588347 7.211062611e-05 -3.6768980145e-05 -0.00017771753006 -0.00018293829875 -4.0849968885e-05 -0.00017450671041 0.0001381149694 
2.3379705012e-05 -5.9530821024e-05 0.00010332895259 
