# vtk DataFile Version 4.2
Generated by LIGGGHTS
ASCII
DATASET POLYDATA
POINTS 70 float
0.00951525 -0.0376922 0.0254001 0.00421329 -0.0351985 0.023773 0.0215827 -0.0331856 0.0260772 
0.0267728 -0.0303226 0.0270554 0.0114939 -0.0259038 0.0256677 0.018153 -0.0279419 0.0230955 
0.0318524 -0.0194106 0.0235864 -0.0272394 0.0306008 0.0257447 0.0163482 -0.0377204 0.0330211 
-0.00195812 -0.0221584 0.029089 0.0152009 -0.0247773 0.0337835 0.00761754 -0.0131233 0.0328093 
0.0322105 -0.0126304 0.0347895 0.0382595 -0.0140941 0.0317328 -0.0153451 -0.0113535 0.0325531 
0.0246261 -0.007639 0.0354856 0.0279715 0.00549162 0.0351152 -0.0279918 0.0158226 0.035591 
0.00568764 0.0192403 0.0370224 -0.00513202 0.0266903 0.0316288 -0.0279302 0.0291898 0.0375399 
-0.0163282 0.0382615 0.0292524 -0.00330107 -0.0365965 0.0430118 0.00508651 -0.0203573 0.0390116 
-0.00470405 -0.0120619 0.0369766 0.0274019 -0.00524451 0.0405036 0.0430441 -0.00846468 0.0388766 
0.0375787 -0.00122752 0.044449 -0.0167941 0.0281754 0.0436781 -0.00312047 0.0217164 0.0384731 
0.00379132 0.0266675 0.0431156 0.0195903 0.0224248 0.0406868 -0.0272441 0.0345311 0.0404284 
-0.0273666 0.0303924 0.0455794 -0.00797914 -0.0305782 0.0469228 -0.00260842 -0.0332651 0.0479775 
0.00648937 -0.0314612 0.0480001 -0.027008 -0.0250314 0.0475477 -0.00555723 -0.0269061 0.0510566 
0.00387553 -0.0261343 0.0501108 0.00795057 -0.0211159 0.0504286 0.0154901 -0.0233511 0.0454825 
-0.0196689 -0.0133964 0.0531619 -0.0079755 -0.0149688 0.0472528 0.0198848 -0.00610528 0.0516029 
-0.0306405 0.00889174 0.0523741 0.00769645 0.0124311 0.0510208 -0.022446 0.0147284 0.0508897 
-0.0210318 0.0205657 0.0520632 0.000805854 0.0152468 0.0541339 -0.0256477 0.0283713 0.0509804 
-0.00925424 0.0257722 0.0492814 -0.00466853 0.0249086 0.0533669 0.00483458 0.0263383 0.0523996 
-0.0320568 0.0300393 0.0532467 -0.027302 0.0341082 0.0503501 -0.0186948 0.0309816 0.0487313 
0.00911724 0.0305027 0.0540709 -0.00785027 -0.0294692 0.0565904 0.0016181 -0.0286078 0.0553348 
-0.00666716 -0.0185034 0.05593 0.0120828 -0.0164127 0.0573737 -0.0151546 -0.00553264 0.0556044 
0.0184798 -0.00568121 0.0574736 0.020103 -0.000109335 0.0550893 0.0116923 0.0072755 0.057814 
0.015001 0.0120556 0.0558265 -0.0377712 0.0139461 0.0561392 -0.00569651 0.0128506 0.0579889 
0.00344027 -0.0226671 0.0624323 
VERTICES 70 140
1 0 
1 1 
1 2 
1 3 
1 4 
1 5 
1 6 
1 7 
1 8 
1 9 
1 10 
1 11 
1 12 
1 13 
1 14 
1 15 
1 16 
1 17 
1 18 
1 19 
1 20 
1 21 
1 22 
1 23 
1 24 
1 25 
1 26 
1 27 
1 28 
1 29 
1 30 
1 31 
1 32 
1 33 
1 34 
1 35 
1 36 
1 37 
1 38 
1 39 
1 40 
1 41 
1 42 
1 43 
1 44 
1 45 
1 46 
1 47 
1 48 
1 49 
1 50 
1 51 
1 52 
1 53 
1 54 
1 55 
1 56 
1 57 
1 58 
1 59 
1 60 
1 61 
1 62 
1 63 
1 64 
1 65 
1 66 
1 67 
1 68 
1 69 

POINT_DATA 70
FIELD FieldData 7
id 1 70 int
3960 1976 2121 2736 2255 5453 3241 4092 3525 
4218 3155 1593 4333 2909 4044 2267 4415 1373 
5477 4215 2812 2597 3877 4537 3264 3244 375 
54 5196 3557 5591 2172 5429 4669 2824 2476 
3395 5064 3049 5129 5493 4774 3802 203 958 
597 1174 2154 394 844 661 3303 2539 467 
4863 3766 728 717 1779 1744 3936 1457 912 
1925 3862 3108 1428 5469 934 2673 
type 1 70 int
2 2 2 2 2 2 2 2 2 
2 2 2 2 2 2 2 2 2 
2 2 2 2 2 2 2 2 2 
2 2 2 2 2 2 2 2 2 
2 2 2 2 2 2 2 2 2 
2 2 2 2 2 2 2 2 2 
2 2 2 2 2 2 2 2 2 
2 2 2 2 2 2 2 
i 3 70 int
0 0 0 0 0 0 0 0 0 
0 0 0 0 0 0 0 0 0 
0 0 0 0 0 0 0 0 0 
0 0 0 0 0 0 0 0 0 
0 0 0 0 0 0 0 0 0 
0 0 0 0 0 0 0 0 0 
0 0 0 0 0 0 0 0 0 
0 0 0 0 0 0 0 0 0 
0 0 0 0 0 0 0 0 0 
0 0 0 0 0 0 0 0 0 
0 0 0 0 0 0 0 0 0 
0 0 0 0 0 0 0 0 0 
0 0 0 0 0 0 0 0 0 
0 0 0 0 0 0 0 0 0 
0 0 0 0 0 0 0 0 0 
0 0 0 0 0 0 0 0 0 
0 0 0 0 0 0 0 0 0 
0 0 0 0 0 0 0 0 0 
0 0 0 0 0 0 0 0 0 
0 0 0 0 0 0 0 0 0 
0 0 0 0 0 0 0 0 0 
0 0 0 0 0 0 0 0 0 
0 0 0 0 0 0 0 0 0 
0 0 0 
v 3 70 double
-0.033587835372 0.035905471004 0.085347476851 -0.028590324387 0.051634454099 0.090950805948 -0.017817174056 0.034209477053 0.085167304239 
-0.0096112634403 0.027989088423 0.078186301602 -0.0018754461309 0.066640574152 0.094695875322 -0.010592847006 0.060427172924 0.11380056208 
0.03070425524 0.054629339357 0.072750384016 0.02112841287 0.028424404619 0.17209533855 0.00095729913821 0.023739174818 0.039771354468 
0.01386021916 0.089383700212 0.079657864557 0.026523514357 0.051434111865 0.066211473305 0.031445147465 0.081401023906 0.077594873591 
0.025965762255 0.052650623065 0.091357934595 0.029261865572 0.083501288735 0.088337379255 0.0095978104568 0.07912057316 0.078943681666 
0.028300404783 0.079964930748 0.12137580953 0.0093554141151 0.075357493499 0.19114809679 0.031061680071 0.054647609978 0.1453861936 
0.020991184549 0.075361001134 0.19576133486 0.0057600598607 0.065314536428 0.17519805965 0.046317825915 0.045697609398 0.18526480017 
0.0092901834823 0.026773840362 0.17079256101 0.015819145492 0.02165753127 0.049788991667 0.027715263479 0.075400958911 0.045949436244 
0.027769631627 0.089198354182 0.089451213989 0.018413082917 0.075259538039 0.12607635858 0.015292392844 0.077205029913 0.1016710652 
0.013346460159 0.067842667776 0.16209925606 0.020822457932 0.016748835778 0.19638538374 0.035609342626 0.048770334766 0.19095662043 
0.005268601108 0.02574814599 0.23140693548 0.017518431123 0.044798035803 0.23635755743 0.041047663104 0.039046177067 0.20251048198 
0.029684644045 0.027146630156 0.2243261451 0.0089970965854 0.047365015086 0.027911727569 0.0057850996807 0.043384438393 0.034854735994 
0.0012413788445 0.031313553088 0.031452951656 0.0012076829457 0.019624373634 0.024543758124 0.035820112019 0.052791902327 0.018556816119 
0.037265292827 0.065989786627 0.033541545108 0.037346697184 0.055947368035 0.04647517472 0.030182927402 0.050371627232 0.046676687733 
0.017853234704 0.067907190895 0.045015322119 0.018294833184 0.083891332535 0.053152641798 0.023884130176 0.071379472723 0.13281767327 
0.015948301307 0.051452537096 0.14502151969 0.037967232356 0.084567722044 0.20385980374 0.038052113587 0.023087362465 0.1715268217 
0.026326457698 0.052215996425 0.19560885975 0.022386809214 0.052651275515 0.22853693844 0.017758902577 0.035412116169 0.21138382676 
0.042860012867 0.031336422266 0.19374182656 0.016259014 0.048181176673 0.25691391753 -0.00096428222007 0.029021965952 0.26030334109 
0.0090342533641 0.016381194549 0.17657401951 0.028698715959 0.046266121197 0.18775054073 0.038014910074 -0.010011442183 0.23880557364 
0.0105232484 0.045528815772 0.26949920528 0.03512471428 0.069204583912 0.029244006896 0.050705722812 0.049258077805 0.037430586666 
0.034276406556 0.061608225552 0.035842779374 0.046031578415 0.05731910789 0.091012203974 0.022967529465 0.044386208024 0.069141717922 
0.038859237698 0.044287728351 0.13430172727 0.0018784974158 0.036160023674 0.18376191535 0.05284399513 0.050371977117 0.21179231298 
0.035018539088 0.089203338764 0.23872040942 0.02092770908 0.023857141933 0.13274997905 0.049828483389 0.055341463125 0.24235015326 
0.042252646389 0.049693433696 0.020100038368 
f 3 70 double
0 0 -0.0085430334339 0 0 -0.0085430334339 0 0 -0.0085430334339 
0 0 -0.0085430334339 0 0 -0.0085430334339 0 0 -0.0085430334339 
0 0 -0.0085430334339 -0.0034533762553 0.002384295839 -0.0072993575924 0 0 -0.0085430334339 
0 0 -0.0085430334339 0 0 -0.0085430334339 0 0 -0.0085430334339 
0 0 -0.0085430334339 0 0 -0.0085430334339 0.00079469098775 -0.00035156617204 -0.0084251777922 
0 0 -0.0085430334339 0 0 -0.0085430334339 0.00030560988868 -0.0024501023683 -0.0087224627139 
0 0 -0.0085430334339 0 0 -0.0085430334339 0.010651055752 0.018449722764 -0.030364394213 
0 0 -0.0085430334339 0 0 -0.0085430334339 0 0 -0.0085430334339 
0 0 -0.0085430334339 0 0 -0.0085430334339 0 0 -0.0085430334339 
0 0 -0.0085430334339 0 0 -0.0085430334339 -0.0077183810422 0.0076489449939 0.0055811841922 
0 0 -0.0085430334339 0 0 -0.0085430334339 -0.0015628614675 0.0014009339545 -0.0078198205402 
-0.0027499520367 -0.0078016873624 -0.0099736560749 0 0 -0.0085430334339 0 0 -0.0085430334339 
0 0 -0.0085430334339 -0.0066655317282 -0.00037728684739 -0.092651090353 0 0 -0.0085430334339 
0 0 -0.0085430334339 0.00010449194286 -0.00018536033136 -0.0085309605602 3.8127116754e-05 -0.00011509002849 -0.0084230395284 
0 0 -0.0085430334339 0.029833902062 0.020877469725 -0.015889894348 0 0 -0.0085430334339 
0.011001073497 -0.02434696765 -0.013112932436 0 0 -0.0085430334339 0 0 -0.0085430334339 
0 0 -0.0085430334339 0 0 -0.0085430334339 0 0 -0.0085430334339 
-0.023961118003 0.018533574421 0.042347565856 0 0 -0.0085430334339 0 0 -0.0085430334339 
0 0 -0.0085430334339 0 0 -0.0085430334339 0 0 -0.0085430334339 
0 0 -0.0085430334339 0 0 -0.0085430334339 0 0 -0.0085430334339 
0 0 -0.0085430334339 0 0 -0.0085430334339 0 0 -0.0085430334339 
0.0062683549181 -0.0033096825908 0.0015503527737 0 0 -0.0085430334339 0 0 -0.0085430334339 
0 0 -0.0085430334339 0 0 -0.0085430334339 0 0 -0.0085430334339 
0 0 -0.0085430334339 
radius 1 70 double
0.003 0.003 0.003 0.003 0.003 0.003 0.003 0.003 0.003 
0.003 0.003 0.003 0.003 0.003 0.003 0.003 0.003 0.003 
0.003 0.003 0.003 0.003 0.003 0.003 0.003 0.003 0.003 
0.003 0.003 0.003 0.003 0.003 0.003 0.003 0.003 0.003 
0.003 0.003 0.003 0.003 0.003 0.003 0.003 0.003 0.003 
0.003 0.003 0.003 0.003 0.003 0.003 0.003 0.003 0.003 
0.003 0.003 0.003 0.003 0.003 0.003 0.003 0.003 0.003 
0.003 0.003 0.003 0.003 0.003 0.003 0.003 
omega 3 70 double
-3.6428955345 8.6142362036 -0.29880292071 0.19146337699 2.5477116239 -4.2712064462 -1.2974343601 -2.9554206029 -2.8627831306 
-0.077207457063 4.9984478747 -0.26895399679 -1.1539415034 -0.32685309256 -6.4487687669 11.27412701 0.38756091746 -25.981830816 
-1.8625528681 5.1004996534 -8.5516609888 2.1961577429 2.5115173813 1.0218073938 3.754520459 1.1713537309 0.058572113678 
0.16240899176 -1.8198318604 -1.6059857623 0.81535479864 0.70469345526 -1.2426663357 6.8492133995 1.1559110913 -0.45810948387 
2.5383829563 -2.4283964241 2.8313421582 5.9912239523 -1.5183050025 3.9485248149 0.78757806947 0.60023391232 2.837802073 
3.0511769734 0.81344305457 0.42588427912 4.0512165228 -0.81794455613 1.2347913321 2.6708223041 -0.90529452259 -2.4452556311 
3.8973810353 -0.52352560662 -0.94502079629 2.2713475737 1.2638272569 -1.4943415774 -0.016930060342 0.63668752745 -3.5192789857 
-4.2805633819 -1.5438758089 -0.73324170848 -1.6623127978 3.7155351994 -2.8788816988 0.85489522144 0.85158056147 1.0691588309 
2.7077925538 -2.649567348 0.62215662609 6.9250427534 2.9011901555 -1.0029251374 2.0078039807 -2.4630065279 3.8612164168 
3.2250211585 0.038354821325 0.20542750888 5.2837345242 -3.1949113947 1.9628837447 -3.8385780871 4.3399081028 1.0332692844 
-5.4403752774 -2.70418476 -2.8753242396 -1.1928366393 -1.5853122865 -0.91981668155 3.207906115 -0.80867058362 -0.53340852813 
2.7569962923 -0.81351442097 2.6481052341 0.53424907514 0.49306600153 -1.3919369965 5.3907286145 3.8689800439 -3.0989745068 
-0.38250000323 -1.0714009381 -3.0337841315 -1.13783653 3.9458036132 -1.3741677506 5.3286545827 2.6597871615 -0.94910185167 
2.7692809217 5.1491028253 -0.017053732761 2.4932231224 5.4339598704 1.394708479 0.029116346611 1.4296802479 0.36269542722 
4.8121359249 0.38007283331 -5.1034602054 -5.3367455909 1.137712996 -1.1026651029 6.6444573075 2.8573999528 1.1201477958 
2.2390171656 3.9615801978 2.7304177895 0.89145714568 0.49391620539 6.0914609216 1.2550514693 11.645261223 1.4867564258 
1.668683354 -2.1359160612 4.8431993385 4.571826545 -2.0898601782 1.4525748068 -6.9478648974 -6.8597699552 -0.23907238447 
1.9465116747 0.10980853014 1.182740517 -7.9883315994 1.5539207755 -2.5380292409 2.1242753634 8.1132828133 0.63828663505 
7.1310955868 -21.538999869 -1.3190310793 3.4744513928 -7.5711073436 -1.3402740995 1.1543981429 -5.4859975734 2.6961851748 
8.9049093797 -3.3359909097 2.3078025991 -7.2952749251 -0.75802248776 0.052568391359 -2.6445904261 2.8960192682 -6.2308273941 
-6.2937154051 8.9363272217 1.7997540834 2.6568604724 -5.1798882939 -14.163740758 9.9673154701 3.3559287197 -3.4600426291 
0.94500904528 -1.8623623421 8.0290443777 3.2536579417 9.7574525674 -6.1303378222 5.1140625513 -10.404790865 6.2250632046 
11.029569739 3.8017041984 -7.2633961961 7.7227050695 0.24657184007 -3.0325749162 17.136612336 2.8774332851 -2.5655668868 
8.4116344721 11.02314232 1.7444661603 
