# vtk DataFile Version 4.2
Generated by LIGGGHTS
ASCII
DATASET POLYDATA
POINTS 6000 float
-0.0221919 -0.0389121 0.0172236 -0.0174958 -0.0413555 0.0172831 -0.014121 -0.0390952 0.0177367 
-0.0177444 -0.037474 0.0182845 -0.0120413 -0.0424997 0.0174033 -0.010333 -0.0378192 0.0175273 
-0.00602946 -0.0444608 0.0167161 -0.00814792 -0.0410662 0.0166525 -0.0063635 -0.0372759 0.0171617 
-0.00384679 -0.040063 0.0186406 0.00242005 -0.044916 0.0168847 -0.000532821 -0.0423163 0.0178977 
0.00306979 -0.0405227 0.0180566 0.00711768 -0.0406893 0.0180944 0.0093866 -0.0439851 0.0184981 
0.00996638 -0.0379772 0.0188314 0.0138484 -0.0389373 0.0185907 0.0132476 -0.0429614 0.018777 
-0.0299011 -0.0334229 0.0182404 -0.0328355 -0.0307065 0.0183456 -0.0269368 -0.0359646 0.0172256 
-0.0234102 -0.0340821 0.0170933 -0.0239205 -0.0290014 0.0171646 -0.0188424 -0.0333068 0.0175751 
-0.0148372 -0.0342776 0.0174726 -0.0191982 -0.0291355 0.0181134 -0.0111082 -0.0295927 0.0169949 
-0.00993667 -0.0338392 0.017653 -0.00734505 -0.0308622 0.0183938 0.00228943 -0.0359294 0.018084 
-0.00336379 -0.0312709 0.0187514 0.000503727 -0.0323357 0.0188721 0.00444416 -0.0317254 0.0184796 
0.00867781 -0.0344049 0.0173959 0.00844928 -0.030162 0.0181609 0.0129534 -0.0351973 0.0173554 
0.0170383 -0.0365708 0.01908 0.0244523 -0.0336525 0.0186099 0.0287835 -0.0290999 0.017716 
0.0282184 -0.034996 0.0188172 0.0209181 -0.0355812 0.0189929 0.0312751 -0.0323529 0.0186604 
-0.037856 -0.0243272 0.0190779 -0.0354715 -0.0276837 0.017318 -0.0314956 -0.0269332 0.0179676 
-0.034111 -0.0238521 0.0176438 -0.0284775 -0.0233914 0.01733 -0.0275045 -0.0273134 0.017807 
-0.0246439 -0.0245086 0.0177633 -0.0214154 -0.0221334 0.0181723 -0.0188498 -0.0251444 0.0174506 
-0.0150921 -0.0284744 0.0175507 -0.0153878 -0.0234723 0.0186373 -0.0120886 -0.0258018 0.0181017 
-0.0119011 -0.0213143 0.0181645 -0.00818797 -0.0269579 0.0181176 -0.00582172 -0.0237398 0.0184367 
-0.000568144 -0.0285021 0.0180214 0.00191092 -0.025499 0.0190886 0.00518271 -0.0277964 0.0186174 
0.0101146 -0.026291 0.0172219 0.00685665 -0.0241637 0.0182146 0.0114136 -0.0226104 0.0181454 
0.0164966 -0.0263079 0.0184128 0.0154604 -0.0223502 0.0185235 0.013087 -0.0284428 0.0188468 
0.0202445 -0.0279191 0.0186989 0.0323606 -0.0274108 0.0158357 0.0348609 -0.0228373 0.0172124 
0.0362371 -0.0266038 0.0179768 0.0303991 -0.0232547 0.0184995 0.0395923 -0.0213373 0.0181288 
-0.0426512 -0.0140909 0.0169551 -0.0408127 -0.0187055 0.0186777 -0.0378053 -0.013914 0.018572 
-0.0352046 -0.0171451 0.0175634 -0.0320839 -0.0202847 0.0178685 -0.0319762 -0.0146952 0.0174279 
-0.0249876 -0.0176881 0.0171318 -0.0278977 -0.0141852 0.0173824 -0.0285822 -0.0183404 0.0187986 
-0.0201238 -0.0145876 0.0180105 -0.0195757 -0.0185869 0.0179454 -0.0162153 -0.0155028 0.0174695 
-0.0156071 -0.0194809 0.0180654 -0.012264 -0.0171405 0.0179952 -0.00798545 -0.0203672 0.0184066 
-0.00968605 -0.0125699 0.0181409 -0.00839841 -0.0163707 0.0187098 -0.00358767 -0.0205011 0.0176153 
-0.0023664 -0.0133283 0.0181604 -3.91421e-05 -0.0166085 0.0190204 0.00589633 -0.0134796 0.0182495 
0.00990222 -0.0130485 0.0182609 0.00427541 -0.017528 0.0189624 0.0155692 -0.0178243 0.0182305 
0.0138049 -0.0141361 0.0184835 0.0177801 -0.0144763 0.0190372 0.023232 -0.0183906 0.0179933 
0.0216459 -0.0147192 0.0174426 0.0264441 -0.0160324 0.0190902 0.0325003 -0.0198017 0.0184834 
0.0363006 -0.0190453 0.0171937 0.0341127 -0.0161287 0.0189068 0.0413489 -0.0177138 0.0177046 
0.041715 -0.0136417 0.0184263 -0.0381604 -0.0101262 0.0167838 -0.0439229 -0.00935389 0.0174528 
-0.0409503 -0.00654493 0.0167908 -0.044684 -0.00484666 0.0166143 -0.0342414 -0.0112765 0.0173746 
-0.0302103 -0.0107173 0.0168608 -0.0334233 -0.00711375 0.0171041 -0.0262457 -0.00954637 0.0169475 
-0.0230246 -0.0118557 0.0175161 -0.0275703 -0.00575472 0.0169906 -0.0227513 -0.00583226 0.0180309 
-0.0194297 -0.00808787 0.0177902 -0.0171478 -0.0113724 0.0181887 -0.013461 -0.0097702 0.0181765 
-0.015844 -0.006182 0.0182876 -0.00933177 -0.00723891 0.0181254 -0.0064918 -0.0101518 0.0178329 
-0.0121714 -0.00439771 0.0181542 0.000289617 -0.00999141 0.0182021 -0.00080448 -0.00598368 0.0184775 
0.00350885 -0.00581758 0.0188459 0.00450123 -0.00972081 0.0186326 0.00865056 -0.00929135 0.0176043 
0.0109838 -0.00604684 0.0179044 0.00709713 -0.00423994 0.0177521 0.0164524 -0.0106938 0.0184527 
0.0149256 -0.00696406 0.0182685 0.0196712 -0.00558641 0.0188001 0.0214472 -0.00930427 0.0184146 
0.0244827 -0.006665 0.0189263 0.0362013 -0.00857874 0.0190549 0.0366943 -0.00459176 0.0190849 
0.0400676 -0.00674433 0.0184995 -0.0398098 -0.00245312 0.0173564 -0.0426765 0.0010581 0.0145844 
-0.0385336 0.00232671 0.0178881 -0.0447587 -0.00114811 0.018861 -0.0345991 -0.00305946 0.0164292 
-0.0309349 -0.0031724 0.0183123 -0.0310515 0.00209614 0.0160706 -0.02648 -0.00199703 0.0178271 
-0.0224869 -0.00164774 0.0180353 -0.0221845 0.00295403 0.018241 -0.0261542 0.00326873 0.0177346 
-0.0190639 -0.00379613 0.0182657 -0.0187537 0.000185777 0.0180358 -0.0154121 -0.00205037 0.0180199 
-0.0148729 0.0019457 0.0181527 -0.0115341 -0.000359696 0.0180415 -0.00767737 -0.00354291 0.0183357 
-0.00783719 0.00126856 0.0181236 -0.0108824 0.00382147 0.0188823 -0.00362683 -0.00311872 0.0183158 
-0.00348515 0.00275459 0.0184519 0.00136887 -0.00239661 0.0187631 0.00533273 -0.000712178 0.0186272 
0.0105873 -0.000402788 0.0182858 0.00758435 0.0029207 0.0186941 0.0117232 0.00354525 0.0186589 
0.014607 0.000590771 0.0188704 0.0176363 -0.00207691 0.0189911 0.0227078 -0.0029813 0.0185898 
0.0251878 0.000392857 0.0186178 0.036332 9.40794e-05 0.0185978 0.0297167 -0.000751373 0.0188957 
0.0447869 -0.00303386 0.0188725 0.0409907 -0.00109068 0.0189615 0.0417996 0.00381084 0.0190464 
-0.0438079 0.0101978 0.0166634 -0.0395078 0.00705177 0.0177182 -0.0444421 0.00427557 0.0184737 
-0.0353939 0.00640912 0.0157537 -0.0308845 0.00644544 0.0171028 -0.0326714 0.0105473 0.0165604 
-0.0367118 0.0111215 0.0187022 -0.0285276 0.0100016 0.0180871 -0.0248364 0.00750338 0.0171514 
-0.0208121 0.00718999 0.0171491 -0.0249513 0.0118671 0.0169862 -0.0209407 0.0117334 0.0177563 
-0.0181526 0.00420706 0.0175282 -0.0174827 0.00964521 0.0174901 -0.014497 0.00590403 0.017538 
-0.0135726 0.00991706 0.0184082 -0.00979677 0.00779308 0.0182089 -0.00964766 0.0118852 0.0185466 
-0.00224583 0.0101561 0.0189588 0.0047729 0.012143 0.0184075 0.0263204 0.00551411 0.0189091 
0.0274746 0.0104185 0.0190615 0.036637 0.00411664 0.0188454 0.0444395 0.00682252 0.0188587 
-0.0400762 0.0180253 0.015935 -0.0424317 0.0145378 0.0166341 -0.0384623 0.0158047 0.0188763 
-0.0345605 0.014735 0.0167827 -0.0354973 0.0190852 0.0177961 -0.030353 0.0146775 0.0167222 
-0.0281283 0.0205553 0.0170146 -0.0250436 0.0172623 0.0181398 -0.0208742 0.0160952 0.0176353 
-0.0169179 0.0151322 0.0175624 -0.0127006 0.0144562 0.0179806 -0.0125022 0.0186085 0.0186004 
-0.00916973 0.0163148 0.0184493 -0.00554273 0.0180277 0.0181659 -0.00878237 0.0203513 0.0185589 
-0.00576002 0.0130041 0.0187164 0.00412342 0.0166318 0.0183337 0.000472037 0.0183851 0.0187714 
0.00100656 0.0136303 0.0187053 0.0118906 0.015023 0.0186569 0.00781329 0.0150206 0.0188917 
0.0157329 0.0129533 0.0182739 0.017674 0.0164262 0.0188375 0.0131176 0.0188981 0.0190676 
0.0209271 0.0140807 0.0189595 0.0246216 0.0156255 0.0189653 0.0284918 0.0144242 0.0190142 
0.0272773 0.0186158 0.0190365 0.038216 0.0153054 0.0190443 0.0378882 0.0194092 0.0190691 
-0.0391164 0.0221058 0.0158217 -0.0341747 0.0231958 0.0175725 -0.0297044 0.024826 0.0169412 
-0.0330683 0.0270359 0.0172879 -0.0235169 0.0263068 0.0164269 -0.0216732 0.0207275 0.0164351 
-0.0182906 0.0235594 0.017779 -0.0141911 0.0230782 0.0178547 -0.00787376 0.0271123 0.0186936 
-0.00383182 0.0280354 0.0178219 -0.00181484 0.0237426 0.01829 0.00215607 0.0222307 0.0180158 
0.0118882 0.0258372 0.0186175 0.00787099 0.028627 0.0185456 0.00479509 0.0255133 0.018711 
0.0186117 0.0213512 0.0182951 0.014545 0.0227345 0.0186074 0.0163185 0.0288066 0.0185508 
0.0183447 0.0253531 0.0187668 0.0234459 0.0244754 0.0189242 0.0329955 0.0256354 0.0190577 
0.0320843 0.0215951 0.0190466 0.0371885 0.0252425 0.0188232 -0.0320243 0.031101 0.0184239 
-0.0274316 0.0355974 0.0157441 -0.0278089 0.0310082 0.0183627 -0.0236612 0.0333795 0.0179162 
-0.0201381 0.035272 0.0184606 -0.0157163 0.0349018 0.0188139 -0.0200934 0.0307357 0.0186335 
-0.00794532 0.0348306 0.01879 0.00395644 0.0296299 0.0187476 0.000287863 0.0329185 0.0187466 
0.0202992 0.0289543 0.0189259 0.030867 0.0326068 0.0188569 -0.0211708 0.0395758 0.0182255 
-0.0251127 0.0371011 0.0188212 -0.0172361 0.0388013 0.0184151 -0.0123527 0.038221 0.0189445 
-0.0150045 0.0421882 0.0188571 -0.00771428 0.0397426 0.0189295 -0.00264388 0.0448769 0.0183978 
0.00162877 0.0446435 0.018505 0.00121481 0.0398718 0.0186223 0.00639965 0.037149 0.0185938 
0.0121572 0.0429021 0.0185561 0.0183282 0.0395843 0.0186278 0.025498 0.0370713 0.0185023 
-0.0225095 -0.0389258 0.0233243 -0.0207003 -0.0399043 0.0267595 -0.0246424 -0.0376001 0.0201627 
-0.0198954 -0.0401854 0.0205345 -0.0154595 -0.0419841 0.0210036 -0.0180818 -0.0411407 0.0239826 
-0.0148632 -0.0382547 0.0231138 -0.014852 -0.0423611 0.026063 -0.0170185 -0.0383355 0.0266379 
-0.0188104 -0.0372933 0.0231515 -0.0121198 -0.0432927 0.0230602 -0.0117266 -0.0398056 0.0210385 
-0.00946332 -0.0439715 0.0200936 -0.0112135 -0.0404144 0.025802 -0.00612064 -0.0445578 0.0222967 
-0.00807916 -0.0409521 0.0223326 -0.00486809 -0.0384733 0.0224324 -0.00513879 -0.041584 0.0250034 
-0.00886279 -0.0440992 0.0253836 -0.00771374 -0.0380084 0.0254114 -0.0038339 -0.0381317 0.0271038 
-0.00318052 -0.0448211 0.0195838 0.000470858 -0.0388035 0.0206394 0.00380662 -0.0448036 0.0238031 
0.000309313 -0.0449951 0.021659 -0.00240863 -0.0416311 0.0220514 0.00119219 -0.0417365 0.02385 
-0.00280933 -0.0448335 0.0245653 0.000777886 -0.0449768 0.0264292 0.00171929 -0.0384013 0.0260064 
-0.00154415 -0.0415372 0.0267665 0.00410642 -0.0393218 0.0223181 -0.00133793 -0.0370836 0.02379 
[...]
POINT_DATA 6000
FIELD FieldData 7
id 1 6000 int
5932 3325 5662 4744 3326 932 5085 3974 1540 
5514 3152 5949 4326 5610 3633 5350 2313 709 
5739 143 313 3039 5318 2878 1659 4703 2014 
4000 3335 4829 5481 4782 2508 5710 3069 5944 
1999 2226 3703 3795 5561 2416 2586 4371 4649 
4074 679 3702 5229 4088 2984 2536 5545 5005 
18 2609 34 2638 6010 5730 3553 5325 2886 
4743 1601 1363 6016 4238 5166 5203 2159 3873 
1240 1449 1445 4249 5402 1371 3416 1741 5106 
3961 5303 4570 2020 1088 4439 5728 1939 3120 
3075 3324 3102 4935 2222 5813 5423 3350 6064 
3081 4412 5740 4357 1293 3948 5486 2990 292 
500 2059 638 63 3098 502 5298 2094 935 
402 5846 2339 660 1630 396 2810 5962 5586 
426 5322 3040 1347 1767 4359 3753 1236 1397 
1721 4610 3726 2136 2423 2113 1419 2118 2863 
234 107 1060 1307 88 2452 468 30 2867 
840 1108 274 758 1180 1584 1440 582 1129 
408 1046 1637 576 1885 4382 2768 4867 2331 
5890 1687 4883 1859 1606 2510 2326 1311 1269 
2748 2022 1039 427 916 2385 1628 906 441 
2366 1177 1424 2778 1490 1305 5050 3677 5524 
2974 1757 2447 3110 1768 3353 893 3201 5549 
1426 1944 887 1421 2987 1037 236 1164 1304 
590 572 853 399 258 2400 5815 3900 1961 
5495 175 3369 2264 3599 2687 4152 549 4293 
1648 3087 3600 2383 5855 2120 2256 687 993 
3665 2064 5742 1136 4592 2111 60 2699 4603 
5786 3661 4270 146 1614 3594 3089 4965 1805 
4307 4791 4933 3162 5984 4526 3322 4635 4748 
2797 3189 4158 412 357 3566 4682 5639 5943 
5227 1128 5904 5081 4315 4775 5724 5827 2569 
2522 3568 4986 4984 3737 4134 6014 3306 5051 
4534 5672 2386 3338 3559 4116 4586 4578 3736 
3986 5152 5607 6035 5792 3506 3148 6013 1773 
2160 5527 5801 5528 5668 1692 1640 2554 5145 
4825 966 4662 1558 5415 2981 5420 3521 4388 
5052 1152 5573 3421 4456 5363 3313 6059 3212 
5875 5346 6027 5093 4206 3387 5156 2625 3032 
4106 3216 4928 5957 4312 5565 302 5328 5347 
3390 4896 6023 3054 3714 1874 5592 3112 5841 
4322 5385 3820 5410 3864 4183 2742 2137 2864 
4422 5340 5016 5003 3236 1484 4090 5618 4031 
2970 1954 5452 3217 119 4437 2413 4347 3144 
1030 4624 2300 2206 3208 5684 2513 4853 2418 
2122 5217 2677 1903 4128 1546 4026 3984 525 
4006 3 6037 1962 3558 710 4060 4362 5929 
5856 2623 374 5701 5794 3833 4939 6043 5529 
5097 3587 2066 5848 4297 5584 2784 2261 361 
4123 5605 1154 5241 4446 5244 2939 1565 1771 
2037 2581 2268 5744 1777 5442 4790 1007 5741 
4836 4104 2178 1256 5526 4399 3706 5391 3319 
3970 4296 3018 131 4502 3515 4380 4561 744 
4567 1690 3881 3799 3507 4581 1937 1691 1376 
850 1078 117 4569 1277 1846 537 4600 4777 
3534 574 3471 49 1715 278 1093 268 3923 
38 531 4087 5194 4202 988 6045 4405 5557 
774 5304 5977 3006 985 747 3576 3731 2626 
5281 5665 2358 5014 654 3549 2148 4465 1891 
4737 1439 4042 4195 2422 5189 3991 4821 3373 
350 1650 4136 3801 1774 403 5956 4565 4805 
4451 1323 4127 5222 3994 3345 4880 2316 3013 
4674 5024 1087 5138 1737 4424 5364 4013 855 
2453 4240 5588 4212 5891 4363 3954 1098 2430 
5373 4309 2649 2666 3022 2338 421 2327 358 
976 252 1261 2432 2477 2490 869 1074 3968 
48 62 499 1523 1401 1456 2292 32 842 
552 5265 529 870 3008 71 316 66 1706 
3453 2850 720 4284 5451 4553 364 435 2775 
4080 5224 5500 1732 1013 3933 178 522 247 
1189 1354 81 2310 257 5348 1930 1372 1600 
2843 3375 3957 2612 5499 3414 1955 1607 1539 
5680 5478 470 2603 1905 609 1352 3479 2905 
2998 2982 4350 3260 3709 2251 2337 3359 2922 
3777 3362 1636 2227 1563 2129 2013 2732 2505 
2822 2553 2229 796 3185 4849 5061 2860 2883 
3588 3305 2363 3184 1722 1934 3544 2512 2387 
1790 1505 474 608 1872 1782 2478 3066 1945 
466 397 330 622 740 678 1072 984 517 
165 1011 171 550 1458 857 1462 789 822 
640 214 2329 377 858 1171 508 444 2109 
694 440 301 432 616 565 1472 1512 173 
864 1362 383 209 664 341 1576 1730 1045 
575 1446 1228 639 3220 2754 208 26 1063 
1886 2897 997 4478 78 2517 3459 2114 2420 
3136 2130 3323 3758 2999 2842 1698 4139 2392 
44 3161 2379 3071 2650 2739 5393 2257 1612 
3494 3388 2968 4924 1845 181 4616 484 3641 
3366 3210 2744 3153 4608 3542 3583 691 2263 
2636 3340 2663 2356 2099 3246 1953 3410 1770 
762 2104 1959 2105 353 2781 3020 1052 885 
45 1534 2015 952 162 1218 1223 2591 1525 
1531 1420 153 1246 1709 1850 1016 311 859 
1267 2095 1645 133 164 420 560 100 266 
390 513 795 1913 1272 61 1749 2879 851 
3595 381 211 2915 245 1792 1195 200 1168 
3245 2704 459 2844 2629 2555 2659 1374 267 
2961 1325 4191 2857 496 2081 1949 3681 2861 
4872 658 5090 4668 4032 4789 4837 3010 72 
5182 4893 3798 3469 2290 4722 3101 2560 4159 
2780 2875 4078 5040 4436 4188 4170 4276 3579 
4341 2965 3910 3511 3279 3837 3434 3165 3546 
3915 6002 3501 4492 4613 2052 3093 2071 2944 
3262 4655 4351 3292 1803 1018 647 3399 2328 
1570 3815 1667 1126 3540 2691 4126 3406 680 
4184 1831 2686 1642 3357 5066 1300 3068 1887 
1378 1215 132 663 3662 656 2583 1932 2345 
2519 418 456 524 1514 1034 2325 766 1320 
4245 940 2161 2403 1069 2709 2077 3396 2523 
127 3028 5084 2515 3408 5583 1907 4391 160 
4392 3747 3166 3793 4909 4810 4678 4114 3855 
4876 3432 3466 3988 4948 2731 3585 3530 4306 
5007 4450 3017 4138 4037 2242 2097 4555 3393 
583 1611 4352 2302 3433 2076 5091 1877 3934 
2057 6046 3775 2902 483 55 5780 4261 5496 
2760 4118 2900 2311 3249 4453 5575 5185 2727 
3041 5758 4701 5543 3431 900 2117 863 2729 
2683 2852 3868 1791 194 1816 895 1679 3463 
1689 31 1399 3963 2283 387 4513 4690 961 
1211 2289 6006 5982 3226 1627 4591 3082 611 
4573 3615 2151 2869 4470 4258 2514 636 5781 
2940 2950 4667 3967 417 2737 5200 3552 5422 
4670 2044 3679 1545 5264 3234 2835 5847 386 
3788 4273 4146 5357 3897 5725 4213 5351 2979 
4354 2266 1713 3005 5973 3444 4839 6052 5104 
4334 2789 2642 2814 1528 2249 2462 92 1673 
3514 2103 903 6063 478 1225 3023 2895 2352 
2593 4264 2454 2258 3367 2708 1851 540 3107 
367 2799 2116 5419 3998 1807 4176 3919 2962 
5184 1520 910 546 1047 5367 5896 4381 3186 
1308 3908 3327 3545 229 1017 2549 1569 5447 
3450 4432 5550 4277 4317 3898 5119 3427 3333 
2676 3383 4077 5234 5248 6000 2880 4596 5139 
1024 3850 242 3288 4164 3512 3719 5331 4108 
5819 2655 5342 3411 5868 3805 5897 4983 5615 
3762 4034 3517 5032 1146 4474 4019 637 4360 
1121 1333 4411 4373 5732 3616 3922 5260 5302 
5822 4501 5828 5768 5685 5416 1680 1396 2714 
2645 1020 5759 4687 4826 5359 4471 5458 2595 
4809 4361 3575 5556 1110 4869 5482 5972 3713 
3814 2866 3628 5626 5063 642 3332 3691 2307 
2786 4595 5874 3844 68 5246 5681 2360 1006 
1972 5497 3905 5755 3882 3825 4447 20 3382 
4086 5297 3586 4209 5663 4321 2427 5706 3285 
3725 4761 5808 4752 4153 6040 5186 6029 2008 
4969 4140 3847 3699 4749 4919 2344 1417 4723 
5167 4406 6020 3281 2702 2890 6004 5013 3785 
5215 1183 3224 4766 4366 3603 5207 1042 2287 
3320 5767 5072 2590 3194 5673 5867 3880 2390 
2381 4862 2715 2792 3547 5777 878 730 5579 
3560 2168 3485 1410 3237 4929 3786 3839 4073 
4124 429 3449 5124 471 3455 4590 3668 2216 
3730 5236 3458 3827 3902 4768 4365 3710 5691 
4484 473 3949 4272 4942 3132 3892 4174 6047 
3531 6032 5483 4719 5811 4427 5536 4353 4509 
4151 4762 745 2078 3539 5255 3021 5127 4340 
6008 5461 2433 2195 3783 5903 5382 4721 3447 
3803 4803 195 1977 4977 5839 5564 3072 4462 
3965 2874 4858 5708 4563 5395 3955 5953 4716 
4966 226 1489 2079 2285 3717 1506 5686 1940 
1656 2763 4454 3255 159 5365 5762 2199 4010 
5770 767 1031 1990 1588 1053 452 960 1922 
2019 135 3938 4718 270 2101 969 3363 902 
1890 1294 139 2920 4982 281 3418 632 2698 
2346 1668 2444 1181 5645 5059 5852 4267 4434 
4892 5504 5695 3269 6053 1123 1837 4689 3692 
5718 3690 5290 3230 4888 1145 2135 5134 5915 
4954 5696 5055 4308 2301 4433 5711 2524 3378 
5448 1392 2434 2988 5659 5440 3454 1062 4461 
5390 1199 3997 788 1847 5563 3385 5489 6065 
3461 5908 5192 3874 5209 1646 4147 2840 113 
3425 6048 3942 5555 4627 3606 2767 4695 5951 
504 4988 2943 5294 1764 5634 336 1345 2149 
1574 1827 2237 2173 2410 657 1115 3229 4046 
930 2491 1776 1336 2036 649 948 1810 2000 
1947 1021 1163 1254 294 1193 244 684 570 
2894 1197 979 2537 519 918 3791 251 528 
1619 4602 810 235 4605 1883 3492 2460 123 
843 738 1914 606 3913 5181 917 706 987 
3311 216 2746 5936 938 629 4511 5238 4741 
392 282 628 4376 3872 3932 241 4095 1707 
682 1331 401 1631 3781 4320 5700 5864 5278 
1982 4828 1437 3019 2236 2688 3478 2431 2284 
1871 4165 1697 1686 2107 1242 3632 4021 3776 
5650 4904 1820 2024 1935 2496 4879 3026 5886 
2362 3435 2613 4228 1493 1736 485 4486 2758 
4759 4002 3128 4254 2738 3251 2881 3939 3446 
2870 2469 4125 1710 2428 2018 707 2620 2606 
3065 2340 3473 1 773 75 1044 297 498 
2062 1694 17 2977 329 170 434 145 1141 
507 221 1022 1139 1071 1436 812 98 118 
217 1066 2 748 188 1369 368 477 659 
1339 275 91 1232 951 867 1471 1000 983 
1221 338 1828 1632 886 641 726 1027 1711 
2654 2793 2896 881 904 3045 3682 1568 2959 
4452 1043 1799 2156 1751 3103 2202 1655 2480 
2503 4205 3296 1249 986 4448 3712 3297 2958 
718 5995 2365 4727 1901 3548 5147 2934 2369 
2231 4784 5445 994 4155 4940 3685 3659 3745 
4559 3652 4507 2481 3636 4528 4691 1723 3806 
1124 2807 3177 1450 963 2924 800 3209 3173 
1012 1843 2389 2032 2577 2459 896 701 1095 
166 865 3094 1400 2190 516 136 2167 1243 
849 538 380 366 3581 1556 1070 306 490 
890 129 2631 1817 385 559 305 1182 551 
1969 2600 1010 3851 2911 2182 23 1005 2511 
797 1526 2635 5135 2633 1855 1958 5566 4711 
874 4685 3649 3570 3317 5110 5006 3064 4842 
4857 3243 4298 4745 3238 4597 5968 4398 2753 
4342 3391 3518 4403 3481 4628 3235 5070 3626 
2719 4512 4780 5641 5315 4418 4946 4999 3151 
4854 2865 3667 1247 4755 2993 3240 5386 3380 
4717 2006 2821 3037 3398 1603 4549 2110 3895 
4217 4566 2610 518 4798 2545 1653 4584 3400 
4508 3334 2608 3502 3304 2398 67 4169 5082 
3675 4098 2995 676 1923 2501 1798 1864 1188 
1991 1724 2235 2262 927 620 298 4345 3551 
3780 4057 2499 2475 40 2705 5664 2955 3126 
674 1750 1621 1317 2588 3859 2543 2324 2393 
3993 5541 4035 3503 446 1306 4269 4517 5560 
5300 4614 4458 5577 4370 5487 5251 4680 2579 
3328 4714 4679 4630 4851 4807 4519 4658 3680 
5738 3811 5598 923 5963 4325 4891 5637 3678 
4844 817 5383 3721 3014 5945 1049 4485 5569 
5173 5930 5745 2016 5212 5130 5969 5937 950 
4190 5485 2889 2868 4198 2976 5881 1473 2341 
2299 2751 3843 254 2197 5621 6021 86 1763 
601 1028 3038 2589 3405 2825 299 4199 3848 
5042 2788 15 1818 4926 6025 828 4348 5404 
189 3409 3368 3364 4482 5726 970 5176 1762 
3420 4197 4881 3980 4599 5863 5162 5503 5465 
5075 4815 2618 4781 4885 4632 5201 5117 5151 
4998 1856 2295 6069 6044 3135 3875 5021 1795 
1552 4473 4529 1857 5620 5657 5276 2541 2084 
4728 3612 5193 3460 5148 4056 3809 5538 3918 
5877 4937 4629 3290 5987 4082 4203 5916 4861 
4300 4651 13 819 5743 5287 5180 5158 5731 
5095 288 1535 5417 2884 5430 3888 5272 4850 
4180 5140 5834 5604 3623 4865 413 5463 5009 
5150 5787 5174 4671 3950 5989 5542 4699 5934 
3536 5074 4796 4886 5428 5249 2276 1609 4677 
3694 3884 3562 4548 4160 5986 5392 5113 5473 
5079 5252 5843 4349 3643 4489 3656 4813 2723 
2193 4641 5921 2907 5757 4806 3266 5994 4617 
4899 4639 2794 5835 5491 5374 5126 4487 4978 
4995 1662 5296 1906 3889 2726 4705 4221 5460 
3133 4256 4908 4480 5821 5358 5804 5202 5073 
4103 6017 4582 4562 3180 4464 3947 5213 5045 
2520 3849 5653 4022 757 3138 2601 2693 1521 
4647 2158 5436 1351 3523 967 4756 753 2349 
4030 3351 1882 5036 4223 443 1699 2399 249 
1761 1594 5511 4778 1815 5599 5490 3080 3211 
2035 3280 5596 5723 5534 3223 5760 4017 3124 
4466 4400 4970 4303 6007 4683 5515 3869 3308 
5314 3671 5409 3981 2787 5026 5421 5424 5539 
5823 5048 4500 4541 3883 3415 5552 4875 4295 
5316 4409 3819 5914 4973 5377 2472 3412 5366 
5307 2208 5432 2929 5399 4811 5484 5993 5356 
1586 1507 2566 2162 4410 5219 741 1701 2183 
1279 2102 2643 3079 3983 5667 5462 5118 1759 
3751 5306 4319 1950 3301 4130 3784 174 3867 
5 542 3856 3941 3329 2451 3935 4554 2919 
2834 2846 2401 5292 3733 2380 4709 3347 4740 
2809 2749 5142 5859 2187 4133 3283 4304 5372 
5282 4544 4122 3653 4746 3129 6058 4232 2992 
4943 4700 2853 4131 2639 2270 5441 5712 4229 
3804 6001 5902 5243 5849 5851 3250 5736 4364 
5959 137 2131 4099 2969 3361 3009 4271 5146 
5964 4187 5873 4846 3927 3592 3417 5692 1411 
1120 4059 2443 2921 3426 2128 5293 872 4192 
1681 2278 199 5870 3771 5702 813 4189 4877 
2479 1926 3953 2134 978 1733 2684 1647 1625 
101 2192 1479 2353 2891 3509 4331 1204 1245 
2721 1787 2457 1998 2811 2049 3451 3670 700 
1695 3723 3834 5043 3769 5406 652 3861 2617 
2347 791 1065 3741 3738 5105 2001 3655 126 
2112 4033 4556 3030 5913 4179 4697 4747 5833 
4638 512 4956 5223 5719 5910 5170 4358 5531 
5775 4220 5705 3403 3295 5948 3172 5188 3846 
1965 4726 4818 5782 3381 3807 2711 3672 2728 
4585 3219 5979 4302 5707 5336 2466 2043 571 
3832 1474 3159 2632 1035 3774 2042 4636 5327 
1825 5912 2813 3543 5250 1492 971 315 1924 
1160 1360 2556 42 3607 3085 2877 2700 2336 
2277 2233 2538 543 711 481 2716 1383 2578 
5876 493 3724 172 1366 1393 2435 2038 965 
128 7 1652 339 3137 69 2378 2681 1735 
265 1135 248 3059 3298 626 2542 371 35 
455 614 4910 520 5299 876 5716 5426 5261 
2585 781 558 1184 1015 3443 2550 5935 1633 
1853 2355 4389 4339 3342 2245 3611 2912 3057 
3084 2770 39 2054 1503 6060 102 3852 3012 
723 4546 2184 2376 2450 5068 2498 6066 321 
1900 1813 4226 2026 1755 1361 5398 2954 594 
5332 2621 3610 317 4305 1938 1760 1084 2297 
1482 1746 2836 4005 2611 4374 1716 2429 2145 
3048 2790 2200 3893 1239 2127 2335 3231 2228 
2181 1551 2761 1448 3119 646 56 957 752 
1172 883 1598 1641 1288 2023 2050 1258 926 
1562 713 1191 479 1340 825 1334 307 1491 
673 1684 1542 177 184 365 942 354 410 
964 352 308 238 725 210 1214 548 545 
532 1257 1259 1829 4280 737 400 1910 1284 
76 2960 1192 1466 2217 3192 1670 2488 3529 
3413 1056 2436 5537 4932 1909 2051 3035 2910 
4239 4913 2640 77 272 4819 884 2343 2926 
1983 579 108 5918 4259 4208 93 2005 2150 
3857 4053 3617 4091 2493 3635 3470 3309 3750 
3254 2696 3838 1703 1876 3257 763 3999 84 
1524 4533 4233 567 1605 482 347 2391 273 
1395 3885 2273 721 43 1385 310 514 250 
715 2265 96 3489 2306 2527 328 1527 348 
635 388 1560 196 319 1167 2404 27 1103 
1118 279 122 937 1398 3356 1186 431 2776 
1738 149 4227 530 4606 1693 4459 3436 433 
1536 742 3321 5991 4020 4816 2692 5633 2975 
4901 3822 5802 5027 2568 4944 4923 2935 5362 
4081 5965 4055 2964 941 1275 6024 3247 4515 
3282 1079 1312 6050 4049 1830 4330 5630 5769 
3890 3193 3812 2724 4754 95 1147 2906 318 
4120 3707 1422 4793 6034 4698 2756 5283 4200 
5576 3646 2798 2073 3442 2144 3076 4693 2467 
5721 1941 4135 2535 3779 1538 4738 924 4268 
5558 5812 2463 811 826 121 3810 2622 4394 
5231 4664 3036 5631 4100 3491 862 373 1564 
3647 5454 3058 3625 1077 4620 3590 5103 1970 
2665 5226 5218 5259 3996 5155 4993 3046 5572 
5582 5764 343 5678 2615 4622 5830 5323 4843 
4193 2722 5242 4931 5488 3824 5788 3541 4497 
5612 6018 5722 5022 5729 4536 4289 4004 4338 
5756 3962 2829 794 4375 2552 1202 3627 2816 
1617 1661 3276 2314 1554 2795 4368 3995 1848 
544 5901 157 3693 3004 2641 2570 4739 5321 
5195 5253 4379 4673 4483 3979 4915 4583 4503 
3164 3584 5094 4460 2777 5771 3876 4069 4115 
5919 5674 4953 5884 4157 3740 1956 4173 4335 
3052 5254 5381 5922 4972 3316 5616 5512 4990 
5257 4763 4234 5817 5284 4012 264 4675 5658 
1390 5083 4068 3906 4934 5703 5850 3015 6038 
4702 5878 4531 5652 2938 5011 5551 4725 4694 
5403 5380 4692 4244 5806 4817 4015 2146 3524 
4441 3000 2211 5998 5204 1731 1268 1966 4753 
562 4949 5221 631 4676 4327 5793 4799 3924 
2375 3140 3958 4838 2047 3060 5648 4275 3007 
2092 3078 5137 5961 5698 3582 5133 5123 5585 
3711 4601 5942 3352 4757 4141 4442 5625 2367 
5239 4287 4479 2949 5438 4163 3990 3096 4247 
4075 5161 5892 4522 2804 4431 1717 5285 5267 
4477 4868 5023 4615 4870 5214 3664 5501 5574 
4619 5749 5831 5649 4730 5143 2584 5776 5746 
5394 5171 5879 3145 2733 4071 1291 5444 4414 
5694 2674 5747 4788 746 3474 4054 4423 3925 
3865 3651 2402 4959 3759 4175 5590 4011 3952 
3063 5225 1504 5790 5999 5640 5773 5860 5832 
2507 2942 4579 4736 5334 2223 5312 4402 3291 
5931 5054 6030 4654 6036 5622 2041 4224 5100 
5279 943 3464 5178 2782 1743 4918 3242 3104 
4776 2412 1230 2823 457 1119 621 1660 2470 
1059 4808 2009 3840 2012 1979 2317 2791 4050 
449 5361 3131 3790 3441 2170 5237 414 3331 
4397 1111 2308 3483 5289 5116 3267 4822 3836 
880 2933 4532 335 5157 5714 2085 4645 237 
487 5368 3773 3355 4440 3475 3374 3930 3604 
2468 3569 1365 1933 5885 5927 4871 1865 4255 
1557 3134 1149 3754 5898 4575 5789 1700 1001 
5699 3259 4855 300 1453 1435 1826 3878 778 
2504 992 5611 5449 2937 4007 4827 3336 4047 
1104 5352 3465 1929 1963 5883 929 5689 2417 
5837 3684 2918 1349 4864 2185 304 5854 1639 
2669 2414 4611 1416 5857 754 5258 4547 6009 
2701 3042 6011 4516 114 690 497 1778 5333 
3346 3258 3794 4029 5676 2652 4248 5938 3354 
1725 4889 4048 5388 1459 4704 4612 5853 1179 
944 1705 1281 5795 4510 4706 1580 1917 2594 
3130 5177 3300 4551 1380 5034 5115 1143 3386 
5256 2485 3227 5523 4222 5928 1282 2106 3122 
3424 4831 3141 5389 5909 3561 802 1775 4985 
2309 1808 2648 3578 973 4646 5205 1664 3456 
4800 4499 2072 2945 3920 79 2872 2408 5494 
3270 4733 4729 4524 5845 6003 1919 2198 2011 
1946 1296 998 5450 2598 2967 1948 1785 1801 
4241 2644 3602 1812 977 5245 4214 5459 2293 
3975 3944 5154 1370 3001 2662 3154 4052 3056 
835 4143 5763 1806 4025 4463 4963 1583 1367 
5521 4111 2827 2772 4734 1498 2303 5646 1971 
4469 5163 3841 3397 3315 2740 4712 3639 4598 
5384 708 5266 4156 5498 3982 303 2930 2785 
5220 3826 4604 4257 4493 5128 4457 4101 3828 
2506 4659 1992 4367 2587 5206 4003 777 4917 
1346 5295 5015 3596 2384 4219 5872 5313 2219 
1610 3203 5080 4372 4684 4609 1217 5077 736 
2855 5990 3720 3520 1739 2971 868 5502 5153 
4132 2175 2712 2658 3239 2069 3195 696 1165 
6057 4927 5578 4770 1544 4804 5655 1869 1911 
5078 2529 2647 1658 2248 3100 589 1055 2856 
14 1004 2213 584 3011 152 804 755 204 
1318 848 6012 2916 1861 670 411 314 1765 
73 223 732 515 852 3688 85 2580 28 
29 3160 2602 2147 324 1802 1832 437 1651 
1403 612 1867 2108 2531 2800 309 3580 1550 
2703 2280 2656 981 58 4243 1100 4792 2080 
1315 1708 2406 4014 3111 820 4023 2163 4274 
3452 5008 5838 3482 3445 1784 5976 2230 1702 
5088 158 1809 1878 2680 1849 182 5455 5602 
2667 464 3428 3272 3265 3139 1980 5546 2839 
1023 3598 1090 1356 1590 651 1273 1161 2983 
1786 1358 897 404 1559 671 451 262 393 
1002 2060 568 333 1219 1561 105 1465 472 
337 667 1038 602 47 801 619 1271 379 
286 325 666 734 1092 569 580 1819 1766 
198 124 4783 1438 1511 4094 19 2334 2888 
2646 3903 4252 5270 3389 2063 5121 1754 24 
2653 2817 4824 1415 5101 334 5190 4196 2209 
5411 4767 4751 3696 1377 4472 1461 1176 3972 
4841 407 3931 4538 5309 3143 2582 3631 1618 
1889 1624 1155 3813 5175 3462 5057 3157 3573 
2561 2446 4720 224 5923 4062 692 3761 2928 
769 1432 1329 1158 430 1266 3619 1099 587 
442 1727 2941 1643 1654 1916 764 2497 3457 
1216 130 231 461 1480 1287 3614 2142 1388 
681 1747 603 634 3099 729 370 1579 806 
688 2764 2220 2574 1487 4571 50 323 476 
3275 4390 1429 4204 2132 5600 3440 4314 4072 
4715 2530 5344 5952 4329 5753 5651 3171 1758 
1033 220 1753 1943 3467 3921 4404 604 3484 
1572 5020 5280 2675 1794 3377 1384 1644 4771 
4344 5617 4066 1310 1080 5636 2769 3831 3508 
593 87 1237 4396 1427 4316 1407 2766 2218 
5644 1234 21 4504 4129 1299 2828 4724 5099 
2947 2986 5096 599 2395 5911 521 2720 4119 
1162 3749 5785 3505 6055 2972 809 4194 4506 
2201 5981 5033 2820 362 5752 3985 4543 536 
5613 4623 5067 2841 5330 2927 5518 5906 2923 
4906 824 2885 6049 4681 1602 2333 1475 3330 
5807 2133 2876 4225 2563 4356 4856 5320 4773 
4760 1529 4413 3527 3448 4589 5002 4428 4523 
2837 3718 1127 5568 5709 1858 5679 4429 2685 
3207 1597 89 2985 3348 3977 4914 259 2421 
5988 5818 1682 816 2660 1076 5041 5697 5798 
3307 4661 4552 4772 2275 3657 4445 4652 5337 
3928 2845 5164 1054 5275 2029 1190 5974 1918 
3205 5092 3044 4950 3593 1496 232 4786 4040 
1264 5958 4845 6061 5301 4168 1309 1207 5967 
3031 2180 5933 5466 3940 5882 1008 1295 3871 
2165 5439 3870 2405 5467 4235 2007 5457 285 
5112 2762 3477 3956 3829 4833 2832 260 5470 
2956 4539 947 2599 36 5414 3500 3086 5638 
2624 2730 1303 243 5210 2305 5720 1116 2904 