# vtk DataFile Version 4.2
Generated by LIGGGHTS
ASCII
DATASET POLYDATA
POINTS 6000 float
-0.0272131 -0.0348314 0.00398971 -0.0340418 -0.0279895 0.00399084 -0.0203433 -0.0155569 0.00399781 
-0.0434221 -0.0118072 0.0039895 -0.0390132 -0.0073138 0.00401362 -0.0298549 -0.00769859 0.0039927 
-0.0383939 -0.00114862 0.0039909 -0.0294472 0.00951862 0.00400531 -0.0244771 -0.0377347 0.00406652 
-0.0216339 -0.0393742 0.00656589 -0.0239141 -0.0380735 0.00958643 -0.0188963 -0.0407569 0.00398939 
-0.0151 -0.0423251 0.00407433 -0.0143461 -0.0382652 0.00446707 -0.0177864 -0.0375565 0.00640192 
-0.0178053 -0.0413301 0.00779243 -0.0128142 -0.0430052 0.00729596 -0.0131696 -0.0394292 0.00905911 
-0.016689 -0.0379398 0.0102211 -0.0111021 -0.0405318 0.00398254 -0.00921523 -0.0440588 0.00403321 
-0.00660896 -0.0410326 0.00427405 -0.00828956 -0.0373761 0.00399242 -0.004725 -0.0446806 0.00434962 
-0.00960453 -0.0405865 0.00767354 -0.00748895 -0.0443504 0.00765423 -0.0043639 -0.0417896 0.00747772 
-0.00635981 -0.0382005 0.00741666 -0.00376615 -0.0382283 0.0042641 -0.00173744 -0.0416876 0.00416441 
0.000826972 -0.0448654 0.00423489 0.00234121 -0.0411253 0.00413121 0.0041963 -0.0375785 0.0047378 
-7.20821e-05 -0.0392407 0.00687972 -0.00162941 -0.044838 0.00751789 0.0028455 -0.0448517 0.00773837 
0.00930083 -0.043635 0.00407377 0.0111582 -0.0395987 0.00413643 0.00511655 -0.0441832 0.00423212 
0.00738817 -0.0401849 0.00539007 0.00456641 -0.0412668 0.00800112 0.0109945 -0.0436325 0.00806458 
0.0169914 -0.0416673 0.00399071 0.0133083 -0.0429566 0.00481237 0.0149411 -0.0382222 0.00437119 
0.0189248 -0.0379333 0.00412791 0.0186565 -0.0409277 0.00755478 0.0148708 -0.0421624 0.00896227 
0.0222585 -0.0390901 0.00604091 -0.0307129 -0.0329114 0.00399248 -0.0326639 -0.0306436 0.00663523 
-0.0300162 -0.0335317 0.00787312 -0.0284461 -0.0304274 0.00982097 -0.0325894 -0.0307899 0.0106253 
-0.0207329 -0.0363644 0.0039876 -0.0212135 -0.0314426 0.00399036 -0.026862 -0.0360788 0.00776063 
-0.0267037 -0.0317448 0.00647781 -0.023627 -0.0341615 0.00567644 -0.0243367 -0.0290523 0.00470743 
-0.0283512 -0.0349231 0.0112829 -0.0207695 -0.030424 0.00789351 -0.0236664 -0.0340205 0.00966245 
-0.020323 -0.0362533 0.00925364 -0.0245034 -0.0297866 0.00917449 -0.0159949 -0.0346625 0.00399667 
-0.0128213 -0.0322181 0.00399326 -0.0190335 -0.0337191 0.00644207 -0.0170071 -0.0307612 0.004151 
-0.0145373 -0.0356294 0.00775477 -0.0136938 -0.0317046 0.00784769 -0.0168711 -0.029291 0.00793251 
-0.01691 -0.0331365 0.00977206 -0.00898821 -0.0333937 0.00413434 -0.0098107 -0.0296114 0.00522182 
-0.00600764 -0.0306374 0.00450941 -0.00528025 -0.03458 0.00500451 -0.0107053 -0.0365444 0.0070702 
-0.00967015 -0.0322291 0.00836099 -0.00454812 -0.0308849 0.00839559 -0.00209183 -0.0319062 0.004761 
-0.00227715 -0.0359054 0.00728787 0.0015533 -0.0314939 0.00653661 0.00193905 -0.0354201 0.00726548 
-0.000978366 -0.0289159 0.00833013 0.00786552 -0.0352619 0.00459274 0.00881079 -0.0309682 0.0047724 
0.00496755 -0.0290671 0.0043193 0.00542741 -0.0325629 0.00634104 0.0119126 -0.0358127 0.00536985 
0.0107588 -0.032874 0.00783843 0.0125123 -0.0294586 0.00448915 0.0145447 -0.0328947 0.0040276 
0.018551 -0.0338084 0.00403812 0.0160705 -0.0345051 0.00747181 0.0196835 -0.0364992 0.00777388 
0.0203164 -0.0325448 0.0074609 0.0222876 -0.0352178 0.00494305 0.0266087 -0.0340608 0.0040353 
0.0216043 -0.0309637 0.00397391 0.026715 -0.0298626 0.00414195 0.0255251 -0.0369438 0.0068869 
0.0243933 -0.0327676 0.00820201 0.0336529 -0.0296497 0.00504768 0.0299558 -0.033511 0.0065182 
0.0301917 -0.0293511 0.00702564 -0.037856 -0.0242786 0.00844787 -0.0372195 -0.0250865 0.00410768 
-0.0290864 -0.0292286 0.00399617 -0.0330737 -0.0240001 0.00399776 -0.0310851 -0.026797 0.00646057 
-0.035385 -0.0210592 0.00542224 -0.0353821 -0.0277936 0.00773522 -0.0336779 -0.0240917 0.00795406 
-0.0302919 -0.0224423 0.00641923 -0.0319556 -0.0268327 0.0104475 -0.0352642 -0.0210668 0.0101313 
-0.0280659 -0.0252528 0.00410944 -0.02401 -0.0251114 0.00399846 -0.0260301 -0.0225501 0.0063784 
-0.0225281 -0.0204855 0.00479614 -0.0284221 -0.0246117 0.00949216 -0.0272427 -0.027672 0.00718068 
-0.0235777 -0.0261001 0.0078606 -0.0209426 -0.0226962 0.00812543 -0.0247837 -0.0230492 0.0101555 
-0.0201859 -0.0236938 0.00400867 -0.0200682 -0.0277193 0.00495462 -0.0166381 -0.0258716 0.00399803 
-0.0134231 -0.0282743 0.00399852 -0.0135373 -0.0231045 0.00421595 -0.0196901 -0.0265845 0.00881497 
-0.0171145 -0.022694 0.00638411 -0.0142131 -0.0260406 0.00726674 -0.0138393 -0.0221993 0.00863142 
-0.0106702 -0.0256878 0.00539643 -0.00668781 -0.0267524 0.00398696 -0.00374203 -0.0239959 0.00398847 
-0.0088501 -0.0222909 0.00413382 -0.0117919 -0.0284651 0.00937348 -0.00762308 -0.0282958 0.00842662 
-0.00707471 -0.0244977 0.00728109 -0.00322951 -0.0212065 0.00769308 -0.0107262 -0.0246188 0.00926645 
-0.00388558 -0.0261353 0.00910038 -0.00295168 -0.0278917 0.00499467 0.00105938 -0.0278814 0.00460724 
0.00316311 -0.0248635 0.00625983 -0.000787187 -0.0243461 0.00676625 0.00184186 -0.0209533 0.00796141 
0.00930419 -0.0268678 0.00465373 0.0112049 -0.0228955 0.0046989 0.00688675 -0.0235019 0.00561295 
0.00644175 -0.0276713 0.00780524 0.0122194 -0.0261533 0.0081454 0.00996268 -0.021899 0.00873576 
0.0140627 -0.0256367 0.00408446 0.0167679 -0.0217284 0.00496868 0.0180436 -0.0255061 0.00550246 
0.0199881 -0.0284414 0.00760936 0.0158289 -0.0281206 0.00756935 0.0207992 -0.0215149 0.00517838 
0.0220345 -0.0253211 0.00610618 0.0257547 -0.0239092 0.00666195 0.027022 -0.027412 0.00861251 
0.0334202 -0.0257461 0.0041576 0.0296544 -0.0256126 0.00550663 0.0293492 -0.022022 0.007843 
0.0332246 -0.0232841 0.00752027 0.0367678 -0.0254218 0.00634329 0.0393496 -0.0216635 0.00751252 
-0.0381742 -0.0174654 0.00398558 -0.0421153 -0.0156368 0.00401567 -0.0396979 -0.0211213 0.00459806 
-0.0409 -0.0174822 0.00734169 -0.0397637 -0.0208244 0.00919757 -0.0382621 -0.0139861 0.00843736 
-0.0426462 -0.0131734 0.00798342 -0.0358324 -0.0142655 0.00476643 -0.0317022 -0.019315 0.00398752 
-0.0320847 -0.0154643 0.00619784 -0.036967 -0.018061 0.00774933 -0.0320851 -0.019106 0.00795001 
-0.0293049 -0.0134125 0.00820623 -0.0345244 -0.0153449 0.00944347 -0.0274681 -0.0196056 0.00398828 
-0.0272668 -0.013845 0.00410617 -0.0242976 -0.0169187 0.00407345 -0.0233481 -0.0127022 0.00406769 
-0.0271755 -0.0167913 0.00684332 -0.0215939 -0.0173494 0.00734412 -0.0280661 -0.0201837 0.00891217 
-0.0241236 -0.0152438 0.00961482 -0.0147304 -0.0168253 0.00406813 -0.0116592 -0.0194052 0.00402213 
-0.0137199 -0.0128342 0.0040177 -0.0180947 -0.0191153 0.00401615 -0.0175499 -0.0156791 0.0068471 
-0.0199844 -0.0143589 0.00997469 -0.0147728 -0.0184058 0.00774959 -0.0128151 -0.014837 0.00746769 
-0.0159526 -0.0120692 0.00743598 -0.0105006 -0.0152646 0.00421806 -0.00777428 -0.0182514 0.00485616 
-0.00460713 -0.0160124 0.00397681 -0.00426985 -0.0200091 0.0040039 -0.0107865 -0.0183558 0.00777748 
-0.00731358 -0.0142994 0.00666765 -0.00739029 -0.0205903 0.00814748 -6.56507e-05 -0.0207116 0.00444823 
-0.00142722 -0.0135837 0.00443482 0.00261217 -0.0134016 0.00500757 -0.00183998 -0.0168776 0.00671033 
0.0021578 -0.0170871 0.0069256 0.00429806 -0.020166 0.00472677 0.00573499 -0.0160159 0.00541908 
0.00853102 -0.0198921 0.0046615 0.0109513 -0.0172618 0.00662162 0.00941351 -0.0135329 0.00714267 
0.0075034 -0.0184796 0.00826528 0.0178839 -0.0155742 0.0053903 0.0135525 -0.0142777 0.00596382 
0.0148435 -0.018147 0.00581337 0.0180122 -0.0185856 0.0086958 0.0196042 -0.0137493 0.00856469 
0.0254728 -0.0183315 0.00483539 0.021213 -0.0176677 0.00399373 0.0228069 -0.0148279 0.00641099 
0.0270245 -0.0142633 0.00604867 0.0257656 -0.0203553 0.00858568 0.0287047 -0.0175188 0.008015 
0.035584 -0.0149745 0.00596795 0.0313387 -0.0151245 0.00617725 0.0323635 -0.0191471 0.00792567 
0.036159 -0.019186 0.0064102 0.0401664 -0.0193676 0.00421311 0.0396331 -0.015667 0.00592732 
0.0427648 -0.0137961 0.00403533 0.0423718 -0.0150212 0.00909688 -0.0433723 -0.00617009 0.0040077 
-0.0394725 -0.0118077 0.0050998 -0.0440115 -0.00914367 0.00692399 -0.041042 -0.00647521 0.00742338 
-0.0444211 -0.00434392 0.00747608 -0.0359505 -0.0103142 0.00399471 -0.0318456 -0.0120537 0.00412569 
-0.0342905 -0.00675832 0.00494058 -0.0310507 -0.00443621 0.00595695 -0.0310018 -0.0096845 0.00726462 
-0.0344903 -0.0116419 0.00750199 -0.0342544 -0.0080414 0.00938162 -0.0290424 -0.00653629 0.00880606 
-0.0265199 -0.00992843 0.00400085 -0.0210649 -0.00890026 0.00410125 -0.0229755 -0.00480961 0.00420827 
-0.0264181 -0.00637828 0.00579928 -0.0257026 -0.0118799 0.00740438 -0.0220197 -0.00707128 0.00753567 
-0.0254474 -0.00825947 0.00921557 -0.0221326 -0.0110021 0.00900211 -0.0197171 -0.0121896 0.0060661 
-0.0179226 -0.00530628 0.00399584 -0.0168542 -0.0103597 0.00397055 -0.0142479 -0.00736452 0.00441515 
-0.017822 -0.00818082 0.00715628 -0.0137553 -0.00858349 0.0083095 -0.0159647 -0.00505373 0.00885008 
-0.0108239 -0.010095 0.00474618 -0.0105246 -0.00593869 0.00484694 -0.00710153 -0.00821738 0.00441439 
-0.00504067 -0.0117622 0.00422111 -0.00677881 -0.00422895 0.00472686 -0.0119829 -0.00477373 0.00872902 
-0.0097238 -0.00817824 0.00822331 -0.00659051 -0.0106654 0.00818168 -0.00601496 -0.00663539 0.00820152 
8.52473e-05 -0.0099192 0.00406676 0.0010965 -0.00594381 0.00503459 -0.00268324 -0.00430954 0.00490526 
-0.00319184 -0.00822387 0.00561151 -0.00284098 -0.012204 0.00797374 0.0034029 -0.00936315 0.00621878 
-0.000108964 -0.00862229 0.00823944 0.00135164 -0.0123158 0.00870439 0.0072017 -0.00814832 0.00530085 
0.00640902 -0.012074 0.00490695 0.0104213 -0.0105195 0.00443342 0.00954699 -0.00491932 0.00505172 
0.00516322 -0.00464836 0.00502652 0.00527 -0.00673803 0.00863235 0.00961901 -0.00845594 0.00862305 
0.0164974 -0.00804463 0.00406289 0.0203563 -0.0118175 0.00485016 0.0204664 -0.00776624 0.00470438 
0.0126025 -0.00749648 0.00592271 0.012695 -0.0109397 0.00799851 0.0165539 -0.0116954 0.00660834 
0.015744 -0.00469948 0.00613656 0.0258015 -0.00760337 0.00430315 0.0243089 -0.0112867 0.00533735 
[...]
POINT_DATA 6000
FIELD FieldData 7
id 1 6000 int
5739 4371 3416 292 500 3098 2423 1269 313 
5943 5573 5932 3325 4744 3421 5227 1128 5081 
5724 5662 3326 3974 932 5085 2569 2522 5514 
302 1540 5949 3152 4326 3820 5672 4534 6035 
709 2313 3633 5350 5610 1692 5415 5668 1999 
5561 1558 2554 3795 143 5684 4388 2122 2513 
3039 5318 5420 5052 1152 3702 3521 4006 5363 
3313 4026 2878 1659 4456 4703 5156 3387 3216 
6027 4000 2014 3335 5565 5093 4206 4896 5481 
1874 4782 4829 1154 5710 3069 5730 2508 5944 
3864 4743 2864 6016 4422 3217 4031 2226 2416 
5618 3703 1954 2970 5203 4238 4502 1376 2586 
4649 1546 2418 1691 2206 537 4600 2677 850 
4074 679 4128 4362 1903 4853 525 3558 710 
5229 3984 2984 2536 5545 3 5856 2623 5529 
5005 2609 34 18 374 3714 5848 5665 5701 
4297 2066 2638 6010 4123 4737 3553 2886 5325 
2037 1007 1777 1601 4451 4399 3706 4790 6064 
5526 5364 2159 5166 4380 5740 4357 3507 3873 
1449 1240 1078 976 117 252 2432 1445 4249 
1715 4569 574 1093 278 5402 1371 5106 1741 
4777 38 3534 268 5303 2020 3961 4088 3923 
5194 774 5557 988 4570 1088 1939 4439 5304 
4405 5281 3120 3075 5962 4465 3324 2222 3102 
1650 1323 4935 4136 3350 5423 5813 5222 4674 
4412 3081 3479 2905 2453 4363 2129 3954 1293 
1098 3948 5486 2732 5373 2059 2338 2490 358 
3588 2990 638 421 2292 62 2327 1523 1401 
63 502 2094 48 3968 529 552 870 4202 
935 5298 402 5265 720 3453 5846 660 2339 
5728 2810 4080 4284 5500 247 396 1584 274 
1630 2626 5586 1732 1354 426 5322 3040 1767 
582 1372 2843 3753 1397 1236 1347 5680 4359 
1228 78 1721 3260 4382 2251 2331 4610 3709 
2922 2337 2392 3185 3726 2136 2113 3305 2883 
1722 1934 3641 3184 1419 2863 1505 2478 2263 
474 608 1060 2452 234 1790 466 330 1072 
88 30 1307 468 397 517 857 840 1108 
1180 1011 2867 640 171 758 1440 214 1645 
1046 440 408 1129 383 211 1637 1885 639 
576 2704 2768 1698 4139 44 3161 1687 4867 
2257 3388 1612 2118 1606 2510 3366 3153 2326 
1311 2636 3340 2356 3246 3837 107 2022 1039 
1770 1959 762 2105 1628 2385 427 906 2104 
1525 45 353 441 2366 1177 162 952 1424 
1534 1420 153 2778 1709 1246 1887 61 164 
133 1272 1749 851 1490 3595 1168 2844 399 
459 2629 5050 496 4032 1305 4837 4789 2290 
4883 3677 5524 4722 4188 2447 484 1859 2965 
3579 2748 3110 2974 1768 3434 3915 916 3353 
3201 3093 3262 5549 1426 887 2071 647 2328 
3399 1944 1037 1421 1570 680 3406 2987 236 
3068 590 1304 853 1164 572 2400 456 258 
2403 5815 3900 2515 5495 1961 3793 175 3101 
3530 4341 4037 1757 4152 2097 3599 6002 3393 
3165 893 2944 4352 2687 4293 549 1648 2302 
2902 2076 483 3087 55 6046 3600 2900 2311 
5855 2814 2383 2583 2120 993 418 194 2256 
2064 1136 5742 3665 4592 6006 5982 2151 60 
2699 2111 3545 3369 2264 4603 4670 5786 3661 
1545 4270 5264 146 3594 3897 1614 1713 2266 
3005 3089 1805 2642 1528 4965 2895 687 3023 
540 367 2799 4307 1520 910 3566 4791 3162 
5847 4933 3322 5984 1569 3898 4526 3427 4635 
5139 4748 2797 3189 1024 2249 4158 5819 5342 
412 4034 3107 357 4682 6059 1333 2427 5904 
5639 4315 4775 3616 3922 4752 4312 5827 4986 
4984 3737 3568 6014 4134 3306 5416 5051 5685 
1680 4809 3559 5152 3338 4116 4586 2386 3736 
3986 4578 3575 5528 3506 5792 3148 5527 5801 
6013 2160 1773 3332 1640 5340 966 4437 4825 
5145 3905 5681 2981 3547 3382 471 3839 5124 
5346 5875 4086 6037 3882 3455 3586 4365 3710 
2625 3032 4106 3212 5929 4209 4928 6047 2008 
5347 3390 3054 5957 5328 6023 5186 4749 5167 
5592 5385 5607 5841 3112 4322 3785 5013 5410 
1363 4183 2742 5003 5207 2137 5744 5016 4090 
1484 3970 3236 2715 4662 3515 1030 5452 119 
3319 3144 2413 2792 1410 5777 4624 4347 2300 
744 3799 1846 1031 3208 3471 3827 135 767 
4124 5236 3902 2019 270 5217 1962 4060 4768 
4718 4590 5691 4272 969 281 5794 4939 6043 
5097 3833 4982 3531 4353 5059 5584 2261 5977 
3587 2784 361 4151 4509 1123 5241 5605 4446 
1771 4195 745 1565 5244 2939 4340 5055 4836 
2581 5442 3345 2178 2268 3803 3378 5741 4296 
1256 4104 3965 2874 5391 3018 131 4966 4716 
6048 2285 6065 4561 4567 1690 4581 5686 3881 
5891 1940 5365 3255 1937 2199 4695 1277 1261 
1588 336 1345 452 2149 1053 1574 3938 32 
2101 1294 902 649 2000 1990 49 4087 139 
2920 316 842 2444 2036 632 2346 531 6045 
3006 985 3576 4553 5852 3269 5645 5695 2358 
3731 5014 1013 5451 435 747 654 3549 2148 
6053 1891 1439 4042 4821 2422 350 5189 3373 
403 1774 3801 5956 5499 3991 4565 3414 4127 
3013 3994 2316 4880 5138 4461 4013 5024 1087 
855 1737 4424 4240 4212 5588 113 4021 2430 
4309 2666 3022 5951 2649 2822 2477 869 2363 
4002 2410 4046 2173 3229 4254 2738 1074 499 
1456 1115 1776 2491 1021 1810 1710 1706 66 
3066 1336 948 1163 684 570 2537 71 3008 
2850 364 789 244 3791 251 810 1141 2775 
5224 3933 377 522 738 528 329 2329 432 
178 257 81 1512 694 1189 5348 1930 3311 
392 2310 1600 3957 2612 209 3375 1607 1955 
1472 1631 664 5478 609 470 3220 1905 1352 
1331 2603 4320 5700 2998 3359 4350 3459 2688 
2982 4478 3136 3777 1636 3362 1242 1563 3776 
3632 2013 5890 2227 2505 2229 796 4924 5061 
2553 2860 4849 485 2512 3544 2387 3446 3210 
3128 2870 2881 3745 4940 3659 691 1782 1953 
1945 3939 2428 2606 2018 2620 1872 678 984 
885 1044 773 1694 622 740 822 1462 1 
75 170 434 1071 166 165 1458 1171 550 
2109 812 98 145 508 858 616 266 444 
864 301 890 1362 565 341 1446 575 390 
173 1045 1221 1576 208 2754 2555 1730 26 
2897 1886 1063 4191 997 2114 2517 3758 3681 
2130 3323 2999 2842 2650 5393 2379 3071 2420 
2739 986 4448 2968 3494 181 4616 2560 1845 
1901 2744 4608 3542 4155 3583 4946 4507 3151 
4559 2099 3410 2052 3806 3685 4528 3240 2663 
2781 3020 3177 1803 2807 3209 3173 1450 2015 
2591 1531 2459 2577 701 963 2032 1850 1223 
1218 1831 859 2095 1016 136 67 518 311 
1267 420 513 3662 100 1913 306 849 2398 
1798 560 795 2915 381 200 2879 245 490 
1792 1182 1969 524 3245 2659 2961 1195 1325 
267 797 1526 2857 1949 2861 4872 5090 1374 
658 4685 2081 4857 3010 4668 4893 72 5182 
3798 4810 4114 3469 4745 3518 3855 2780 2875 
4159 4436 5040 4450 3481 4078 4276 4628 4170 
3910 3511 4999 3667 2865 4717 3546 3501 4755 
4492 4418 2993 4613 4655 4351 3292 3037 1018 
2821 4217 3398 4549 3678 1052 3815 2691 3433 
3540 3334 4126 2608 2545 1126 1667 4184 2686 
3357 5066 2727 3304 4798 1300 1642 1215 1932 
656 1923 2345 2501 1378 1514 132 1034 1320 
663 766 2519 940 4245 1028 2709 1069 2161 
2325 3028 3396 620 127 2523 5084 40 2077 
3408 4391 5583 1907 160 3166 4392 2543 2393 
3747 3988 3432 4909 4678 4948 4517 3466 4876 
5560 2731 3585 4306 4138 5007 3017 5422 3279 
4519 1611 583 2242 3680 817 5091 2835 3934 
1877 2057 4844 5637 3775 5780 4118 4261 2760 
5496 4891 1049 5569 3249 5543 4453 5185 4701 
3041 4485 5758 5881 5937 950 3431 900 5575 
2683 2852 4190 2729 3868 2341 2299 1816 2117 
863 895 3463 1679 1791 31 3038 1689 1399 
3963 387 2283 4690 4513 961 15 4926 4176 
1807 2289 3226 1627 2869 4591 3082 4573 3615 
4470 4258 2514 4667 417 611 636 5781 2940 
2950 3967 2737 1017 3552 5200 4555 2044 5201 
3679 4273 3788 5357 4146 1856 6069 6044 4796 
3234 386 4213 5725 5351 2979 1857 5193 5620 
4529 5973 5104 3444 4839 6052 2789 4056 92 
1673 3514 2103 6063 478 3290 2462 4264 2352 
3367 2593 2258 903 2454 5419 1211 3919 2116 
5184 4019 3998 2962 5367 5896 3327 1535 5430 
3186 4381 4865 3950 1047 546 229 1308 3908 
2549 5447 2276 5550 4432 3450 4354 4277 4317 
5428 3383 5119 3333 5234 4077 5248 4596 2880 
2676 4334 3850 242 3288 3512 1225 6000 3719 
5331 4489 3656 4108 4813 4164 2655 3411 5897 
3805 5868 5615 2708 4983 3762 4899 3517 4474 
5032 1146 1662 637 5296 1906 4360 1121 4373 
3285 4411 5260 5768 5302 5822 6040 5732 5828 
4501 2714 1020 1396 2645 5759 5359 4687 4826 
4361 4471 2595 5458 5063 2890 5556 4869 3224 
5482 5972 1110 3814 3713 3628 2866 5626 642 
1042 3691 2307 4595 68 2786 5874 2590 5246 
4862 2360 5497 1972 1006 5599 1815 5755 5723 
20 3449 2216 4447 4466 2451 3941 5297 3825 
5663 4321 3668 5706 5808 4970 4761 3725 3347 
6029 473 4969 4140 4153 3847 3699 3180 5421 
4709 1417 4723 4919 4406 3281 2344 6020 5811 
4943 2702 1183 5215 5461 4766 6004 4366 3603 
3783 5377 3412 2287 3194 3320 5072 5767 5993 
3072 5673 2390 3880 5867 730 2102 2381 1279 
2183 2168 878 226 3786 3237 5579 3560 5667 
1950 3485 4929 1656 4130 429 1922 2479 3953 
4073 3458 542 3733 1625 3363 2846 101 2353 
4484 4942 3730 3949 3132 4740 3283 1998 3892 
6032 5483 4719 4174 2809 4427 5372 4304 1837 
4762 2078 5255 3539 5718 5536 5127 3021 3690 
3738 4803 6008 3447 2195 2433 4721 5382 5903 
6001 195 1977 5839 2988 4977 3955 5564 4858 
5708 5953 5395 4563 788 3417 1489 3717 1506 
159 2079 5692 2128 2763 4454 4010 504 3425 
3942 5293 872 4192 3771 5762 5770 813 4877 
960 1827 1733 1492 1647 315 2684 1924 1890 
2192 294 1926 1245 2277 2134 1204 711 2538 
1479 2698 1181 1947 2457 543 2891 1787 3724 
2049 700 3418 1668 4434 4267 4892 5504 4605 
1619 3723 3834 791 1652 2135 4689 3692 1145 
3492 5043 3230 5290 1065 3059 5696 4954 5915 
5936 4888 5134 4308 2524 1914 2301 5711 4805 
5448 2434 1392 628 5659 5440 1062 5390 3461 
1199 5489 3997 5563 1847 3385 2840 4147 5908 
5192 2284 3874 5209 1646 5555 4627 2767 5650 
3606 5336 2466 4988 5634 5294 2943 2042 5327 
1764 657 930 2297 2469 971 2877 1482 3607 
42 4005 1746 2611 2237 1193 1254 2340 3251 
2233 1160 1383 2127 3231 2716 2894 1197 519 
498 493 128 56 1366 172 1393 752 4602 
123 918 979 2460 1883 646 221 265 3137 
7 118 235 5181 606 917 2 987 706 
843 339 2746 217 3913 938 629 282 216 
4511 4741 188 1232 1539 241 3872 3932 401 
1828 682 3781 4376 5278 5864 2896 4828 1437 
1982 3019 2355 2236 3682 3478 2431 2107 1871 
1697 4165 1655 3084 1686 4879 4904 1935 2496 
3026 5995 2024 723 2376 1820 2362 5886 3435 
2613 3548 2758 4486 4228 4546 1493 2026 1736 
4759 1760 4125 2481 3048 4053 2836 3309 2145 
2790 3617 2429 2493 3635 3065 4691 3473 2335 
1448 2696 2228 1551 1703 707 297 2062 2977 
2389 1288 1641 957 1605 883 2023 567 17 
1139 1022 721 865 1562 713 1334 2273 1095 
507 748 380 1369 1436 673 1491 1684 635 
538 1066 659 368 275 1339 91 1000 1471 
867 951 348 338 2654 477 1632 983 641 
886 3851 726 1027 2793 1738 2156 3045 881 
904 4452 1043 1568 2959 1711 1751 3103 2202 
2480 2503 4205 3649 1799 3296 1249 4239 3712 
3297 2958 4727 718 2365 3238 77 2640 2934 
5147 4784 2369 994 2231 579 5445 3857 3636 
3652 4854 3193 4091 3999 3812 3707 3470 3750 
1147 1723 2006 5386 3838 1124 318 763 1524 
6034 2924 800 1012 3885 482 273 4698 4200 
1843 3094 2190 516 1400 4584 1385 3489 2144 
896 2167 1243 3581 1556 366 1527 43 2073 
676 129 1070 2631 385 559 1724 328 1817 
1103 305 431 4135 551 1010 2182 23 2911 
2511 1005 5135 874 2600 2633 1855 5664 1958 
5566 3126 2635 4711 742 3822 3859 3570 3317 
5110 3243 3993 5006 3064 4842 4269 4298 4597 
2753 5968 4403 4614 4398 5965 4458 3391 3626 
3235 5070 4780 5641 4342 4512 2719 1312 5315 
4851 1247 4658 95 2552 1202 3380 4566 3811 
1603 923 4120 1617 1661 3895 2110 2610 5945 
4793 1653 4508 5173 3400 3502 3442 5195 3076 
5721 4169 4098 3675 2868 2995 2535 4583 3779 
5082 1188 2235 1991 2197 2262 2463 811 4664 
1864 298 927 4345 3780 4057 2475 2499 3491 
373 862 1564 2705 3551 1621 674 1750 2588 
2665 2955 1317 4035 1306 2324 446 3503 1970 
343 5176 1762 5541 3368 5577 5300 4599 5487 
4370 5251 5488 5465 4680 3328 2579 4714 4679 
4630 4632 4807 4289 4692 5963 2816 4015 5738 
5117 5598 3014 5151 4325 3276 3524 4473 3693 
5383 3721 3135 3995 3875 1848 4739 544 5204 
5212 5930 5130 5745 2016 5969 4676 5321 4327 
5253 4379 5485 2889 1473 4198 1763 2976 4915 
4503 3164 5919 3843 2751 254 86 5621 6021 
4069 601 299 2825 2589 3405 4199 3848 5042 
4173 2788 6025 1818 4348 828 5404 189 3316 
5616 4012 3409 4482 5726 4881 3980 970 1390 
3420 4197 5658 4675 5083 3364 5863 5503 5162 
4815 2618 5934 5075 5878 4702 4531 5652 5074 
4781 4885 4998 4817 5998 2295 1795 5021 1552 
4886 3000 2211 5221 562 4799 1609 5657 5276 
3612 2084 2541 4728 5793 4838 5877 3460 5148 
3809 4937 5538 3918 3582 2047 5123 5961 4629 
5987 4082 4203 5916 4861 4651 5698 4300 13 
1851 819 5743 5287 5180 5158 5731 288 5095 
2884 5417 5272 3888 4850 4180 5140 5834 5604 
4163 5285 3990 3623 5009 5463 5150 4671 5174 
5787 5267 4477 413 5989 3536 5542 4699 5831 
3694 5394 5776 5249 4677 3884 4548 4160 3562 
5986 5392 5113 5079 5252 5473 4349 5843 5994 
3643 2907 2723 5835 2193 4641 5921 5757 4806 
3266 4617 3865 3651 4639 2794 5491 5374 4487 
5126 4978 4995 5640 2726 3889 4705 5460 4221 
3133 4256 4402 5312 4480 5821 5358 4683 5804 
5073 4103 4464 5202 6017 4582 4562 5045 1521 
5213 2520 5653 4295 3849 757 3947 4022 3138 
2601 2412 2158 5436 2472 4647 967 4756 1351 
753 2349 3523 3844 1882 443 4223 5036 1699 
249 1594 3331 1761 414 5490 5596 4778 3080 
2399 3211 2035 3280 880 5534 5306 5760 4400 
3124 4554 3475 3329 3223 6007 2787 4303 5515 
4017 3308 3930 5026 4544 3869 5424 5048 3671 
5539 5823 4541 4875 5552 5316 3415 4973 3883 
4409 3819 5914 5441 5366 5484 2208 5902 5307 
5432 4811 1435 2929 5356 1586 1701 2566 4410 
4099 1507 2162 5219 5146 2643 3079 3983 929 
5883 5118 5462 3592 3751 1759 4319 237 1639 
3784 3301 5854 174 4611 978 114 998 2598 
3856 2401 2919 5292 2380 2834 3509 5450 2652 
3346 3794 1778 3935 2749 2187 4133 4331 3451 
5859 5938 3975 3354 4704 4122 3653 4746 5406 
2992 5142 3129 4232 6058 5853 3741 5282 4700 
2853 4131 2270 4229 2639 3804 4033 5959 5243 
3250 4179 5849 5851 5712 3386 4364 5833 137 
4462 2131 3361 5170 4271 5223 2969 4187 5873 
3009 4846 3927 1808 3456 1120 2443 4059 1411 
2921 2945 4499 3920 79 2872 5 2278 5702 
3867 2072 1681 199 4729 6009 4733 5870 4189 
5845 2336 1360 3520 1801 2967 868 2971 2721 
2644 5876 3195 3602 1812 6057 2069 2811 2293 
2435 1695 1869 3944 3154 4927 4052 3670 3769 
2378 3861 2347 2681 2617 4143 589 1004 652 
2001 5105 126 4556 3655 2542 4433 3030 5913 
5299 4697 4747 4956 5719 5910 3172 4220 5531 
3454 4358 5775 5705 5948 3672 4726 4818 3846 
5782 1965 2711 3381 3828 3611 2728 4585 3219 
5979 3426 5707 2506 2043 571 3832 4302 3159 
1474 5295 2632 1035 4636 5912 2813 1825 3203 
3543 1946 5250 3085 1716 3893 1739 2658 2200 
4374 2175 1809 5153 1849 1878 5602 2700 2556 
481 2578 2181 696 1165 5578 4804 3272 3265 
2038 965 1172 2050 1090 1356 1911 3100 5078 
404 69 1135 1191 1735 825 14 1055 755 
248 3298 455 626 35 614 365 204 371 
848 410 5238 876 520 558 308 5716 5261 
2585 781 725 964 4095 1707 4910 1184 1015 
1853 3443 5188 2550 400 4389 3342 1633 2245 
4339 1867 3057 1056 2770 2054 39 1503 3012 
2912 3852 1909 102 2406 4792 2184 321 2450 
5068 6060 1900 2498 3774 1813 6066 4014 1415 
4226 2954 317 1755 5398 1084 1361 5332 3610 
4305 594 2621 1938 1239 3254 5455 3428 1889 
1624 182 3157 3119 2761 4533 1876 3598 5546 
4720 2561 2446 1598 1258 2391 2928 769 1590 
1273 2983 651 1559 1329 479 926 1340 310 
2265 1002 1358 897 2060 1561 184 1542 177 
96 1560 307 942 1216 130 568 352 238 
532 1118 937 1214 545 210 354 634 1747 
1257 149 1259 1829 76 1910 2960 1284 1192 
1466 1670 2217 2488 3321 4280 3529 4932 3413 
5537 2436 2051 3192 3035 4913 2568 2910 2063 
4923 4055 272 2343 884 6024 4819 1983 2926 
108 5918 2150 4259 93 4208 2005 3890 84 
4754 2906 2724 3831 3508 3257 1422 692 4233 
1427 5923 347 1395 2798 1432 2766 442 3619 
430 2218 5644 514 250 715 2306 1941 2527 
587 1299 1099 1654 1916 2828 388 196 1167 
27 319 2404 4268 461 231 521 1388 122 
279 826 1398 3356 1186 2622 603 4227 530 
4606 433 2776 3436 1693 1536 2220 1487 4100 
3625 4459 5991 4020 4901 4816 3058 5633 2975 
2692 4204 5802 5027 4944 2615 2935 5362 4329 
4081 4931 2964 941 1079 3541 4515 3282 3247 
5612 6050 1275 1830 4049 4330 4338 5630 5769 
2829 2314 3627 4368 5568 1127 1858 2756 1237 
1407 4504 3348 2685 5283 5576 3646 2985 5901 
3004 2986 4724 4914 816 4693 2467 3584 3979 
4738 599 3505 5818 5558 1538 924 2777 5812 
5911 3749 121 3036 3810 5674 4953 4394 5631 
5231 5033 3647 5454 3590 5103 1077 4620 3985 
5092 5226 5218 3996 5259 4993 5155 5572 3046 
5582 5330 5678 4843 5764 4622 5830 5323 4193 
5242 4681 2722 3824 4497 5788 4536 6018 5729 
5022 4004 4375 5756 3962 4244 5722 794 4589 
3477 2795 5679 1554 1268 2641 4441 5470 260 
2421 36 2832 157 1966 2375 2570 5697 5414 
4673 5771 4483 3876 243 5798 1682 3657 5094 
4460 2092 3928 4991 4115 5922 4157 5884 3740 
1956 1918 4445 5337 3052 4335 5254 5381 4972 
1190 5974 3205 5512 4990 5257 4234 5284 264 
4763 5817 5958 2180 4845 6061 4934 5703 4068 
3906 3015 5214 5850 6038 5933 3589 2938 5011 
5551 4725 4694 5403 5439 2165 3870 5112 5380 
5806 2146 4753 5638 1731 631 2584 4949 3140 
2599 4823 4514 2305 3958 3924 5648 2733 5137 
3007 5210 10 2755 4093 3060 4275 5942 3078 
4757 3528 3352 5133 5585 2367 3711 2507 4601 
4479 4287 5627 4141 4442 4247 5239 5625 2949 
5438 2804 4142 4947 1920 3096 5892 4075 4522 
5161 4431 1717 1780 2734 4615 5023 4870 4619 
2348 3664 5501 5642 5125 4868 5749 5649 4730 
5574 5143 4557 3145 5746 4071 5751 5171 5879 
2674 4414 1291 746 4054 4236 4894 5401 5444 
5694 3925 4788 5747 3474 5632 4423 5790 2402 
4959 4175 3759 5590 3952 4011 4579 3063 5225 
1504 5334 4332 5999 5773 4908 5832 5860 2942 
5054 4736 2223 5931 3291 4654 6030 5405 6036 
5622 5464 4224 5100 5279 3464 5178 2782 3242 
4918 1743 3104 4776 2693 2823 1230 457 2470 
621 1660 1119 1059 4808 3351 4030 2317 2791 
1979 5361 2012 4050 2170 449 3131 3790 3441 
3840 5237 4397 1111 5116 5289 5628 3267 2308 
4532 2933 3483 335 2085 5157 5714 3836 4645 
487 3773 5333 3374 5368 5409 3981 5314 3604 
1365 5927 3355 3569 5885 4500 1865 1557 4255 
3134 2468 1700 4871 1149 1001 5699 5898 3259 
5399 3878 1826 5256 992 778 5449 2504 5611 
4007 3336 4047 4827 3561 1929 1104 5511 3465 
2417 741 5689 3684 2918 1963 5352 1349 2414 
2669 2185 5837 1416 5857 4420 5803 4864 4063 
5258 3042 4547 754 5905 792 690 4992 4029 
5676 4248 977 3258 5506 3204 4889 1725 1370 
5388 4612 4048 1459 2948 1705 1179 944 1580 
5795 4463 4510 5763 3300 2112 3130 5177 2594 
4551 2827 1281 1380 5034 1143 5736 4469 5523 
3227 2485 4222 3122 5928 2106 1282 3424 3141 
4831 5964 3403 1775 802 5389 3578 2648 4604 
5205 2309 973 5909 5513 1664 2408 4646 304 
5494 5971 980 2354 2701 4524 4516 4378 1919 
6011 5169 416 2011 1948 4241 1677 585 2372 
1785 4214 5245 3660 2712 5516 5507 4900 2272 
4957 3239 5154 5459 2662 3001 2529 233 835 
1806 4025 1367 2856 1583 4963 2772 3601 1870 
1936 5521 4111 4734 2303 1971 5163 4638 512 
708 4712 3397 3315 2740 3639 4598 732 3295 
5266 3841 5498 4156 303 3826 3807 4493 4257 
5128 5220 3982 2785 4101 4659 4917 1992 2531 
4367 2587 777 3270 1346 2198 4003 5015 2384 
3596 6003 5206 703 4219 4372 5080 4684 4609 
1296 1217 2855 5502 4132 2680 2667 3139 5029 
1125 150 2838 464 4770 1544 1980 5655 2779 
505 5109 1658 3056 2248 1786 1616 167 2093 
584 2213 804 152 3011 2647 670 1409 1318 
223 2916 1861 314 1219 6012 685 411 28 
337 5426 548 1765 73 801 852 515 2580 
737 3160 5935 2602 2147 324 1802 1766 1550 
1819 2108 309 2800 981 2280 3580 2703 4920 
1315 58 1100 2656 3452 4243 1708 2080 1114 
1610 3111 820 4023 5008 2219 4274 5313 5990 
5838 3482 3720 3445 158 1784 5088 5976 2163 
2230 407 1155 3813 5057 3573 5636 5175 5939 
856 1023 2839 3761 1330 1921 1734 3003 1161 
103 1643 206 1235 759 771 779 393 671 
1727 451 262 1406 2439 591 1626 333 1465 
1480 105 472 681 1271 280 798 1038 667 
47 602 619 3099 370 325 756 286 666 
734 580 1092 569 1438 124 198 2334 612 
19 4252 2888 3389 2646 4783 5270 4094 1754 
5121 4824 2653 24 2817 3903 4072 5101 4767 
4751 334 2209 3696 5190 1377 4472 3972 1461 
1176 4841 3931 1384 3377 5309 3143 2582 3462 
4062 1310 2769 4316 1080 3090 3556 225 224 
2061 593 87 4498 535 4396 1483 5983 1355 
3274 610 1158 1266 1234 21 2395 3002 1486 
2294 2941 2497 764 907 112 3904 3705 1287 
3614 2142 3457 142 5431 5925 729 688 4571 
2972 2764 5981 806 1579 592 5047 362 2574 
1429 476 50 5752 323 5108 2637 2530 2132 
5600 3440 4314 5344 5518 4715 2923 5952 5753 
5651 1758 3171 1033 6031 2238 1943 3921 3467 
6049 4404 3484 604 1572 5020 2675 5280 1794 
5002 4428 4771 5617 3718 4066 1597 5709 4449 
2296 990 3823 4129 89 1615 1328 3756 2947 
259 1964 2373 5099 5096 1076 4772 2660 1226 
5086 5172 4119 2720 5785 4652 6055 1162 3640 
2029 2357 809 4194 2820 3593 2201 1054 2845 
4506 5339 3946 4543 5613 2885 4623 536 5067 