# vtk DataFile Version 4.2
Generated by LIGGGHTS
ASCII
DATASET POLYDATA
POINTS 6000 float
-0.0412891 -0.00104577 0.00417272 -0.0235357 -0.0381557 0.00399239 -0.0213814 -0.0395734 0.00717431 
-0.0187217 -0.0402376 0.00420037 -0.0150536 -0.0422524 0.00429857 -0.0150317 -0.0382878 0.00501859 
-0.0177702 -0.041188 0.00796501 -0.0137348 -0.0427591 0.0081248 -0.011498 -0.0403419 0.00397384 
-0.00541975 -0.0416083 0.0039975 -0.00943821 -0.0439728 0.00425777 -0.00788892 -0.0384615 0.00435305 
-0.0100726 -0.0405762 0.0078843 -0.00803188 -0.0442913 0.00807275 -0.003083 -0.0448531 0.00398656 
0.00330632 -0.0447549 0.00426596 -0.000107227 -0.0422703 0.00490222 -0.00303916 -0.0405013 0.00700063 
0.00341673 -0.0403877 0.00508553 -0.00207527 -0.0449245 0.00784062 0.00746016 -0.0405131 0.00534048 
0.00891118 -0.0440307 0.00663597 0.0100233 -0.0378287 0.00681627 0.0137774 -0.0392867 0.0061334 
0.0128561 -0.0430737 0.00718778 0.0168312 -0.0414168 0.00765383 0.0238245 -0.037759 0.00806133 
-0.0325333 -0.031041 0.00429709 -0.0297456 -0.033734 0.00581627 -0.0331267 -0.0302998 0.00828851 
-0.0286338 -0.0299327 0.00523879 -0.0208731 -0.0315118 0.0040117 -0.0246683 -0.0303465 0.00456947 
-0.0266621 -0.036235 0.00563928 -0.0231267 -0.0348152 0.00703611 -0.0263885 -0.0323199 0.0076574 
-0.0201458 -0.0357269 0.0040575 -0.0162401 -0.0345036 0.00423383 -0.0123104 -0.035285 0.00399256 
-0.0132303 -0.0297694 0.00449746 -0.0194302 -0.0333447 0.00725507 -0.0170817 -0.0307069 0.00513472 
-0.0181371 -0.0371495 0.00728446 -0.0144002 -0.0323057 0.00765891 -0.00885708 -0.030434 0.00400524 
-0.00402616 -0.0368518 0.00405982 -0.00835873 -0.0344006 0.00407258 -0.00561374 -0.0318404 0.00591791 
-0.0104138 -0.0323735 0.00716639 -0.010296 -0.0364101 0.00732675 -0.00418178 -0.0352159 0.00779284 
0.0027094 -0.0364869 0.00437209 -0.0016242 -0.0321589 0.00681628 0.00209705 -0.0334152 0.00760186 
-0.000447104 -0.0364028 0.00681993 0.00133307 -0.0296805 0.00524299 0.00891691 -0.0349255 0.0042181 
0.00569805 -0.0330516 0.00587551 0.00972467 -0.0312637 0.00586212 0.00611795 -0.036847 0.00723363 
0.00634486 -0.0290938 0.00608412 0.0129425 -0.0352364 0.00410568 0.0166529 -0.0365147 0.00712094 
0.0146063 -0.0329638 0.00753075 0.0127053 -0.0290261 0.00758315 0.0205305 -0.0355313 0.00749018 
0.0199565 -0.029369 0.0063072 0.0236777 -0.0332628 0.00599144 0.0271619 -0.0358811 0.00658008 
0.0259902 -0.0301786 0.00766316 0.0327039 -0.0304578 0.00415837 0.0289168 -0.0293161 0.0050985 
0.0301439 -0.033097 0.0057689 0.0329559 -0.0306151 0.00822112 -0.038167 -0.0235601 0.0059526 
-0.0315239 -0.0271768 0.00464008 -0.0296888 -0.0235476 0.00484676 -0.0352832 -0.0278143 0.00602332 
-0.0336919 -0.0241566 0.00614311 -0.0268064 -0.0263945 0.00479997 -0.0228457 -0.0267352 0.00427516 
-0.0228275 -0.0212312 0.00431239 -0.0276327 -0.0245732 0.00827703 -0.0235456 -0.0237854 0.00738535 
-0.026655 -0.0211929 0.00605716 -0.0170063 -0.0268293 0.00398727 -0.019965 -0.0283806 0.00685353 
-0.0198241 -0.0240495 0.00530367 -0.0137041 -0.0249073 0.005478 -0.014735 -0.0279556 0.00782308 
-0.0138882 -0.0209068 0.00531528 -0.0102929 -0.0270223 0.0056714 -0.0102785 -0.0227011 0.00598324 
-0.00625008 -0.0278473 0.00556082 -0.00393097 -0.0245528 0.00597326 -0.00648225 -0.021458 0.00603257 
-0.00771739 -0.0252386 0.00820972 0.00350085 -0.0265217 0.00735135 -0.0013491 -0.0215475 0.00539578 
-0.00267966 -0.02829 0.00732782 -0.000182842 -0.024955 0.00730165 0.0103194 -0.0277057 0.00413219 
0.00727127 -0.0251503 0.00551973 0.0119513 -0.0236335 0.00536162 0.00880282 -0.0216805 0.00707879 
0.0161799 -0.0278361 0.00588877 0.0159254 -0.0237112 0.00613803 0.0190286 -0.0210014 0.00659598 
0.0257456 -0.0251519 0.00762303 0.0220731 -0.0231319 0.00826561 0.0276899 -0.0216701 0.00847679 
0.0333934 -0.0245534 0.00409426 0.0353395 -0.0207933 0.00403736 0.0354346 -0.027526 0.00583973 
0.0293188 -0.0250768 0.00532508 0.0310756 -0.0270788 0.00833369 0.0314747 -0.0218675 0.00641241 
0.0376806 -0.0239966 0.00534111 -0.0410032 -0.0182634 0.00399074 -0.0427298 -0.0140581 0.00447064 
-0.0395667 -0.015456 0.00647541 -0.0400345 -0.0202499 0.0074509 -0.0368032 -0.0140229 0.00401306 
-0.0330344 -0.0205565 0.00437308 -0.0299471 -0.0177795 0.00448571 -0.0328868 -0.0145738 0.00481038 
-0.0287829 -0.0139588 0.00402443 -0.0360902 -0.017697 0.00540801 -0.035631 -0.0210259 0.00777965 
-0.0330072 -0.0170825 0.00794284 -0.02582 -0.0176551 0.00426574 -0.0214526 -0.0139803 0.00504116 
-0.0208389 -0.0192268 0.007732 -0.0236111 -0.0163558 0.00762954 -0.0275627 -0.0144219 0.00827366 
-0.0141484 -0.0169452 0.00469136 -0.0183246 -0.016477 0.00564687 -0.0179069 -0.0205108 0.00524292 
-0.0152301 -0.013234 0.00583942 -0.0114572 -0.0154361 0.00742241 -0.0104828 -0.0187511 0.00531047 
-0.00792241 -0.0136559 0.00570078 -0.00684928 -0.017474 0.00642356 -0.00460224 -0.0147311 0.00830785 
-0.00117026 -0.0150704 0.00583644 0.00161572 -0.0179334 0.00687782 -0.00211771 -0.0185256 0.00819982 
0.00631111 -0.0155673 0.00576097 0.0104036 -0.0143078 0.005947 0.00550764 -0.0192885 0.00744271 
0.00919348 -0.017689 0.00777804 0.0150254 -0.0197867 0.00536115 0.0141804 -0.0157004 0.00595503 
0.0181136 -0.0170371 0.00645531 0.0174643 -0.0128852 0.0064857 0.022952 -0.0204602 0.00498858 
0.0225556 -0.0165049 0.00403972 0.0255242 -0.0182271 0.00757282 0.0274822 -0.0147191 0.00756417 
0.023499 -0.0144906 0.00784735 0.0334078 -0.0184298 0.00724219 0.0315076 -0.0148603 0.00739546 
0.0399566 -0.0206606 0.00506203 0.0409814 -0.0163216 0.00638815 0.0373731 -0.0184661 0.00803856 
0.0389558 -0.0130275 0.00842558 -0.0402583 -0.0107451 0.0039902 -0.0439941 -0.00885873 0.00444978 
-0.0394006 -0.00678538 0.00397837 -0.0434807 -0.0113995 0.00758665 -0.0375299 -0.00598368 0.00767399 
-0.0335196 -0.00615023 0.00402792 -0.032068 -0.010683 0.00414687 -0.0367379 -0.0108775 0.00649686 
-0.0287497 -0.0109076 0.00670414 -0.0300229 -0.00705443 0.00590343 -0.0339544 -0.00814578 0.00754902 
-0.025074 -0.0121519 0.00401444 -0.0260748 -0.00820685 0.00412772 -0.0213944 -0.00819067 0.00535651 
-0.0210044 -0.0116303 0.00830661 -0.0245437 -0.00993081 0.00751551 -0.0247062 -0.00464072 0.00540602 
-0.0175787 -0.0100823 0.00512553 -0.0140139 -0.00831204 0.00584639 -0.0173395 -0.00604097 0.00570471 
-0.0114669 -0.0116728 0.00587707 -0.00722913 -0.00924173 0.00585167 -0.00404753 -0.0120788 0.00526483 
-0.0102157 -0.00649228 0.00564288 -0.00542232 -0.00563014 0.00600137 0.00155937 -0.0121459 0.00616426 
0.00105339 -0.00817106 0.00645166 -0.00136179 -0.00484353 0.00585778 0.00931202 -0.0105886 0.00486902 
0.00859005 -0.00595064 0.00508489 0.00502886 -0.00770119 0.00700903 0.00596788 -0.0116673 0.00698483 
0.0124276 -0.00777933 0.00569578 0.0162596 -0.00897488 0.00637223 0.0200066 -0.0077451 0.00724245 
0.0135376 -0.0115443 0.00788899 0.0145763 -0.00494742 0.00776973 0.0212889 -0.0114721 0.00638533 
0.0243051 -0.00866312 0.00720895 0.0278327 -0.0106863 0.00737355 0.0265695 -0.00541406 0.00787179 
0.0226389 -0.00474656 0.00667719 0.0358138 -0.0110282 0.00693412 0.0370221 -0.00712876 0.0075113 
0.0318546 -0.0108318 0.00747821 0.0301622 -0.00720508 0.00748296 0.0336191 -0.00497885 0.00799111 
0.0401397 -0.00961503 0.00663372 0.0437753 -0.0102514 0.00818655 0.0444876 -0.00633581 0.00713965 
-0.04446 0.00155434 0.00424866 -0.0371148 -0.00128512 0.00546573 -0.0447465 -0.00447075 0.00526993 
-0.0411301 -0.00416914 0.00730608 -0.0403479 0.000979087 0.0075436 -0.0343611 0.00262679 0.00408936 
-0.0293208 0.00475076 0.00427764 -0.0339426 -0.00340342 0.00712021 -0.0321586 0.000570477 0.00755727 
-0.0363369 0.00211371 0.00759586 -0.0283434 -0.000362225 0.00415384 -0.0244515 0.000321387 0.00517679 
-0.0280335 -0.00327464 0.00755716 -0.0207452 -0.00382244 0.00562724 -0.0204127 0.000294043 0.00504695 
-0.0224535 0.00287191 0.00760691 -0.0264201 0.00354054 0.00681721 -0.0161847 0.0020655 0.00483659 
-0.0124373 0.00353801 0.00474179 -0.0170722 -0.00193356 0.00506052 -0.0136846 -0.00433975 0.00546402 
-0.0130487 -0.000389936 0.0053014 -0.0178391 0.000504155 0.00830738 -0.00952087 -0.00241487 0.00540668 
-0.00582717 -0.000822253 0.0057607 -0.00910214 0.00139473 0.0065799 -0.00540514 0.00292967 0.00727555 
-0.00173011 0.00090879 0.00628958 0.00279558 -0.00432622 0.00704604 0.00191158 -0.000204922 0.00751789 
0.00183325 0.00376093 0.00673631 0.00662765 -0.00270712 0.00644696 0.0117192 -0.00223101 0.00640238 
0.00879958 0.00093654 0.00677626 0.00576015 0.00343649 0.00754583 0.0127448 0.00172007 0.00674409 
0.0156064 -0.00115631 0.00697574 0.0185817 -0.00399084 0.00717366 0.0194473 -8.13917e-05 0.00735136 
0.0165902 0.00278746 0.00745884 0.0253206 -0.00167965 0.00675159 0.0229556 0.00184378 0.00732957 
0.0273625 0.00350546 0.00689624 0.0370809 -0.0029989 0.00649845 0.0300817 -0.00316239 0.00718333 
0.0331933 -0.000499222 0.00779971 0.0341705 0.00344373 0.00760914 0.0373281 0.00107663 0.00660194 
0.0408744 -0.00401609 0.00743143 0.0419899 0.000409415 0.00735899 0.0446658 -0.00247554 0.00819322 
0.0448538 0.00330204 0.00712894 -0.0438834 0.00875574 0.00434196 -0.0382592 0.00489576 0.00437468 
-0.0442334 0.0049867 0.00639699 -0.0377239 0.00680108 0.00801455 -0.0427031 0.0110026 0.00802637 
-0.0305089 0.00899484 0.00402354 -0.0360507 0.00940257 0.0048177 -0.0334662 0.00637578 0.00597802 
-0.028833 0.0067224 0.00777384 -0.0316391 0.0116458 0.00689663 -0.0227675 0.00983219 0.00413029 
-0.026405 0.0081281 0.00453075 -0.0227068 0.00527794 0.00401904 -0.0238631 0.00713968 0.00741674 
-0.018716 0.00514627 0.00431721 -0.0188361 0.0100955 0.0049657 -0.0156111 0.00774799 0.00475578 
-0.0199155 0.00698244 0.00815775 -0.0164646 0.00489742 0.00764796 -0.0116626 0.0074801 0.00563758 
-0.0081732 0.00552797 0.00599257 -0.00752621 0.00986725 0.00649194 -0.00483987 0.00687893 0.00779778 
-0.00371022 0.0110393 0.00679165 -0.00106407 0.00800249 0.0071133 0.00286286 0.00785565 0.00783168 
0.00224612 0.0119156 0.00651999 0.00608766 0.0104862 0.00615177 0.00946231 0.0050236 0.00718671 
[...]
POINT_DATA 6000
FIELD FieldData 7
id 1 6000 int
2113 313 5943 5932 3325 4744 5227 1128 5662 
3974 3326 932 2569 2522 5085 3152 5949 5514 
4326 4534 5610 3633 5350 2313 709 5668 1558 
4371 143 5684 4649 5318 3702 5739 1152 5052 
3039 2878 1659 2536 4456 4703 3421 3387 2014 
1540 4000 3335 4206 5093 5565 4829 5481 4782 
1874 2638 5710 2508 3069 3820 5730 5944 1999 
2864 1363 5561 6016 2226 3795 5618 4238 3703 
2416 4347 1449 4074 5402 2586 1546 679 5229 
3416 4128 4362 5106 2984 3984 4088 5545 2623 
2020 5005 18 2609 34 4439 5848 6010 3120 
2066 4123 3553 5325 2886 1650 4743 1601 4451 
5526 4399 5364 5166 4357 5203 2159 4502 5740 
3873 1240 292 2338 1078 2990 4249 1371 638 
63 1445 1691 1715 1741 5298 3923 4202 3968 
4570 3961 5303 5846 4405 1088 5728 1939 2626 
3075 3324 4465 3102 4935 2222 4136 5813 5423 
3350 4359 6064 3081 4412 4013 3479 1293 4363 
3948 5486 1098 2129 500 2059 2423 2490 2883 
2863 3098 421 48 234 2292 502 2094 935 
5265 529 1060 402 660 468 2339 1630 396 
2810 274 5962 5586 1584 3040 1767 426 5322 
1347 3753 1236 5680 1228 1397 1721 2905 78 
4382 4610 3726 3709 2251 2392 2136 2013 5890 
2510 1419 2118 3305 3641 2326 1311 1505 2478 
2263 107 2452 1790 1307 88 762 1770 1628 
441 30 2867 840 857 1108 758 1180 153 
1440 582 440 164 1129 408 1046 1272 1637 
576 1885 639 2704 2768 1698 1305 4867 2331 
44 4789 3677 1687 4883 2257 5524 1859 1606 
484 3366 3579 1269 2748 2636 3340 3434 916 
2022 1039 1959 427 2385 906 2104 45 2366 
1177 1424 1246 236 2778 133 590 1490 61 
1749 2844 2629 399 1168 459 5050 496 4032 
4837 4722 4188 3585 2974 1757 2447 4341 2965 
3110 1768 3165 3353 3201 3093 2071 2944 3262 
4293 5549 1426 647 3399 1570 1944 887 1421 
1037 2987 1304 3068 1164 853 418 194 572 
258 2400 3665 5815 3900 5495 2515 1961 3793 
60 175 3369 2264 4152 3599 2097 4555 2687 
549 893 2302 4352 1545 1648 3087 6046 2902 
3600 2900 2311 2383 5855 2120 2814 2256 687 
993 2064 5742 1136 4592 6006 2151 4307 5982 
2111 3545 2699 4603 5786 3661 4270 5264 146 
1614 3594 3897 3089 2266 1713 3005 1805 2642 
1528 2249 4965 3023 2895 4158 3367 540 3107 
367 3566 1520 910 4791 3162 4933 5984 3322 
4526 4635 3898 3427 4748 2797 3189 5139 5819 
2655 5342 412 357 4034 3517 5573 6059 4682 
5904 5081 5724 5639 4315 4775 302 5827 4986 
4984 4312 4134 6014 3306 3568 5685 1680 5672 
3338 3737 3559 4116 5152 5607 4586 5051 4578 
3736 3986 6035 2386 5792 3506 3148 5528 6013 
1773 2160 5527 5801 1692 1640 2554 5340 5415 
5145 4825 966 1954 2981 4388 2122 3521 2513 
3382 5420 4006 5363 3313 4026 5346 6037 4086 
3586 5875 5156 3216 6027 3032 4106 3212 4209 
2625 4928 5929 5347 3714 3390 5957 3054 5328 
4749 4896 5385 5592 1154 6023 3112 5841 4322 
5410 3864 4183 2742 4422 4090 5016 5003 1484 
3236 4104 4031 2970 3217 3319 3515 5452 119 
2413 3144 1030 2300 744 1376 1846 3208 2418 
4600 2206 537 2677 1903 3471 850 471 3839 
3827 135 4853 525 3558 710 3534 4087 5217 
1962 4060 4768 4718 3 5856 5529 5794 3833 
6043 4939 5097 374 5665 5701 4297 5584 2261 
5977 3587 2784 361 4509 4151 1123 4737 5605 
5241 4446 5244 2939 1565 4195 2037 1777 1771 
2581 2268 5442 4790 1007 1256 4127 4836 5741 
2178 4880 3706 5391 3970 4296 3018 131 5138 
4380 4567 1690 5891 3507 4561 3881 4581 2430 
1937 4695 4569 976 252 117 2432 1277 1261 
1588 336 2327 4777 574 1093 49 278 32 
3938 1294 1074 38 268 531 5194 870 842 
3008 316 139 2920 988 5557 774 5304 5451 
4553 6045 3006 985 3576 3269 435 5281 3731 
2358 1013 5014 747 654 3549 2148 1891 1439 
4042 4821 2422 5189 350 3373 403 1774 5956 
3991 3801 5499 4565 4805 3414 1323 4674 5222 
3013 3994 2316 3345 5024 1087 3359 1737 4424 
855 2453 3954 4240 4212 2922 5588 5373 2732 
2666 4309 3022 2649 2822 2553 358 3588 869 
2363 2477 3184 4002 1345 1115 4046 2387 62 
1523 1401 608 499 1456 3066 474 1336 1776 
1945 397 466 552 71 66 622 1706 244 
2537 773 3453 720 4284 4080 2850 364 550 
3791 789 251 5500 247 3933 2329 2775 5224 
165 377 329 522 1189 738 694 178 1732 
1354 2310 257 1372 432 81 1512 5348 1930 
3311 2843 664 1600 3957 2612 1607 209 3375 
1955 1539 1631 1331 1472 5478 609 470 3220 
1352 2603 1905 2998 3260 3459 2982 4350 2420 
4478 3136 2337 3777 2227 3161 1636 1563 3362 
1242 3185 2505 2229 3388 3494 796 4924 4849 
5061 2860 1934 1722 3210 3544 2512 691 3128 
3939 3446 4940 3659 1782 2663 1872 1953 2428 
2606 330 740 1072 353 678 984 885 75 
1 1044 2807 517 1011 952 1458 1462 822 
1071 2459 171 640 1171 508 1709 858 1218 
444 2109 812 98 214 616 565 1362 266 
301 173 864 390 306 383 341 211 1730 
1045 575 1446 1221 1576 2754 208 997 2555 
26 1063 1886 2897 4191 2517 3758 2114 3681 
2130 3323 2999 2842 4139 2650 5393 2379 3071 
4893 2739 986 3798 1612 2968 2560 4159 2780 
181 4616 1845 5040 2744 3153 4608 3542 3583 
4155 4946 4528 3837 2356 3246 3546 2099 3410 
2052 3806 3240 2105 3020 2781 1803 3177 3209 
2821 1052 1525 162 2015 3815 1667 2591 1531 
2577 2545 1534 1420 1223 1850 1267 1831 1016 
859 2095 136 311 1645 1887 420 560 795 
100 513 1913 851 381 2915 200 1514 2879 
245 1792 1182 524 3595 3245 2659 2961 1325 
2709 1195 1374 267 1526 2523 5084 1949 2857 
2861 5090 3408 2081 4872 658 4857 4668 3010 
2290 4810 5182 72 4114 3469 3518 4517 3101 
2875 4436 4450 3855 4306 4078 4170 4276 3910 
3511 3279 4418 4999 3667 6002 3393 3915 3501 
4492 4755 4717 4655 4351 4613 3292 1018 3037 
3398 4217 2328 55 1126 2691 3433 3540 4126 
3334 2608 3406 680 4184 2686 1642 5185 3357 
5066 2727 3304 2583 1300 1215 1932 663 3662 
656 2345 1923 1378 456 132 1034 1320 2519 
766 4245 940 1028 31 2403 1069 2161 2325 
3396 4690 127 40 3028 2077 3166 5583 1907 
4391 160 4392 3747 2543 3432 3988 4909 4678 
636 3082 4876 3466 5560 3530 3552 4948 2731 
4138 5007 3017 5422 4037 2242 4519 583 1611 
3680 2076 5091 1877 3934 2057 4891 5637 483 
3775 5780 4261 2760 5496 4118 1049 4529 3249 
4453 4701 5543 3041 5758 5881 950 5575 3431 
900 2683 2852 92 2729 3868 2341 903 2117 
1816 895 863 1679 3463 1689 1399 1791 3038 
2283 3963 387 1211 4513 961 4176 601 1807 
15 1818 4926 2289 3226 1627 2869 4591 4573 
3615 4470 3409 4258 2514 417 611 5781 1017 
2940 2950 2737 4667 5200 3967 4670 2044 3679 
5201 3234 1569 2835 386 3788 4273 4146 5357 
1856 2295 6069 6044 5725 4213 4354 5351 2979 
1857 5620 4334 5973 3444 5104 4839 6052 2789 
5193 2462 1673 3514 2103 6063 1225 478 4629 
3290 2352 2593 4264 2454 2258 2708 1851 13 
819 2799 5419 3998 2116 3919 5184 5417 2884 
4019 2962 5367 5896 3327 4381 3186 4865 1535 
5430 3950 546 1047 229 1308 3908 2549 5847 
5447 4432 3450 5550 4277 4317 5428 2276 5119 
3333 3383 4077 5234 5248 6000 2880 4596 5986 
1024 2676 3850 242 3288 4164 3512 3719 5331 
4108 3656 4489 4813 3411 5868 3805 5897 4983 
5615 3762 4899 5032 1146 4474 637 1662 5296 
2726 4360 1121 1906 1333 2427 4373 3285 3922 
4752 4411 5260 5768 5302 6040 5732 4501 5828 
3616 5416 4809 1396 2645 1020 4687 5822 5759 
5359 4361 2714 3575 2890 5556 1110 4869 3691 
5482 4826 5972 3713 3814 3224 642 5063 3332 
2307 4595 2786 5874 68 4662 5246 5681 2360 
1006 1972 5497 4862 3547 3905 5755 5124 20 
4447 3449 3882 3455 5297 5663 4321 4365 3825 
3668 5706 3725 4761 5808 6047 6029 2008 4153 
4140 473 3847 3699 4969 5186 5167 1417 4723 
4919 2344 4406 3281 5811 3785 2702 5215 1183 
5461 6004 4340 3783 4766 4366 3603 2137 5744 
5013 5207 1042 2287 3320 3194 5767 5072 2715 
5673 3880 5867 2390 4437 2792 2168 5777 1410 
4716 878 730 3560 226 4624 3799 3485 3237 
1656 4124 1031 429 1922 5236 4073 3902 2019 
270 2216 542 3458 3733 1625 3363 4590 5691 
4272 4484 4942 281 3730 3949 3132 3710 4982 
3531 4353 5059 3892 5483 4719 6032 4434 4174 
4427 4304 2078 1837 4762 5255 5718 3539 5536 
3021 5127 3690 745 2433 2195 6008 4721 3447 
5903 3803 3378 4803 195 1977 2988 4977 5839 
5564 3965 2874 4858 5708 1199 5395 5953 788 
4966 3461 6048 2285 3717 6065 1489 5686 3425 
1940 3255 5365 504 2763 4454 159 5762 4010 
3942 2199 5770 2149 452 1574 1053 960 1827 
1733 1492 767 2101 902 649 2000 1990 1890 
2192 1479 2277 294 969 2036 632 2346 2444 
570 3418 2698 1181 1947 5852 5695 5645 1668 
4267 4892 1619 5504 4605 6053 2135 4689 3692 
4888 1914 5290 3230 1145 1065 3492 5915 4954 
5055 4308 5936 5134 2301 2524 5711 5696 5448 
628 1392 2434 5659 5440 3454 4461 1062 3781 
5390 5489 3997 5563 1847 3019 2840 4147 5908 
5192 2284 3874 5209 1646 113 4021 5555 4627 
5650 2496 3606 2767 2943 2024 5951 5634 4988 
5886 5294 3435 1764 4228 2410 2173 3229 4254 
657 930 2738 3251 971 2877 2297 1482 2469 
2491 1021 948 1810 1163 1710 2237 1254 1193 
2340 2233 684 2894 519 1197 498 979 918 
493 128 810 4602 123 1141 1883 2460 265 
646 528 118 235 606 3913 5181 217 917 
843 706 987 2 188 392 2746 938 629 
282 216 4511 5238 4741 1232 3872 3932 241 
1828 401 1632 4095 1707 682 4320 5700 4376 
5864 5278 2896 1982 4828 1437 2236 3682 2688 
3478 2107 1751 2431 1871 1697 1655 4165 1686 
3632 3776 1820 4879 3712 4904 1935 3026 723 
5995 485 2362 3548 2613 4486 2758 5147 4784 
1493 1736 4759 2231 2881 2870 3745 4125 3685 
3048 1746 2836 4053 3309 3617 2018 707 2620 
3065 4691 3473 2335 1448 2696 1694 297 2062 
17 1450 2977 1288 56 957 1641 2389 170 
434 507 166 1095 221 1139 1022 1436 1562 
721 865 145 1066 538 380 748 1369 1491 
673 659 368 890 1339 275 1000 91 1471 
951 867 1103 338 2654 477 983 886 641 
3851 726 1027 1711 2793 1257 1738 149 2600 
881 5135 904 3045 4452 1043 1568 2959 742 
2156 4685 3103 3649 2202 2480 4205 5110 1799 
2503 3296 1249 4239 4448 3297 4298 2958 3238 
2365 4727 718 5968 1901 3481 4628 2934 2369 
994 3626 5445 4512 4559 4507 3151 3652 2481 
3636 4091 3193 3812 3999 3707 1723 5386 2006 
1124 3838 3173 963 2924 800 1012 1843 3885 
567 273 4200 896 701 2032 2190 518 3094 
1400 516 43 2167 2398 849 3581 1556 1243 
366 67 2073 328 1527 676 490 129 1798 
385 559 1070 2631 1724 1817 305 4135 1969 
551 1010 2182 23 2911 1005 2511 797 2633 
874 1855 5664 2635 1958 5566 3126 4711 3859 
5991 3570 3993 3317 3243 5006 2324 3064 4842 
4269 4745 4403 4597 2753 4614 4458 4398 4081 
5965 4931 3391 3235 2579 4780 5641 5070 2719 
3328 4342 5315 1312 6050 4851 4854 2865 1247 
95 2552 2993 3380 3811 4566 1603 318 4120 
1617 4549 2110 3895 3678 5945 2610 4793 6034 
4798 1653 4508 5173 4584 3400 3502 3442 5195 
4169 5082 3675 4098 2868 2995 2535 2501 1188 
2235 1991 2197 2299 2262 4664 2463 811 1864 
620 298 927 4345 3780 4057 2499 2475 3491 
1564 3551 2705 2955 1621 674 1750 2588 2665 
189 1317 2393 4035 1306 3503 446 5176 1762 
1970 343 5678 4843 5541 3368 4599 5300 5577 
5465 4370 5487 5488 4680 4714 4679 4630 4632 
5251 4807 4289 4004 4692 4658 5963 1202 2816 
5738 5598 923 4325 5117 1661 4015 3276 4844 
817 3721 3014 3135 5383 3995 1848 544 4739 
4473 4485 5569 5930 5212 5130 5745 2016 5969 
5321 4676 5937 3460 4190 5485 2889 1473 4198 
2976 4915 4583 4503 2047 2751 3843 254 5621 
6021 86 1763 4069 4115 5919 5743 2589 3405 
2825 299 4199 3848 5042 4173 6025 2788 828 
4348 5404 3316 5616 4012 4482 5726 970 4881 
3980 3420 4675 5658 1390 5083 3364 5863 5934 
5162 5503 2618 4197 5075 5074 4702 5878 4531 
5652 4815 4781 4885 5151 4998 4817 5998 3875 
5021 1795 1552 3000 2211 5204 5657 5276 2541 
2084 4728 4327 5793 4548 5148 4056 5392 3612 
3809 5538 4937 3918 5877 5961 3582 5987 4082 
4203 5916 4861 4300 5698 5133 5123 5287 5180 
5158 4639 4487 4651 5095 5731 288 4141 3888 
5272 4850 4180 5834 5604 4163 5463 5009 5140 
3623 5150 4671 5787 5174 3990 5285 5267 4477 
413 5989 3536 5542 4699 5831 4796 4886 5394 
5249 1609 4677 3694 3562 3884 4160 5113 5473 
5079 5252 4349 5843 3643 5994 2723 2193 4641 
5921 2907 5757 4806 3266 4617 3865 3651 2402 
2794 5835 5491 5374 5126 4978 4995 5640 5999 
5773 3889 4705 4221 5460 3133 4256 4908 5312 
4402 5931 4480 5821 5358 4683 5804 5073 4103 
4464 5202 6017 4582 4562 3180 4471 5458 2595 
5213 5045 2520 3849 5653 4295 3947 4022 757 
2866 3628 5626 1521 4647 2158 5436 2472 1351 
3523 967 4756 753 3844 1882 443 5036 4223 
1699 2399 249 4778 1815 5599 5490 3080 5596 
3079 5723 5462 4466 5760 4400 3124 4554 3329 
4970 3223 6007 4303 4709 2787 3347 4017 3308 
5515 5026 5421 4544 3869 5424 5048 5539 5823 
5142 4875 5552 3415 5316 4409 3819 4973 6020 
5377 3412 5366 5484 2208 5307 5432 2590 5993 
5356 1586 1701 1507 2643 2566 2162 4410 4099 
2381 2183 1279 2102 5579 3786 5667 3592 5118 
3751 1950 4130 1759 3301 1411 4929 5293 872 
3784 5 2479 978 3856 2451 3941 2846 2401 
101 2919 2834 5292 2380 4740 2809 3935 3283 
1998 2749 4331 5859 2187 4133 5372 4122 3653 
4746 5406 2992 3834 3129 4232 4943 3738 5282 
4700 4131 2853 4229 2639 2270 3804 2112 4033 
3741 5382 6001 5959 5902 5243 5849 4179 5851 
3250 4364 5833 3072 4462 5223 137 2131 2969 
5170 3361 3009 4271 4563 3955 4726 5873 3385 
2079 1506 3417 2128 5692 1120 2443 2921 3771 
4192 5702 813 2278 5870 3832 2813 4877 5912 
2042 4189 1926 315 3953 1647 2134 2684 2336 
998 1360 2353 1245 1204 711 2538 3509 2721 
2644 3195 5876 2891 1787 2457 2811 2049 3724 
543 700 3451 1695 2293 1869 2435 3670 3723 
791 5043 3769 2378 1652 3861 2617 2347 589 
652 2001 3059 5105 126 2542 3655 4556 4433 
3030 5913 5299 4697 4956 4220 4910 4747 4638 
512 5705 5426 5719 5910 3172 4358 5531 5775 
5948 5188 1965 3846 3672 2711 4818 4339 5782 
3381 3611 2728 4585 3219 4302 5979 39 5707 
1035 5336 2466 571 5327 4546 2184 2043 1474 
2498 2450 2632 4636 4226 1825 1755 3543 1361 
5250 594 3607 1924 42 2700 4005 3085 1716 
2556 3520 1739 2658 1809 2200 1160 1383 2127 
2716 481 2181 2578 696 3272 1366 172 1393 
1172 752 2038 965 1356 1090 339 3137 7 
69 1191 2681 626 1735 1135 1055 825 248 
3298 455 371 35 614 725 365 848 520 
964 876 558 5716 2585 308 781 5261 548 
1184 1015 1633 1853 3443 2550 737 400 2355 
4389 3342 2245 2912 1670 3529 3057 1056 2406 
3084 1909 2770 2054 3012 3035 1503 6060 102 
3852 2376 77 321 5398 5068 1900 6066 4819 
2026 317 1760 2954 1084 5918 579 108 5332 
2621 3610 4305 1938 4208 2145 2611 4374 2429 
2790 2493 3893 1239 1878 5455 3428 1889 3231 
2228 1551 1703 2761 1876 3119 3598 3265 4533 
1605 883 1598 2023 2273 2050 1258 1590 2928 
769 713 926 479 1334 96 310 1340 307 
2265 1358 1002 1684 184 1542 177 1560 348 
942 354 410 1216 130 352 1118 238 532 
1214 545 210 667 1259 1829 4280 76 1466 
2960 1910 1284 1192 666 2217 3192 2488 3321 
4932 3413 2436 5537 4204 2051 2568 4913 2910 
6024 5802 2063 4923 2640 4055 272 2343 884 
2926 1983 4767 3857 2150 1830 93 4259 2005 
4472 3890 3635 3470 3750 2724 3254 2906 3831 
1624 3157 1524 3257 763 84 1422 4233 692 
2561 2446 593 482 2391 1395 347 2798 3489 
4698 1432 2766 1385 2144 514 2306 250 715 
2527 1099 587 635 388 196 1167 27 937 
319 2404 461 521 279 122 431 1398 3356 
1186 4100 2622 826 1747 603 2972 4227 530 
2776 4606 4459 433 3058 3436 862 1693 1536 
2220 362 3625 3822 4020 4816 4901 2975 2692 
5633 5027 4944 2615 2935 5362 4329 2964 941 
1079 3541 3282 5612 3824 6049 4515 1943 3247 
1275 4049 4330 4338 5630 5769 2829 2675 1147 
4754 3508 2314 2756 1237 1427 1407 5576 3646 
5283 2986 5644 4504 2985 3076 5721 4693 1941 
2467 3979 1299 599 3779 5558 4738 2777 1538 
924 5812 4268 5911 3749 3505 3036 121 3810 
3647 5631 4394 5231 5033 373 5454 3590 5103 
3052 1077 4620 3985 5092 5226 5218 5259 3996 
5512 4993 5155 3046 5572 5330 2722 5764 4622 
5830 5323 4193 4934 5582 5242 5788 4497 4536 
6018 5722 5729 2563 4375 5022 5756 3962 4244 
794 3448 4589 3477 3627 2795 5568 3524 1554 
4368 4441 2641 5679 2685 5470 5901 157 3693 
3004 2570 1966 3348 2421 5697 4914 5253 4379 
3584 4673 2375 5771 4483 5818 3876 1682 5798 
3164 5094 4460 2092 3928 5674 4953 5884 4157 
3740 1956 4445 1918 4335 5254 5922 4972 5381 
1190 5974 3205 4990 5257 4234 5284 264 4763 
5817 4845 5958 1920 4068 5703 3015 5850 6038 
5214 2180 5933 3589 3906 2938 5011 5551 4725 
4694 5649 5403 2165 5439 3870 5112 5380 5806 
2146 1268 4753 2832 562 5221 1731 631 4949 
2584 2599 36 5414 5638 2305 4823 4799 3924 
3140 3958 5137 243 5210 10 2755 4838 3060 
5648 4275 3007 5942 3078 4991 2281 905 3528 
5585 3711 4601 3352 4757 751 5571 4442 5625 
2367 5239 4287 4479 2949 5438 4142 4912 4660 
3096 4247 4075 5892 4522 2804 4431 1717 4952 
1780 2734 5023 4615 5161 4870 4619 3664 2348 
5642 5125 4868 5749 4730 5501 5574 5143 4557 
5776 5746 4514 5171 5879 3145 2733 4071 1291 
4054 4093 5751 4894 4414 3925 5444 5694 2674 
5747 4788 3474 746 4423 5632 5401 4236 5790 
4959 3759 4175 5590 4011 3952 3063 5225 1504 
6051 4266 5661 5860 5832 2507 2942 4579 4736 
5334 2223 4332 5627 3291 5054 6030 4654 6036 
5622 2041 5405 5825 5464 4224 5100 5314 5279 
3569 3464 5178 2782 4918 3242 5409 1743 3138 
2601 2693 2412 1230 2823 457 2470 621 1660 
449 2349 4030 3351 5237 3840 2012 2317 1979 
2791 5361 1761 1594 5511 414 3331 1111 2933 
4397 3280 2308 3483 3211 2035 880 4532 4645 
2414 5534 335 5157 5837 5306 237 3475 5333 
3773 3258 3981 3930 5368 3604 5927 3355 1365 
1933 3671 4500 4541 3883 1865 4255 1557 3134 
944 2468 1149 5914 1001 5699 778 2929 5399 
4811 1435 1826 3878 992 5449 5219 741 3983 
5146 4007 3336 4827 4047 1104 5389 3561 4319 
5883 929 5689 2417 2185 1664 3684 5854 1639 
4611 2669 3867 5857 754 79 174 6009 2701 
4729 6011 2598 690 114 2652 3346 1778 3794 
4029 5450 1812 977 5676 5938 3975 4704 3354 
1725 4889 4048 4612 1370 6058 1705 1179 5853 
5795 4510 1281 4706 4463 5441 5712 3300 2594 
3130 5177 2827 4551 5115 1143 5736 3386 4469 
5256 2485 3227 3397 5523 4222 5964 4187 4831 
3424 3403 3141 5909 802 4846 3927 1808 2648 
3456 4604 3578 5205 4059 3426 4499 2072 2945 
4733 3920 4659 3159 2872 3270 1681 199 4524 
5845 5295 4372 1946 6003 2198 2011 3203 4684 
1801 2967 868 1948 2971 4241 1785 3602 2069 
6057 5245 5459 3660 2712 3944 5154 3154 4052 
4927 3001 3056 2529 835 4143 1806 5763 4025 
2856 2772 1583 1367 5521 4111 3315 4712 4734 
2303 1971 5163 3841 708 2740 3639 732 3295 
5266 4156 5498 2147 3982 2930 2785 3807 3828 
2108 3826 2531 4257 2800 4493 5128 3580 2506 
4917 1992 4003 820 2587 777 4243 3774 1346 
1610 5015 3111 2384 3596 5313 2219 1217 5080 
5990 4609 3720 1784 2855 5976 5153 2175 2680 
2667 1849 5502 4132 5029 1165 1544 4804 5578 
4770 3239 5655 3100 5078 14 1911 2248 2647 
1658 1786 1004 755 584 804 404 2213 152 
393 204 1318 1861 314 2916 6012 337 28 
1765 223 73 852 2580 801 515 29 1403 
379 5935 3160 612 734 2602 1802 324 1819 
1092 1766 1832 1867 2280 309 2656 1550 981 
4920 4792 58 1315 1100 24 1813 2080 1708 
2653 4014 1415 4023 5008 3452 3445 4274 5190 
2230 4196 5838 3482 158 1377 1461 5088 4841 
407 1702 4538 182 5602 1155 464 3573 3813 
150 2838 1082 5546 3139 1023 4720 2839 1980 
1330 505 3761 1273 651 2983 1161 1643 103 
771 897 1559 2060 1727 262 671 451 907 
333 568 1219 1561 1465 105 1480 472 1203 
681 1038 47 602 619 1271 286 325 370 
569 580 1438 2574 124 198 4783 3218 4094 
19 2334 4252 3389 2888 2646 5600 3903 5270 
5121 1754 4824 2817 3171 5753 220 5101 4751 
334 3696 2209 4404 5411 5733 1176 3972 3377 
3931 1384 2582 5309 3143 1618 1644 3462 5057 
5636 5175 1310 5939 856 3556 5923 224 4062 
4316 1234 4498 2061 1483 1134 430 3619 1329 
1158 1266 442 21 779 3002 1355 1654 2941 
1916 2828 2497 3457 764 112 3904 231 1287 
2142 1388 3614 142 1162 634 688 3099 729 
806 2764 5981 1579 592 4045 1487 4571 50 
1429 476 536 323 3275 2637 5108 2530 5952 
2132 3440 5518 4314 5344 4390 4072 4715 2923 
5651 1753 1758 1033 1475 1602 3853 6031 3921 
3467 604 1572 3728 3484 5020 2087 4760 1794 
5280 5002 4771 4428 5617 4066 4344 4588 3718 
1080 1127 2769 4449 3090 87 4396 1597 535 
3274 1615 2218 4129 4724 2294 1964 3756 2395 
816 5099 2947 5096 1226 3705 5086 959 2720 
5785 6055 4119 4772 5925 4852 5752 809 4194 
2820 2201 4506 3640 5047 4543 2841 5613 4623 
3593 5067 2269 2927 2885 5906 824 4906 4971 
3700 3535 4681 2333 5807 2133 3330 5882 2876 
5114 4167 290 4225 4413 4356 5320 4773 285 
3887 3742 4856 1529 4523 3829 2837 3527 3715 
3207 5709 1858 4429 3977 947 260 89 2670 
5693 1328 259 5988 3086 4707 3168 1573 3796 
2660 1076 5041 3307 3062 4661 4859 3657 4652 
4552 2275 5275 2029 2357 2424 5337 2845 5164 
1054 1496 4587 2575 5339 5136 5887 3044 4950 
232 4786 3763 4040 1264 4299 3946 775 6061 
5301 1207 4168 1423 1309 5967 3031 3314 3522 