# vtk DataFile Version 4.2
Generated by LIGGGHTS
ASCII
DATASET POLYDATA
POINTS 6000 float
-0.0217228 -0.0390965 0.00399985 -0.0230707 -0.0386248 0.0077361 -0.0254021 -0.0371409 0.00399968 
-0.0187293 -0.0381694 0.00665448 -0.019318 -0.0406395 0.00974391 -0.0182755 -0.0411252 0.00399917 
-0.0143028 -0.0425781 0.00399959 -0.0163007 -0.0418816 0.00739357 -0.0126982 -0.0395564 0.00731612 
-0.0126555 -0.0431382 0.00909278 -0.0158016 -0.0381029 0.00937896 -0.0124631 -0.0373377 0.00399829 
-0.010518 -0.0412851 0.00399992 -0.00682113 -0.0397587 0.00399971 -0.00951618 -0.0439937 0.00676737 
-0.00667543 -0.0445072 0.00399951 -0.00545484 -0.038207 0.00748884 -0.0089412 -0.0404052 0.00843816 
-0.00591493 -0.0446212 0.00839089 -0.00905383 -0.0371751 0.00608238 -0.00564522 -0.0412463 0.0105419 
-0.00306399 -0.0427889 0.00399919 -0.00294032 -0.0387916 0.00399978 -0.00209641 -0.0449235 0.00723935 
0.0039226 -0.0405313 0.00399808 0.00200844 -0.044942 0.00399975 0.00076808 -0.0417823 0.00611527 
-0.00239422 -0.0406542 0.00828842 0.00148144 -0.044961 0.00902624 0.00378097 -0.0395451 0.00786983 
0.000852263 -0.0375218 0.00401051 0.00132409 -0.0412555 0.0105214 -0.00279064 -0.0371393 0.0102746 
0.00438379 -0.0433502 0.00679665 0.00703057 -0.0444263 0.00399901 0.0109505 -0.0436336 0.00399961 
0.0113832 -0.038459 0.00399909 0.00792173 -0.040463 0.00399991 0.00897205 -0.0440837 0.0074788 
0.0103344 -0.0400075 0.00753382 0.00736394 -0.0412226 0.00992002 0.00724164 -0.0375814 0.00826933 
0.0105631 -0.037255 0.0105036 0.00540215 -0.0446698 0.0104314 0.0128525 -0.0431137 0.00747915 
0.0145483 -0.0418865 0.00399971 0.0183756 -0.0407259 0.00399967 0.0151731 -0.038121 0.00523027 
0.0166284 -0.0417952 0.00743488 0.0139687 -0.0390788 0.00892175 0.0180547 -0.037383 0.00924888 
0.020341 -0.0401325 0.00743236 0.021718 -0.0385293 0.00399926 0.0238153 -0.0381508 0.00738306 
-0.0305005 -0.0331014 0.00749789 -0.0320736 -0.0315521 0.00414239 -0.0336459 -0.0298006 0.00737651 
-0.0291839 -0.0290829 0.00792661 -0.0286159 -0.0335577 0.00399955 -0.0286099 -0.0295583 0.00399838 
-0.0274073 -0.035706 0.00714894 -0.0227882 -0.0341148 0.00406177 -0.0251723 -0.0311463 0.00528326 
-0.0227363 -0.0300576 0.00826265 -0.0265735 -0.0319473 0.00894276 -0.0211312 -0.0304734 0.00399991 
-0.0250423 -0.0362934 0.01032 -0.0220738 -0.033647 0.00989721 -0.0189366 -0.0351869 0.0039987 
-0.018444 -0.0346525 0.00853805 -0.0184099 -0.0309846 0.00694395 -0.0160898 -0.0323776 0.00399928 
-0.0131994 -0.0296134 0.00399923 -0.015553 -0.0358193 0.0060329 -0.0145196 -0.0316303 0.00761187 
-0.012991 -0.0352755 0.0090542 -0.0189269 -0.0295665 0.0106479 -0.012301 -0.0334251 0.00480899 
-0.011077 -0.0296063 0.00738888 -0.00806013 -0.0336959 0.00399991 -0.00960524 -0.0335864 0.00775913 
-0.00563325 -0.0340349 0.0076296 -0.00721624 -0.0305775 0.00886937 -0.00895369 -0.0296096 0.00399973 
-0.00497043 -0.0292507 0.00399915 -0.0118367 -0.0317943 0.0106491 -0.00964123 -0.0369767 0.0104243 
-0.0040926 -0.0331868 0.00399991 0.000896791 -0.0369159 0.00874226 5.30148e-05 -0.0336029 0.00399963 
-0.00189319 -0.0306286 0.00614976 0.00219089 -0.0320191 0.00724722 -0.00220545 -0.0357577 0.00649976 
-0.00110005 -0.0329052 0.0093404 0.00138297 -0.0298315 0.00399847 -0.00375952 -0.0285715 0.00902801 
6.57955e-05 -0.0291891 0.0102512 0.00461628 -0.036757 0.00512599 0.00434915 -0.0349106 0.00897169 
0.00453204 -0.0329014 0.00399991 0.00834674 -0.0358559 0.00399955 0.0118454 -0.0338991 0.00399918 
0.00849785 -0.0316485 0.00399991 0.00780722 -0.0337318 0.00734498 0.0118775 -0.0344654 0.00795755 
0.00956571 -0.0301466 0.00755527 0.0120879 -0.0299256 0.00438629 0.0184616 -0.0362069 0.00399969 
0.0154192 -0.0321032 0.00399827 0.0190609 -0.031991 0.00564646 0.0162373 -0.0346344 0.00698347 
0.0146414 -0.0315461 0.00896138 0.0163955 -0.0290437 0.00638197 0.0186898 -0.0326038 0.00958095 
0.0147149 -0.0355144 0.0105754 0.0210986 -0.0352425 0.00778357 0.0256199 -0.0369439 0.00399991 
0.021973 -0.0342928 0.00399894 0.0257371 -0.0329422 0.00399861 0.0285051 -0.0347639 0.00623654 
0.0227504 -0.0305365 0.00513129 0.0271529 -0.0307469 0.00702626 0.0250355 -0.0340965 0.00810974 
0.0232611 -0.0306514 0.00909658 0.0289089 -0.0344147 0.0102003 0.029611 -0.0316381 0.00399963 
0.0333367 -0.0302337 0.00437856 0.0312929 -0.0323317 0.00775529 0.0343371 -0.0290415 0.00875943 
-0.0367984 -0.0222037 0.00759849 -0.0355909 -0.0234622 0.00399947 -0.0362429 -0.0266446 0.00633279 
-0.0331735 -0.0277093 0.00399981 -0.0297077 -0.0257129 0.00399895 -0.0317684 -0.0222849 0.00399971 
-0.0321702 -0.0254417 0.00713849 -0.0333257 -0.0224783 0.00956294 -0.0303528 -0.0208382 0.00744939 
-0.0362889 -0.0264117 0.0103255 -0.0282203 -0.0242214 0.00739793 -0.0229856 -0.0259378 0.00399864 
-0.0261977 -0.023436 0.00399991 -0.0233206 -0.0241169 0.00754319 -0.0260592 -0.0273415 0.00613779 
-0.0217551 -0.0221324 0.00399974 -0.0257896 -0.0281813 0.0100392 -0.021155 -0.0262055 0.0101786 
-0.0259902 -0.0209638 0.00803534 -0.0202575 -0.0274668 0.00649083 -0.0170819 -0.0281511 0.00399991 
-0.0136447 -0.0229451 0.00399991 -0.017597 -0.0238201 0.00402322 -0.0141419 -0.0263297 0.00607786 
-0.0154229 -0.0228544 0.00758542 -0.0199893 -0.0221017 0.00845638 -0.0173691 -0.0260945 0.00889268 
-0.0139721 -0.028052 0.00968385 -0.0129908 -0.0238882 0.010588 -0.00971119 -0.0256758 0.00399989 
-0.0106282 -0.0256644 0.0078933 -0.00715854 -0.0272357 0.00667265 -0.00798425 -0.0227384 0.006095 
-0.00899875 -0.0226682 0.00998178 -0.00459698 -0.0231065 0.00399989 -0.0116522 -0.0215806 0.00719229 
-0.00495852 -0.0212761 0.00906535 -0.000600482 -0.0232666 0.00399932 0.00243431 -0.0258786 0.00399987 
-0.00157446 -0.0271428 0.00414066 -0.00405795 -0.0248666 0.00755079 0.0025818 -0.0280365 0.00736421 
-6.21104e-05 -0.0250408 0.00754314 0.00317538 -0.0219483 0.00399878 0.00309627 -0.0226193 0.00794058 
-0.000287435 -0.0210599 0.010594 0.00533242 -0.0288652 0.00400181 0.0062815 -0.0244668 0.00399914 
0.00905532 -0.0273475 0.0039997 0.00620486 -0.026351 0.00752568 0.00917576 -0.0238082 0.00667969 
0.0117514 -0.0268572 0.00692899 0.00651286 -0.0231863 0.00995215 0.0093284 -0.0260344 0.010003 
0.0104416 -0.0211194 0.00399991 0.0123847 -0.0235968 0.00915627 0.0198453 -0.0278656 0.0039989 
0.0144481 -0.0264897 0.00399901 0.0141979 -0.0224958 0.00399991 0.0178555 -0.0243962 0.00401072 
0.0200526 -0.0285694 0.00792972 0.0160285 -0.0238138 0.00752084 0.0146692 -0.0274223 0.00960513 
0.0202519 -0.0245763 0.00803251 0.0205299 -0.0208164 0.00669815 0.0261453 -0.0283234 0.00399991 
0.0221008 -0.0233145 0.00399917 0.0230996 -0.0266438 0.00597721 0.0255674 -0.0210486 0.00399945 
0.0273024 -0.0245445 0.00487334 0.026611 -0.0269114 0.00802216 0.0244279 -0.0230908 0.00724407 
0.0231398 -0.0265469 0.00997573 0.0268547 -0.0227265 0.0104017 0.0304379 -0.0268679 0.00399863 
0.035882 -0.0271718 0.00399966 0.0303581 -0.0284438 0.00767287 0.0298715 -0.0244217 0.0083969 
0.0301094 -0.0218322 0.00399966 0.0339501 -0.0229486 0.00399859 0.0332066 -0.0258151 0.00668552 
0.0323091 -0.0214394 0.00731904 0.033535 -0.0239311 0.0101979 0.0384807 -0.0231091 0.0039999 
0.0371197 -0.0251016 0.00719011 0.039281 -0.0218496 0.00805686 -0.0423518 -0.0151023 0.00399991 
-0.0381883 -0.0158691 0.00399917 -0.0408331 -0.0189354 0.00399991 -0.0403894 -0.0161865 0.0073231 
-0.0402273 -0.0201548 0.00779246 -0.0393877 -0.0125755 0.0059259 -0.0430294 -0.013185 0.00746079 
-0.0370755 -0.0189597 0.0099455 -0.0402844 -0.012486 0.0102843 -0.0365907 -0.0195532 0.00399991 
-0.033805 -0.0166596 0.00399991 -0.0304118 -0.0164427 0.00614477 -0.032936 -0.0136215 0.00743432 
-0.0340474 -0.0193306 0.00717985 -0.0361809 -0.0159591 0.00745692 -0.0321949 -0.0168295 0.0097041 
-0.0293306 -0.0140477 0.0094705 -0.0288804 -0.0194508 0.00399943 -0.0288675 -0.0133882 0.00399992 
-0.0248856 -0.0196433 0.00399928 -0.0248904 -0.0138094 0.00399877 -0.0264266 -0.0167472 0.0062871 
-0.0224813 -0.0192506 0.00717067 -0.0227969 -0.0152651 0.00707881 -0.0283321 -0.0180901 0.00953735 
-0.0255559 -0.0152513 0.010018 -0.0207036 -0.015359 0.0104848 -0.0184595 -0.0198659 0.00399991 
-0.0152982 -0.015782 0.00399867 -0.0152387 -0.0190924 0.00624174 -0.0198354 -0.0154882 0.00399991 
-0.0161399 -0.0147212 0.00776096 -0.0188146 -0.0176614 0.00731879 -0.0162901 -0.0190569 0.0101005 
-0.0196477 -0.0128271 0.00744364 -0.0125428 -0.0164603 0.00758323 -0.0136617 -0.0124414 0.00991736 
-0.0136128 -0.0123567 0.0057566 -0.0119291 -0.0191882 0.00399913 -0.00794255 -0.0190997 0.00430351 
-0.0113493 -0.0151466 0.00399926 -0.00864135 -0.0160535 0.00679934 -0.0050188 -0.0175883 0.00751968 
-0.0059377 -0.0139418 0.00887981 -0.0103411 -0.0189031 0.00985866 -0.0100496 -0.0141548 0.0100255 
-0.00574973 -0.015584 0.00399987 -0.00777202 -0.0123996 0.00532965 -0.00148107 -0.0205614 0.00681013 
-0.00395545 -0.0191587 0.00399889 0.00281587 -0.0152486 0.00399934 -0.000991041 -0.0164742 0.00399988 
0.00203274 -0.0186519 0.00595273 0.000240029 -0.0160776 0.00843248 0.00339622 -0.0190369 0.00969303 
-0.00230601 -0.0131741 0.00739272 0.00218259 -0.0128356 0.00712498 -0.000291794 -0.0125333 0.00399847 
0.00412677 -0.0128431 0.0106195 0.010462 -0.0170415 0.00399991 0.00622778 -0.0193638 0.00400012 
0.00681211 -0.0154068 0.00399958 0.00478364 -0.0160839 0.00737972 0.00939075 -0.0142114 0.00729705 
0.0121285 -0.0128859 0.00990337 0.0176082 -0.0204047 0.00399909 0.0143039 -0.0181521 0.00399856 
0.0140811 -0.0141595 0.00399939 0.0136608 -0.0202818 0.00732075 0.0128403 -0.0162319 0.007187 
0.0195569 -0.014551 0.00399987 0.0174497 -0.017104 0.00625172 0.0179148 -0.0133103 0.00742949 
0.0173091 -0.020058 0.00894413 0.0192226 -0.0164122 0.00976928 0.0149438 -0.0162579 0.010588 
0.0281911 -0.0202456 0.00713003 0.0215186 -0.0180361 0.00399925 0.0276128 -0.0139785 0.00399988 
0.0236379 -0.0135325 0.00399968 0.0253248 -0.0171474 0.00484565 0.0219221 -0.0145753 0.00745897 
0.0260612 -0.0143989 0.00766228 0.0329978 -0.019044 0.00399944 0.0360618 -0.0203664 0.00620393 
[...]
POINT_DATA 6000
FIELD FieldData 7
id 1 6000 int
313 5420 5739 5573 6059 5943 5227 4682 5724 
5639 3212 3325 5662 932 5904 1128 2569 4775 
5827 5081 3568 3326 3974 2522 5949 5085 5514 
4984 4986 3559 1540 4134 3306 4534 3152 6035 
3633 4326 3338 3148 4116 5152 5527 4586 3506 
709 5668 2313 1692 5792 4825 2554 5415 1558 
2513 5684 3839 2677 4388 143 5052 5318 679 
5363 471 3039 3521 5346 1152 3313 4006 5932 
4456 3421 5875 2625 6037 2878 6027 4744 5156 
4312 5328 1659 4000 3032 4928 5093 3737 5565 
5347 1874 302 3390 5481 3054 6023 5672 5607 
4829 5610 5350 5710 3820 5528 5410 3864 1999 
5944 4422 1640 2742 5016 5145 2160 5340 3795 
5561 2416 1954 3217 2970 119 5452 3144 1030 
4347 2300 3799 1846 2206 3208 4371 3702 2586 
135 767 537 4124 2418 4128 4074 1903 2122 
3534 4590 5217 3471 4026 3984 4703 3 3216 
5794 4768 1962 5929 5097 3387 4106 4206 374 
3833 2014 2623 5584 3335 4782 4896 3714 5592 
1154 2066 5241 4446 2508 2638 3069 5385 2037 
1363 1771 4183 5730 2581 6016 2864 4743 4790 
3236 4090 5003 1484 4399 2226 3706 4031 5526 
5618 3319 3970 2715 4966 4238 4502 3515 3018 
5391 3703 744 5686 1940 5203 4567 5365 976 
1445 117 1261 1588 4569 1345 452 2410 1449 
1078 1546 1691 1376 1277 850 649 4649 5402 
4853 4777 574 4600 49 3938 2101 2920 525 
5229 2984 3558 5856 710 4060 4087 6043 531 
5303 2536 5005 5545 5529 5701 5977 4939 3006 
18 5304 4297 2609 34 5848 4123 5665 5605 
5281 4465 4439 1439 5325 6010 2222 4737 4136 
1774 1601 3553 2886 1007 1777 4451 5741 4127 
4104 1256 3345 131 6064 4412 3081 5364 5222 
5024 4380 4561 2159 5740 4357 3881 2453 1690 
3507 5166 3873 1937 4581 2199 5588 4695 5891 
2490 2432 292 2477 869 252 3184 4046 1240 
4249 2338 2990 1074 278 336 1523 2363 1456 
2327 32 638 1715 1093 3968 268 499 4362 
2036 1776 4088 1371 5106 38 4202 3416 5194 
3923 2020 3961 5557 774 5451 985 4553 4570 
1088 1939 4405 2358 3731 1891 3075 3120 2626 
5728 1650 3324 4042 5962 3102 3373 5322 4821 
5956 4935 5813 5423 1323 4359 3013 403 3994 
4674 3957 2316 3350 2905 1397 3479 4013 1721 
4363 3260 1293 3954 3709 3359 3777 855 4212 
4240 1098 3948 5373 2666 2129 2430 4309 2227 
2922 3305 3588 2059 484 1419 358 2510 1934 
2423 2387 3544 3939 3685 500 2512 2863 2883 
608 1722 1782 1945 2606 1953 3641 1336 48 
62 1401 421 552 63 3066 466 1872 3098 
474 1741 5298 529 502 988 935 468 71 
622 3453 870 720 402 660 5846 2810 5265 
4284 2850 165 4080 2867 364 396 2339 274 
1584 1630 5500 247 2329 3933 1732 1354 5586 
426 2310 1372 209 432 257 565 2843 582 
5680 3040 1767 1347 470 2612 664 609 1228 
3753 1885 1236 5478 4382 2998 3220 3459 2114 
4350 78 2251 2331 3726 2392 1636 3161 4610 
2420 2732 5486 3185 2229 2013 2337 2505 2553 
2136 796 3022 2113 1606 2326 2744 3542 3210 
4608 4155 4507 1505 1311 2356 107 2263 2478 
3410 691 2052 2663 2099 234 2105 678 2292 
1072 1790 3020 3340 2094 1307 88 397 330 
857 45 2781 1044 740 984 2452 30 1628 
840 517 952 171 1011 1462 162 441 1108 
758 1180 1534 508 640 616 153 311 214 
1129 1440 440 1645 383 341 1272 408 576 
1637 1046 2754 1576 3595 211 2704 208 639 
2768 1305 1698 3758 72 2517 997 3071 459 
4139 44 5393 2650 3010 2379 4789 3494 4867 
3388 1687 2257 1612 5890 181 4924 2968 4616 
2118 1859 3837 3153 3366 3579 3583 3910 4946 
3511 1269 3110 2748 2636 3246 4755 3546 3501 
1770 2022 1039 762 916 1959 3093 3915 353 
1060 2385 1426 2104 2071 1525 1052 2328 427 
906 1944 1420 1570 3399 2015 3406 3815 1126 
1421 1037 2691 4184 1831 2366 1177 2987 1424 
1246 1850 680 1267 236 2686 164 2778 590 
133 1490 420 1215 851 1887 1034 795 1749 
572 61 2844 1168 2709 2403 2915 1514 2659 
5050 399 1961 4032 2290 2629 5583 1949 496 
4909 4668 3793 5182 3677 4837 3530 4893 4810 
4678 3855 4883 2560 5524 2875 5040 4722 4436 
175 2447 2965 2974 4341 4037 1768 1757 3434 
3599 6002 3393 3353 3201 5549 2944 3165 4655 
3292 5091 893 647 549 1648 4293 3433 3262 
2302 4352 887 3087 3600 2900 3775 483 3249 
55 5543 4453 2311 2383 3068 5855 1300 2583 
1932 3431 900 92 1304 1164 418 194 132 
2117 1320 1816 2814 853 2064 258 3665 2400 
456 2283 2077 3963 1069 2515 5815 3408 5495 
3166 3900 1907 4188 6006 60 2699 3369 2731 
4948 3432 636 3988 3552 3101 2097 2264 583 
4603 2044 4670 4152 3661 2687 5357 4555 5264 
2835 2076 1545 4270 3594 146 3788 3234 4261 
386 4213 2902 1713 3897 6046 5725 5780 2979 
5104 3005 2642 1805 687 4701 4965 3444 2120 
2895 2249 2799 993 3023 3367 2797 3514 1136 
5742 1211 2256 367 387 895 5419 5367 1520 
2289 2111 4592 5982 4307 4791 2514 546 1047 
2869 229 4667 3545 4258 5786 3679 4796 5847 
1569 3162 5447 2276 5620 4354 5984 2266 1614 
4526 3322 4933 3450 5119 4432 4277 5973 3089 
3898 3427 3383 3333 4635 4077 4334 3512 2676 
5550 1528 5139 4158 4748 1024 5342 2462 4034 
3288 3411 242 910 3107 540 5819 5032 3517 
357 4360 412 3566 2151 4086 3825 2427 1333 
4752 4411 4373 6040 5663 3586 5706 3922 5768 
5302 4315 5260 3616 5416 1396 5822 5759 4809 
4361 4501 5359 6014 1680 5051 5685 2645 2714 
5556 4826 1020 4687 5972 2890 3736 3986 4869 
2386 4578 1773 3575 5063 1110 5482 2786 2307 
6013 642 5801 3332 5246 2360 4595 1972 966 
3905 5497 5124 20 3449 2451 4466 3382 2216 
4365 3455 5297 3882 3668 5808 4447 4970 4209 
4321 6029 2008 4153 473 4761 3699 4709 3847 
5186 4749 4969 5167 4140 4723 4919 3281 6032 
5421 2344 4406 3112 3785 2702 4766 3603 1183 
5013 3224 3691 5215 3320 4366 2590 5767 1042 
5681 5207 1006 3880 5072 68 2287 4662 3547 
2981 4437 2390 5777 2413 5673 2168 878 4862 
5755 5579 1815 4624 3237 3560 1031 429 1922 
2479 4073 270 5236 2019 3458 3363 542 1625 
1990 2353 2846 3827 4272 3902 4484 3730 3132 
3733 4740 1998 1479 969 5691 3710 3892 4942 
3949 4174 4304 5957 6047 4509 3531 4762 4719 
5483 4427 3539 5536 5811 1417 2784 5841 2939 
2078 4340 6004 6008 5461 4322 5255 745 3194 
2268 5744 4803 195 3783 5839 4977 3072 2195 
3803 2137 2178 4858 5867 5395 4296 730 2792 
226 1489 2079 4563 4130 1410 3485 4716 3786 
2763 2128 5667 872 1950 1656 4929 4010 5293 
3784 2149 1053 2173 960 1827 1574 1492 930 
657 1733 1926 1294 902 2000 2192 294 2237 
2277 1245 2233 4718 2346 1890 2698 543 2457 
1181 1947 493 281 139 632 4982 5645 4434 
3418 3576 4353 1668 5504 3587 747 5852 5059 
4689 4267 5718 4892 1123 4151 2261 361 2148 
5189 1837 5055 3447 3692 5014 1565 5244 4195 
5442 3801 2422 3378 1977 2433 5696 1392 4805 
4836 5448 4565 3965 4880 2988 5708 5390 1199 
6048 2874 1062 1087 5138 6065 3717 3417 5953 
5908 3461 2285 3425 3255 159 113 3942 1506 
3606 3874 4454 504 5770 4988 4192 5762 4877 
813 4002 2738 4254 2881 3251 2469 3229 2836 
3048 1710 2491 1115 1810 1254 2340 3473 2877 
2018 1021 842 948 684 1706 570 1193 1197 
56 128 2444 316 3269 244 810 2894 519 
1619 1883 6045 6053 3791 435 5695 4602 606 
3549 235 1013 738 654 3311 4954 2135 1914 
5936 178 350 5181 5348 3375 3991 3414 5915 
2746 1539 628 5499 4461 3781 3872 2434 5489 
1955 5864 1737 2840 2688 4147 3478 5278 3997 
4424 4021 3362 5192 2284 4904 4627 5336 5650 
5555 4165 5951 2822 2649 5634 2943 2042 5294 
2767 1764 4125 4940 3446 3128 3745 2870 2481 
4053 4091 3617 3470 3309 3999 2493 2620 4691 
3065 2335 1448 2696 3838 1163 2428 1694 498 
707 2977 1641 2062 2389 3008 2537 66 1 
789 434 1141 297 1288 528 251 2775 550 
329 123 170 145 118 2109 1071 1189 5224 
377 522 694 392 98 301 1066 217 858 
81 1930 1512 1600 1472 659 1631 275 938 
477 1045 1632 1607 2603 1352 1331 1063 5700 
4376 881 1905 2982 4478 4320 3136 1871 2896 
2156 2431 2107 1751 1242 3776 3632 4879 3712 
1697 1935 5995 5061 5886 2362 1820 2496 2613 
4486 3435 4228 2758 1493 3659 3652 3151 4559 
4854 2006 3636 3193 3812 4528 5386 3240 1723 
318 3707 1124 1524 4120 885 3177 3209 1450 
6034 3173 800 3885 1012 773 2924 4549 75 
822 2807 2459 2032 17 166 963 701 2577 
1218 1458 2591 812 136 2167 896 2095 1223 
1709 1171 266 864 1016 444 306 368 538 
849 173 1362 560 1446 381 390 129 890 
1182 338 490 513 2879 1221 1730 575 2555 
1886 2654 4191 797 3045 245 5135 2897 1374 
2130 26 3323 3798 3681 4448 2999 4685 3103 
2842 485 1563 2739 4298 986 3297 2958 3238 
4727 2860 4849 3548 1845 1901 4628 5147 2934 
2369 4784 994 4999 2865 3667 95 1247 4658 
3380 4717 4418 2993 3811 923 1617 4566 3806 
3037 4613 1803 3398 4217 1603 3895 1848 5945 
4351 1018 3540 2821 2608 2545 2110 4508 1653 
3334 2190 5173 1667 1531 4126 3357 5066 67 
518 4798 4169 1642 656 859 3304 100 1923 
2398 5082 2501 2345 3662 200 1378 663 524 
766 1913 1792 4245 3245 1325 1195 2961 267 
2523 5084 2325 620 2861 5090 2857 4872 658 
4392 160 2081 4391 5560 4745 4159 4114 3469 
4597 4403 3328 3391 3518 2780 4078 4450 3481 
4276 4170 2579 3279 4519 4015 5598 4492 2242 
1611 5963 3680 2816 5738 4325 3014 3934 2057 
4844 817 5383 3721 3995 4739 3678 2760 1877 
4891 1049 5569 5212 5130 5745 2016 5496 5185 
3041 5930 5937 4485 950 5485 5881 1473 5575 
2727 5758 2852 3868 4190 3843 2341 2683 2751 
2519 940 3463 1679 1791 2299 31 3038 1028 
863 601 254 3396 2161 4513 3028 961 4690 
127 15 40 4926 2705 1818 3226 3082 3747 
3466 611 4591 2940 3615 2393 2543 3364 4306 
4517 4138 4876 5007 5300 2950 5422 4680 3585 
3017 4714 4817 5117 5151 5201 4998 4273 4146 
6044 6069 5637 2295 1795 3875 2211 3135 5021 
5351 5428 1856 4529 5276 1552 2084 5657 2541 
4728 4799 4118 1857 4839 4056 5193 3612 5148 
5538 1609 2729 6052 6063 478 3460 2789 3290 
4629 3809 5987 4082 903 1673 2352 4264 2454 
1689 2258 13 2708 299 6025 1627 4176 2116 
3998 1399 5184 1807 2884 1535 5417 5896 4573 
1308 4381 4470 4865 3908 417 2549 5200 1017 
5781 2737 3967 4886 5776 5394 4677 3694 4548 
4160 3562 5171 5879 5249 4317 5248 2880 4937 
3884 5113 5986 5473 5079 5843 4596 5234 3850 
1225 5331 6000 4164 4489 3719 4813 2723 4108 
5392 3656 2593 5897 3189 3805 2103 2655 5868 
4983 5615 4899 3762 4474 2962 3919 3186 1146 
4019 1121 637 5430 3327 3950 3285 4683 3223 
5732 5358 4464 5202 5804 4562 5515 3725 4582 
5828 5073 4103 6017 4471 3180 5213 2520 3947 
4295 4022 2782 2693 2601 5458 2595 3849 5653 
5045 5626 1521 2158 757 4756 3713 2412 753 
2472 5436 2866 3628 3844 3814 1882 4647 4223 
1699 1351 5036 5874 5599 5490 2399 249 3211 
4778 5596 3941 4400 3124 3475 2380 5760 3347 
3329 6007 4554 4303 3930 5859 4017 3308 3981 
3354 5026 2787 5048 5539 3869 3671 4544 4541 
3129 1865 5424 4875 5823 5552 3415 4500 3653 
967 5316 3819 5366 6020 5377 5307 4409 5914 
5399 4811 5432 2208 1586 5484 2162 4410 1761 
2929 2566 3080 443 1279 2381 5993 2643 1507 
2035 5511 5534 5723 2102 3751 3079 4319 880 
5883 2414 929 5306 5462 237 3953 2684 2919 
101 3856 5292 3509 978 3346 2401 2652 5450 
114 2134 3935 3283 2187 2834 4331 3451 5938 
4704 2749 5154 2891 2809 4746 4122 4133 2992 
3975 6058 5142 1725 5853 3021 5282 5406 4973 
4232 2270 3883 4131 3412 4700 5441 4943 5127 
5382 2853 6001 3250 5243 2639 4364 5712 1701 
5903 5902 2131 5849 3361 4271 5851 3983 5356 
137 3955 5873 2969 4099 3009 4846 5118 2183 
5692 1808 1664 2185 1639 4611 3301 1759 3592 
1411 3867 5854 174 2669 79 4729 754 2408 
5 6009 971 315 3607 1482 1924 42 3085 
1647 1360 1204 711 1160 2721 2538 2716 2644 
5876 2556 2336 2700 700 2049 3724 2293 481 
1695 1393 1787 172 3602 3195 1869 5372 3861 
3834 2811 791 3769 3670 2617 2435 4143 1806 
4025 2347 5290 3723 5043 3738 2001 4229 652 
5105 126 3655 4556 3690 3230 5134 4721 3741 
4433 5913 4179 3804 4462 5564 2301 5440 5959 
5719 5170 4308 4697 3030 4220 5659 1847 788 
5223 4726 5910 4358 3927 4818 3920 4059 3385 
5209 2443 4499 3426 2945 5782 3456 3771 2278 
1120 2921 2072 4524 4733 2872 5295 2043 1681 
5702 3832 5870 5845 4189 199 3203 2297 2611 
2145 1746 2790 4005 2429 3893 1716 3428 5455 
4374 1239 2200 1889 2127 1383 3231 2228 2181 
696 2761 3265 1366 883 2578 1172 3119 2050 
752 1165 965 1356 1273 3100 957 918 979 
3137 265 7 2038 2378 1135 1090 69 4605 
1145 3492 1652 2460 706 3059 339 3298 35 
917 4888 3913 5711 216 4741 1065 4956 248 
5299 876 5238 629 3932 2524 4511 4095 520 
4910 3172 1015 3846 5563 1982 3019 1707 3454 
4389 1965 5531 4339 4828 4585 3672 2355 3219 
2711 39 5979 2912 2728 1646 2024 2466 3159 
5707 2770 2184 4302 1474 2450 5327 4636 4546 
5912 4226 571 1825 1755 2813 3543 2498 1361 
3750 3635 3254 2906 3831 3157 84 2724 3598 
1551 1703 3257 1876 4533 2561 1427 2446 763 
2023 567 1605 1258 2391 1590 769 430 1598 
2273 347 1432 646 1022 1334 1562 713 926 
2265 310 1002 843 507 221 2 1139 748 
1436 1684 1191 479 184 987 1339 188 867 
1232 673 455 352 558 951 282 241 641 
91 401 1184 682 964 1027 1257 1259 2793 
1828 1437 904 1568 3682 726 2236 2959 1670 
3342 3084 1686 1655 2503 2480 1909 3012 1503 
3192 3026 723 2054 2376 321 77 2640 3035 
1900 272 6060 1736 4759 2026 1760 317 2954 
5398 1084 108 5332 4754 1147 3508 1407 2756 
1422 4233 1237 4504 2218 692 273 482 4698 
2766 1395 2798 5283 3646 4200 3489 721 516 
3094 1843 2144 1385 250 715 2306 865 514 
1491 380 1095 1400 1243 96 1527 635 43 
1369 1000 366 1070 348 328 1103 1817 983 
551 2631 1010 3851 1471 2911 1005 1738 2182 
886 2600 1043 2217 149 1711 2635 1958 742 
4711 1249 2051 4452 3649 2202 4205 5110 1799 
3296 5006 4239 3570 5802 5070 718 2365 4398 
4055 5918 2231 5445 4512 579 3857 1312 2150 
2552 2314 1202 1661 3627 1554 4368 5679 4429 
5568 3276 2641 3348 2685 2421 2610 5901 5576 
2985 2570 5818 1682 4793 4914 599 3400 3502 
3076 3442 5721 2467 4693 1941 3979 1556 3675 
4584 2073 2995 676 4738 2535 5558 3581 559 
4098 1798 2235 1188 1991 4135 1724 2262 3779 
2197 27 385 1969 298 1864 3780 23 4057 
2475 2511 927 1855 874 1526 674 5664 5566 
3126 2665 1750 3859 2633 4035 4857 3993 3317 
2324 3503 446 3243 3064 4842 4269 5968 5541 
4614 2753 4458 4081 4342 5487 4370 5965 4931 
3626 3235 5641 4780 2719 5315 4851 4004 2795 
4441 260 5470 3524 2146 4473 3693 1268 4753 
2832 1966 2599 36 544 5204 157 5697 2375 
3004 4949 2305 243 3787 5195 4676 5321 5253 
4379 4673 4483 3876 2868 2889 5969 2976 3584 
4915 4503 3164 5094 5919 1763 5621 4198 86 
4583 4664 4069 6021 4173 4345 2589 3405 2825 
4199 2499 3848 5042 4335 3052 3551 828 2788 
1621 4348 5404 2588 189 3316 2955 970 1317 
4482 3368 3409 1306 5726 3420 1762 5176 4197 
4599 4781 5863 4679 5503 5577 5162 5251 5465 
4885 5075 4630 4632 4807 1731 5998 2584 4514 
5751 562 3000 2733 631 5746 4823 2904 4894 
5035 5210 5221 4093 4327 3140 4838 5793 3958 
3007 5648 3924 5137 2755 5877 3918 3582 2047 
5961 5123 3060 4275 4788 5942 2092 5585 5916 
4861 4203 4651 5133 5698 4300 1851 5743 5287 
819 5158 5180 4141 5731 4442 3888 5272 4180 
4850 4012 5834 5604 3623 5463 413 5989 5009 
4881 3980 5150 5787 5174 5542 4699 5934 2618 
3536 4815 5074 4071 5401 3145 1291 4414 5444 
746 4054 5747 5632 2674 5694 5252 4349 3643 
2907 5994 3651 3925 4175 3474 4011 3759 4641 
5835 2193 5757 3865 5921 4806 4617 3266 2402 
4959 5773 5374 1662 2794 4639 5491 4487 4221 
5126 4978 5095 4995 5999 5296 4705 1906 2726 
3889 5140 5460 3133 4256 5312 4480 4671 5821 
5314 3569 5368 943 5279 3464 4918 3242 1743 
4575 5409 3901 5966 3104 5178 2470 2823 1230 
4776 1059 1660 1068 4808 2009 3138 457 1119 
3351 4030 2012 4050 449 3131 3790 2349 1979 
2791 2317 5361 3523 1594 5237 3840 4397 2170 
5628 3200 807 2075 3331 3267 3280 414 5116 
2308 3483 4822 2796 192 4532 335 1144 1778 
3374 497 1547 5333 3773 4889 3604 5388 5927 
5885 1459 4440 3258 3355 2458 1064 1933 1365 
944 4255 2468 4871 2657 5623 3754 3134 1700 
1557 3259 1149 300 5789 5898 996 3365 1001 
1826 5699 992 778 2504 1453 1811 5289 3878 
1435 4007 3336 4047 3441 5611 3465 1929 230 
5219 4827 2417 5689 1111 741 3836 2918 2489 
5352 2933 2085 5157 5837 4645 3684 1349 5803 
3987 487 5258 1416 4063 187 462 998 1801 
1948 4241 5676 2598 3794 1812 2967 4248 1785 
1677 690 5507 3204 1578 4029 4612 2948 977 
5506 503 228 2370 2382 2662 770 4048 1580 
1705 743 4463 1917 448 915 4672 25 4510 
3650 1370 2234 1179 5065 1380 3300 3130 2112 
1281 5795 4551 877 2030 1989 1143 1995 4855 
2937 3386 2485 5177 2594 5523 5449 5034 5928 
213 5146 4187 5736 5256 3141 4831 4222 3561 
1775 1282 3424 2648 5389 802 1963 4663 1104 
2309 973 1683 4864 304 4285 5513 5971 4383 
4420 5905 5857 5494 4547 4516 2354 980 792 
1942 4642 4527 3042 2701 5169 1739 3520 2971 
4132 5502 2372 833 2175 5029 5245 868 2069 
6057 5153 5578 3660 1544 2712 2779 4214 3154 
3944 4927 5078 5459 4770 2529 3735 2272 5655 
4052 1004 1583 4963 5763 3001 3601 233 3056 
835 4033 4111 2856 2772 1870 4747 5521 5163 
4469 3315 2827 2106 2303 3767 3397 2740 512 
3227 5833 5705 4638 5266 3841 3122 5775 3403 
5964 4156 4604 5909 4257 3982 3964 2785 4646 
3578 4659 3828 4493 5205 1992 5128 5220 4367 
4101 4378 3270 4003 3596 416 5206 703 4162 
6011 2397 1946 2198 4372 1919 4684 2011 6003 
1296 1809 5602 1849 1624 182 1155 2667 150 
3813 1878 2658 4804 3272 5546 2680 1980 2839 
1330 3573 3003 3139 1023 2983 167 505 651 
2093 771 1658 1911 1735 2248 755 14 152 
1616 589 3011 584 2647 626 1055 2681 204 
848 804 2213 2916 1971 614 314 1367 5261 
2542 371 1318 223 4712 1765 732 801 5716 
3443 781 2550 5948 5426 708 73 3160 324 
3295 5188 2245 3381 5498 3807 2108 2147 2800 
2506 3611 102 1867 3826 58 2531 309 1100 
4243 1346 1035 3774 4917 1813 2587 3111 2384 
5015 820 5250 2632 594 5080 1610 5990 4609 
3720 3445 1217 5603 5057 3462 4316 5636 5175 
856 225 3090 398 1134 2769 4062 5923 4720 
224 593 3761 2061 1483 4498 1486 2928 1329 
1158 1266 1161 103 779 1559 404 1358 1340 
442 897 2060 1561 1727 1643 206 393 451 
671 825 365 307 942 568 333 1219 410 
1465 1542 725 308 354 1214 1038 548 667 
238 545 602 2602 2585 1853 76 737 1829 
210 1284 734 5935 400 1633 1466 1056 3413 
1910 2280 3057 3529 612 2488 4094 3852 2406 
1315 2656 1754 5068 884 1415 4819 2063 4792 
4014 5101 5008 4023 3452 334 3610 4305 4259 
1938 6066 2621 4208 1377 5838 158 3482 1461 
1784 2296 1127 1858 1080 5709 1597 4449 3274 
1290 990 4385 4396 87 1234 535 4129 1355 
4027 5983 2373 759 3619 5644 21 2395 112 
2294 2828 724 1099 2527 587 1654 1916 2941 
2497 764 1388 1216 1560 196 319 130 231 
1480 461 1287 2142 2404 177 532 388 122 
431 279 1186 937 1398 634 603 1747 3356 
688 1118 530 2960 2776 4606 1693 666 1192 
4227 3321 4280 4020 4932 4459 4816 3436 2436 
2692 5537 2334 5991 5027 2568 4913 2935 4923 
5121 4329 2910 1983 2964 2343 941 6024 2926 
3282 4515 3247 1943 93 2005 4049 1830 4472 
3890 1176 3972 89 3207 5693 2670 1109 5349 
1328 1469 3756 947 259 3977 3086 3182 1615 
4707 1964 2986 816 5988 4724 1076 2947 2660 
1299 5099 5798 3505 5096 4661 6055 5785 3457 
1167 924 1538 521 4268 3749 5911 2720 4652 
826 3036 811 121 3810 2622 4394 5231 4194 
809 305 2463 862 3491 373 3647 433 5454 
3590 1077 3625 4620 4100 362 3058 3822 5226 
5259 4901 5155 2975 5572 5633 343 5678 4944 
2615 5764 4622 5362 5242 5830 5488 4289 3824 
5788 1079 3541 4497 5612 6018 1275 6050 4338 
5756 5630 4330 3962 2829 5769 4539 1303 4951 
2956 5414 2624 3500 2730 3796 1875 892 4085 
4084 1319 5638 5720 1116 4246 5041 624 3062 
5796 3845 4558 4119 5771 3657 2275 5427 4552 
2526 1696 5812 2777 4460 5337 3928 5164 5275 
1054 3740 5884 4115 4953 1956 1918 5631 4445 
3044 4587 5674 1564 5254 5103 5381 5092 3985 
5974 5616 5218 1970 3996 4990 5257 4993 5512 
4234 4763 5582 3046 5658 4675 4843 2722 4068 
3906 4934 5703 5850 6038 4193 5323 5878 4702 
4536 5022 5380 2938 5011 5551 4692 4375 4244 
6033 4897 2718 2332 4769 1685 5893 4987 3116 
3792 4832 5360 10 3528 4991 2281 3487 905 
5443 1386 1343 4757 3078 3352 751 4735 4980 
1571 3554 5520 3117 5922 4157 2367 3711 4601 
4479 5571 4287 4142 4912 1201 5239 3205 288 
4247 4972 1190 2949 1920 2804 4947 264 4163 
3096 5284 5892 4075 4522 1717 5817 4431 5285 
1390 5083 5267 4615 5023 4868 5749 3015 4870 
3664 5214 5574 4725 5652 5831 4531 5649 4730 
4694 2706 4577 4236 4423 5247 428 5228 3074 
1285 205 5660 5790 5590 1504 5225 4266 6051 
5661 5407 4444 3125 4941 4455 3952 4579 2507 
3063 5334 4736 4332 2223 5627 5997 4207 5629 
5832 4908 5640 5625 5860 5438 2942 5054 2041 
4660 5405 5825 3624 4402 3990 3291 5931 4654 
6030 5161 6036 5622 4477 4224 4619 5100 1530 
2068 1793 1974 5766 4713 320 4038 4708 5754 
2604 218 621 3835 1836 1178 3563 2194 2978 
1500 1978 6041 1478 4967 1106 1003 469 625 
1894 1804 3115 765 2186 5635 1844 3504 3271 