# vtk DataFile Version 4.2
Generated by LIGGGHTS
ASCII
DATASET POLYDATA
POINTS 6000 float
-0.0152394 -0.0422697 0.00399777 -0.0313528 -0.032215 0.00397912 -0.0369393 -0.0192381 0.004012 
-0.0412722 -0.012968 0.00400304 -0.0309339 -0.0136378 0.00414891 -0.0437808 -0.00450353 0.00408213 
-0.0363845 -0.0122026 0.00403795 -0.0312105 -0.00887257 0.00398708 -0.0275743 -0.0107231 0.00397953 
-0.0446564 0.00424124 0.00404728 -0.0355357 -0.00293893 0.00399555 -0.0434339 0.00813819 0.00404302 
0.0400813 0.015099 0.00411464 -0.0206776 -0.0387939 0.00399727 -0.0219745 -0.0392441 0.0077921 
-0.0156569 -0.0381811 0.00401714 -0.0182772 -0.0410703 0.00629818 -0.0119608 -0.0396067 0.00507085 
-0.0147586 -0.0424354 0.00797089 -0.0147204 -0.0382886 0.00794311 -0.0188389 -0.0408779 0.0103204 
-0.010945 -0.0436439 0.00793476 -0.0115775 -0.0400506 0.00980523 -0.0114181 -0.0434961 0.00398969 
-0.00559956 -0.0377321 0.00400367 -0.0049866 -0.0414506 0.00541185 -0.00774022 -0.0443424 0.00556008 
-0.00853389 -0.0405403 0.00713427 -0.00420501 -0.0447766 0.00791752 -0.00481073 -0.0399119 0.00910639 
-0.0034431 -0.044861 0.00401521 -0.00226059 -0.0383546 0.00644553 -0.00115405 -0.0413661 0.00406586 
0.000425327 -0.0449922 0.00507131 0.00324963 -0.0422672 0.00415057 0.00174363 -0.0385972 0.00616682 
0.00197315 -0.0417472 0.00861937 -0.000389787 -0.0450052 0.0090781 0.00558148 -0.039129 0.00500936 
0.00748589 -0.0441277 0.00453146 0.0117677 -0.0396891 0.00519099 0.0114916 -0.0434681 0.00654991 
0.0043482 -0.044771 0.00707556 0.0083639 -0.0410509 0.00712644 0.0195628 -0.0405119 0.00618792 
0.0145686 -0.0425325 0.00399655 0.0157928 -0.0390697 0.00569922 0.0142156 -0.0415384 0.00882351 
0.0195361 -0.0372824 0.00878235 0.0248132 -0.0373793 0.00397891 0.0230668 -0.0386329 0.00733955 
-0.0295023 -0.0339093 0.00742994 -0.0318208 -0.0302819 0.00780772 -0.0278493 -0.0351236 0.00399267 
-0.0226382 -0.0321194 0.00400754 -0.0278005 -0.030305 0.00399869 -0.0197271 -0.0293978 0.00400751 
-0.0245317 -0.0376837 0.00400254 -0.0257387 -0.0326594 0.00649542 -0.0221058 -0.0354126 0.00626497 
-0.0262847 -0.0365388 0.00740443 -0.0228437 -0.0298576 0.00733709 -0.0274372 -0.0311545 0.00978385 
-0.0236249 -0.033897 0.00968362 -0.0198774 -0.0369703 0.0103275 -0.0190001 -0.0337696 0.00401828 
-0.0183847 -0.0368205 0.00660832 -0.0155494 -0.0325682 0.00591052 -0.0129195 -0.0356848 0.00550711 
-0.011976 -0.0317846 0.00751992 -0.0191231 -0.0320842 0.00779392 -0.01496 -0.0291126 0.0078773 
-0.0148895 -0.0344948 0.00939929 -0.0104511 -0.0328866 0.00399293 -0.00653504 -0.0320592 0.00401905 
-0.00905456 -0.0366935 0.00572487 -0.0109672 -0.0353873 0.00900383 -0.00543205 -0.0361098 0.00769529 
-0.00719352 -0.0325037 0.00793502 -0.00332036 -0.0344532 0.00399471 -0.0029298 -0.0305833 0.00490074 
0.00393822 -0.0352848 0.00560571 -1.57673e-05 -0.0349955 0.00618912 0.00442741 -0.0304011 0.00506354 
0.000647289 -0.0309794 0.00664331 -0.00348079 -0.0319457 0.00932157 0.00165628 -0.0337388 0.00959811 
0.00729608 -0.0331837 0.00490385 0.00893575 -0.0368238 0.00534827 0.0111409 -0.0334914 0.00592987 
0.00947914 -0.0298122 0.00514339 0.0116503 -0.036765 0.00829242 0.0115154 -0.0305459 0.00861014 
0.0203592 -0.0317577 0.004021 0.0146819 -0.0352643 0.00533406 0.0154881 -0.0312798 0.00583036 
0.0183733 -0.0341359 0.00658685 0.0188432 -0.0304231 0.00796668 0.0208228 -0.0367342 0.00444278 
0.027752 -0.0345816 0.00400625 0.0239072 -0.0335985 0.00498149 0.0281122 -0.0300477 0.00475926 
0.0227685 -0.0304652 0.00725489 0.0262718 -0.0322013 0.00810462 0.0268291 -0.0361222 0.00758759 
0.0232341 -0.0348363 0.00879139 0.0313676 -0.032237 0.00401079 0.0342012 -0.029186 0.00401065 
0.030036 -0.0334411 0.0076899 0.0339383 -0.0295057 0.00907542 -0.0359488 -0.0251744 0.0041808 
-0.0389258 -0.0222752 0.00971625 -0.0387401 -0.022646 0.00557133 -0.034072 -0.0288555 0.00401268 
-0.0307664 -0.0224353 0.00412918 -0.0357282 -0.0273786 0.00760509 -0.0312633 -0.0261934 0.00533325 
-0.0305855 -0.0267758 0.00931197 -0.0334484 -0.0240197 0.00853461 -0.0276482 -0.025001 0.00402024 
-0.0273723 -0.028037 0.00727902 -0.0241685 -0.0276408 0.0042344 -0.0232038 -0.0234671 0.00412127 
-0.0199072 -0.0212438 0.00408512 -0.0276978 -0.0241518 0.00811198 -0.020163 -0.0236338 0.00754859 
-0.023994 -0.0260416 0.00798408 -0.0194501 -0.0253022 0.00400018 -0.0157849 -0.0286004 0.00401782 
-0.0137406 -0.0252446 0.0047954 -0.0163659 -0.0225325 0.00631065 -0.0184522 -0.0273016 0.00730335 
-0.0122216 -0.0237788 0.00821619 -0.011798 -0.0290147 0.00399454 -0.0113145 -0.0221173 0.00411739 
-0.00921266 -0.0257811 0.00468902 -0.00728778 -0.0221504 0.00438059 -0.00596351 -0.0280179 0.00398797 
-0.00494759 -0.0250117 0.00640082 -0.0112145 -0.0276357 0.00769818 -0.00723312 -0.0284251 0.00773998 
-0.00827343 -0.0242895 0.00854023 -0.00331824 -0.0222855 0.0039847 -0.00196295 -0.0265075 0.00416892 
0.00065727 -0.0232728 0.00397828 0.00310209 -0.0267931 0.00397664 -0.00318158 -0.0281762 0.00807688 
0.000603685 -0.0269243 0.0071686 0.0034771 -0.0240931 0.0068796 -0.00134085 -0.021053 0.00722041 
0.0063305 -0.0234637 0.00399977 0.006678 -0.0269321 0.00614507 0.0101184 -0.0240424 0.00521846 
0.00720976 -0.0231698 0.00793148 0.0102142 -0.0267966 0.00824093 0.013233 -0.021515 0.00547707 
0.0131747 -0.0281508 0.00480208 0.0167826 -0.026322 0.00519241 0.019759 -0.0233815 0.00420574 
0.0203295 -0.0277742 0.0040492 0.0137123 -0.0249375 0.00777684 0.0173141 -0.0229138 0.00765832 
0.0243984 -0.0286764 0.00402233 0.024104 -0.024715 0.0043082 0.0279778 -0.0252314 0.00517326 
0.0258018 -0.0210504 0.00525516 0.0215431 -0.0257142 0.00803294 0.0222752 -0.0217902 0.00694155 
0.0253903 -0.0240908 0.00801183 0.0259644 -0.0280499 0.00789517 0.0337186 -0.0252015 0.00402441 
0.0310768 -0.0276565 0.00612566 0.0313607 -0.0237208 0.00687431 0.0353569 -0.0229703 0.00700824 
0.0360553 -0.0269241 0.00684909 0.0379646 -0.0239796 0.00413818 -0.0406766 -0.0177573 0.00399293 
-0.0422087 -0.0155288 0.00692858 -0.0383102 -0.014979 0.00626599 -0.0405302 -0.0191619 0.00774245 
-0.0420986 -0.0145023 0.0107871 -0.0338174 -0.0167631 0.00458021 -0.0292012 -0.0187477 0.00400924 
-0.0339086 -0.0207274 0.006167 -0.030602 -0.0164375 0.00695374 -0.0360807 -0.0120266 0.00811307 
-0.0363109 -0.0169439 0.00923344 -0.0295322 -0.020247 0.00797165 -0.0351998 -0.0207093 0.0100931 
-0.0288896 -0.0168702 0.0105384 -0.0330156 -0.0143103 0.00934668 -0.0263942 -0.0156534 0.00401855 
-0.0226712 -0.0182937 0.00400738 -0.027717 -0.0133368 0.00700168 -0.0264814 -0.0213405 0.00540001 
-0.0226165 -0.0144034 0.00484861 -0.0259527 -0.0177029 0.00740816 -0.0229403 -0.0207344 0.007196 
-0.0218697 -0.0167499 0.00799058 -0.0254699 -0.014709 0.0100521 -0.0206634 -0.0127235 0.00920652 
-0.0191464 -0.0163998 0.00445426 -0.0163191 -0.0192781 0.00399204 -0.0148583 -0.0150506 0.00424122 
-0.0125648 -0.0183154 0.00490689 -0.0175216 -0.0137285 0.00692453 -0.0191061 -0.0197284 0.00765939 
-0.015854 -0.0173212 0.00745013 -0.0142793 -0.0204917 0.0092981 -0.0142855 -0.0141151 0.00924134 
-0.0108425 -0.0147841 0.00405984 -0.00837997 -0.0183206 0.00421089 -0.00621628 -0.0148674 0.00399186 
-0.00513863 -0.0194326 0.0063849 -0.011309 -0.0167557 0.00854399 -0.00981636 -0.0205421 0.00755981 
-0.00747501 -0.0161546 0.00755125 -0.00533228 -0.0128005 0.00811655 -0.00285732 -0.0152001 0.00611214 
-0.00209855 -0.0184798 0.00398242 0.000924543 -0.015315 0.00486317 0.0016424 -0.0194483 0.00499527 
0.00412172 -0.0143234 0.00780726 -0.000103357 -0.0138686 0.00869593 0.0014877 -0.0176003 0.0085417 
0.00482123 -0.0156509 0.0040016 0.00562021 -0.0195808 0.00470652 0.00881125 -0.0159858 0.00409288 
0.00961131 -0.0200026 0.00445637 0.012579 -0.0173156 0.00402582 0.00469273 -0.0200828 0.00855921 
0.00771946 -0.0175633 0.00785549 0.0113186 -0.019335 0.00846557 0.015949 -0.0152033 0.00430717 
0.0166596 -0.0195779 0.00474413 0.0206821 -0.019198 0.00424365 0.0194306 -0.0128321 0.0054446 
0.012826 -0.013453 0.00721223 0.0186447 -0.0165584 0.00692932 0.0146344 -0.0173229 0.00746924 
0.0221257 -0.0154732 0.00404425 0.025812 -0.0136369 0.00436744 0.0280208 -0.0167352 0.00576943 
0.0242514 -0.017616 0.00673231 0.0299088 -0.0128074 0.00403498 0.0297372 -0.0203119 0.00538592 
0.0336751 -0.0201427 0.00465713 0.0316481 -0.0164027 0.00402327 0.0356337 -0.016435 0.00400136 
0.0332373 -0.0172559 0.00758924 0.030199 -0.0148196 0.00850767 0.036694 -0.0201901 0.00953967 
0.0376306 -0.0199081 0.00399888 0.0411345 -0.018006 0.00415829 0.0388147 -0.0138593 0.00404575 
0.0424121 -0.0146031 0.00581123 0.0382843 -0.0170857 0.00691655 0.0398099 -0.0209916 0.00715632 
0.0398525 -0.0138975 0.00890469 0.0413864 -0.0176218 0.00936008 -0.0434777 -0.0092105 0.00399756 
-0.0374167 -0.00644826 0.00426238 -0.0394182 -0.00979818 0.00558873 -0.0443596 -0.00693667 0.00720051 
-0.0431987 -0.0116452 0.0074621 -0.0402599 -0.00533746 0.0073788 -0.039626 -0.0106356 0.00957608 
-0.0443818 -0.00704039 0.0112049 -0.0325283 -0.00529599 0.00515249 -0.0345147 -0.00878988 0.00639376 
-0.0311108 -0.0112186 0.00731548 -0.0308336 -0.00716785 0.00913041 -0.033323 -0.00411979 0.0112165 
-0.0268067 -0.00653454 0.00404852 -0.0234245 -0.0105777 0.00400624 -0.027548 -0.00906044 0.00762326 
-0.0235342 -0.00723565 0.00625747 -0.0287463 -0.0119203 0.0105908 -0.0258948 -0.00455789 0.00807843 
-0.0240149 -0.0109558 0.0079408 -0.020804 -0.00532754 0.00846409 -0.0202319 -0.00660659 0.0040919 
-0.0196151 -0.0118395 0.00407812 -0.0200754 -0.00924863 0.0070736 -0.0168455 -0.00896594 0.00405941 
-0.0151626 -0.00526686 0.00398517 -0.0132335 -0.0114058 0.00398776 -0.0139611 -0.00891805 0.00700244 
-0.0168043 -0.00654242 0.00850237 -0.0166157 -0.0107902 0.00948236 -0.011394 -0.00702966 0.00401067 
-0.00851357 -0.0115388 0.00411922 -0.00742431 -0.00770855 0.00460986 -0.00455924 -0.011024 0.00461539 
-0.0112852 -0.0122309 0.00737598 -0.010083 -0.00814179 0.00767389 -0.00745273 -0.00509128 0.00828958 
-0.00619995 -0.00888921 0.00822834 -0.003384 -0.00722673 0.00401029 -0.000599166 -0.0108357 0.00400607 
[...]
POINT_DATA 6000
FIELD FieldData 7
id 1 6000 int
842 529 107 484 136 857 1243 45 1016 
849 1426 1648 997 1074 1093 48 466 810 
1376 66 1060 1706 684 552 2537 63 452 
2444 252 1715 574 1 71 62 123 244 
1307 537 139 270 1883 1903 1741 38 3382 
281 502 2479 2775 49 4124 1311 1401 638 
822 1072 221 170 1269 88 421 499 32 
1078 1197 762 517 7 1044 265 550 1135 
179 755 561 1139 14 498 320 825 626 
791 519 365 415 152 670 51 1619 204 
600 835 339 3298 3639 843 662 248 652 
20 471 2810 215 3416 4362 4074 531 935 
525 126 1628 2292 1713 330 957 647 474 
976 1039 75 278 646 713 128 1071 1090 
427 479 2109 1452 349 991 749 441 1157 
812 444 145 307 1097 547 393 507 1011 
789 1301 1191 1141 1203 839 329 727 46 
848 176 109 230 852 251 64 411 85 
3008 522 402 165 291 732 35 118 314 
268 247 1318 435 528 2636 2366 984 2663 
3110 2326 678 397 434 2452 2263 1562 1421 
1358 2883 1491 171 906 1022 635 707 1172 
829 883 103 1561 404 1131 380 262 1085 
759 1252 1430 1156 1436 184 2439 793 1626 
112 1067 1219 333 377 1542 780 782 911 
337 28 235 1091 1440 460 398 640 156 
223 214 282 921 515 1061 392 909 1189 
111 440 988 274 437 350 73 371 1123 
364 606 396 1354 917 1962 747 2339 748 
740 1570 916 2863 1462 1606 1611 236 17 
1458 206 1300 1304 840 1727 96 2060 1340 
671 1234 366 1108 168 1216 1560 1369 1266 
450 1412 564 673 803 1171 327 982 1665 
650 1684 185 1861 410 469 974 555 995 
161 725 1138 2 818 138 256 1036 602 
455 841 1038 616 445 677 548 858 614 
645 324 83 630 29 1092 781 178 91 
257 432 1802 520 1765 1732 512 34 18 
654 313 576 1525 2778 2022 2328 893 1944 
1424 2071 2264 3600 1709 483 353 1667 1223 
952 1052 900 166 162 590 538 865 721 
310 1598 1605 153 1002 388 1287 196 591 
731 892 105 1066 451 764 1101 368 605 
779 98 1206 508 633 942 269 724 4 
1208 830 758 987 217 188 1205 951 1232 
301 1257 97 558 379 238 864 70 8 
1362 1403 308 401 383 210 1891 1466 964 
582 1930 1372 609 886 1584 1065 887 1177 
896 583 1215 680 1528 92 1887 1614 1642 
1534 1246 1267 1218 1400 1037 2591 1095 1645 
2167 250 851 1385 43 306 472 1070 311 
1480 715 667 280 578 879 1427 714 326 
697 177 532 286 253 689 359 104 1094 
354 1169 613 785 381 405 565 523 805 
783 423 1804 76 580 545 384 1214 480 
395 1766 211 682 400 726 1284 1046 1045 
1015 938 1228 1886 209 1397 656 146 2383 
2398 687 242 3068 2249 129 420 100 1831 
2341 2095 1913 795 385 27 701 456 2262 
2197 1527 1180 266 122 937 1654 559 1398 
634 513 1465 798 1185 907 534 1048 130 
352 890 1271 553 1888 134 659 82 665 
53 541 390 344 164 1272 59 1471 245 
598 1910 47 1511 19 208 1576 1632 1259 
2857 408 44 664 2136 1637 305 2266 993 
299 418 811 540 1724 1689 2454 132 1320 
133 676 121 40 1864 370 603 859 1378 
231 348 560 619 490 1510 439 1103 867 
57 142 681 914 1581 275 50 2132 1339 
1117 1792 453 557 154 1738 2776 438 207 
149 2704 1182 551 338 341 2659 496 2579 
2331 1687 13 367 2116 1024 927 1164 86 
258 863 1679 254 357 663 637 1211 601 
288 809 461 756 194 1000 2764 127 983 
729 200 1429 227 325 2528 61 23 1693 
666 362 618 2705 1526 1043 1829 575 2999 
1711 910 31 1906 819 417 1146 940 572 
373 828 524 853 1136 620 862 970 592 
160 1195 60 1564 1621 1536 399 2511 658 
1961 2523 1449 1922 1492 1053 30 773 1733 
172 429 1181 315 294 316 1055 2206 493 
2101 1625 902 767 2677 1371 69 3471 589 
1546 2894 1846 468 117 1890 234 2809 1031 
1691 2867 622 292 918 542 2347 2019 2586 
135 720 3269 1668 2122 3418 2920 2850 3453 
4232 3098 4590 5124 1419 500 1345 2327 2173 
336 869 1445 1336 1456 358 1294 711 1261 
850 960 948 1776 752 297 570 897 1193 
584 1245 979 425 1231 1735 1238 804 2070 
1899 632 588 2213 1280 1379 2074 2378 3137 
2502 802 2681 568 685 1652 382 2394 735 
3492 1775 870 80 660 973 2001 2460 4746 
4777 3397 3938 5217 710 4087 4080 5363 5181 
4649 2418 3923 3933 738 2097 549 1240 1115 
691 2094 608 1588 930 2477 1021 1523 926 
2478 1790 649 1235 1810 1254 2028 2340 1342 
716 1366 1163 1244 1387 965 1409 300 2272 
989 778 1290 761 648 786 148 448 167 
1086 1283 1699 2086 276 1583 955 351 304 
2648 1166 1761 2291 1678 449 1406 784 772 
363 992 1841 2247 2773 2752 2547 201 708 
284 3964 3077 2487 694 303 2740 1148 3534 
2232 3379 3059 3710 706 3 985 4088 1145 
143 774 679 2008 3702 3576 3313 1333 3212 
1757 2104 2059 3353 2432 2490 2510 1934 885 
2459 2423 2338 1770 2512 1872 2023 56 263 
1641 1258 1953 1616 1694 808 369 1134 1023 
1276 944 1068 898 891 972 919 25 1368 
526 1001 2056 193 1981 566 1381 1435 464 
1270 1274 1003 1979 1894 1151 962 1781 1338 
219 1897 2055 860 2102 2449 1517 2741 94 
2580 492 968 1198 1555 945 416 3591 801 
894 1194 296 2322 3914 2785 1915 1472 2542 
2626 2930 1853 2585 1630 3549 2602 2135 4405 
1152 1088 2329 3006 1914 2020 2746 1837 1859 
2389 1959 1768 2687 2118 2385 1722 2990 3305 
2113 1334 3005 1505 2606 2015 1703 2099 1444 
1288 1450 1348 1051 1590 833 1551 1620 1273 
769 1357 535 1734 623 505 1335 95 2083 
1337 1058 1380 1824 495 1974 624 225 949 
182 831 607 1714 116 1549 750 1319 931 
2058 1057 1155 11 821 1281 212 458 977 
1425 712 669 1253 125 1292 827 861 1928 
820 1170 581 261 1968 1213 3027 1867 577 
1633 2703 2587 2953 629 1512 216 737 2438 
2550 1184 477 81 1539 2148 2261 1013 1939 
2612 1331 2623 3201 2900 3662 3093 2974 3189 
3393 1782 3915 3153 2577 2691 963 2105 3246 
2265 2696 3177 567 1124 651 1578 87 800 
1175 283 1422 1494 1573 1524 1795 462 318 
815 465 836 1634 163 610 376 436 722 
877 1040 1150 975 873 1143 807 322 65 
345 37 760 115 1683 41 202 1453 222 
285 1286 925 290 141 908 744 1233 847 
1321 675 277 346 699 999 169 733 723 
1405 1032 1548 187 1629 1651 1585 698 1443 
734 1200 1550 1600 309 1828 612 1670 1434 
302 1221 374 1129 1955 1767 426 1607 628 
1874 1347 1905 1225 1816 55 3089 2748 3210 
2302 3406 1798 1850 1420 2807 2924 1531 2987 
3501 1803 442 514 3209 2391 2296 2032 2273 
2928 1723 1395 1158 587 1643 273 430 705 
763 1898 1432 246 1577 506 695 137 1541 
487 1952 817 832 1310 419 488 1229 1054 
1165 16 946 1459 391 882 653 585 617 
180 1073 120 422 213 271 703 775 33 
1217 99 875 787 447 198 981 1404 627 
2532 641 1224 1592 1027 1832 1730 1056 1322 
2236 1352 173 1315 881 403 459 78 241 
1305 1698 1885 1563 1631 2655 2258 2642 3087 
2447 3444 3340 3023 1923 3399 2583 3262 2781 
2400 2983 3540 950 67 2190 3431 1556 1843 
3094 482 2821 3398 328 347 516 1126 144 
1653 1329 2373 1835 360 915 1359 21 1700 
1389 1719 110 501 1530 342 845 106 372 
147 1106 1149 340 1438 1159 1332 489 332 
191 1237 834 799 1050 124 1671 814 1532 
596 980 2426 443 1854 936 463 2274 1499 
2911 2280 1446 2334 1568 2897 2654 1236 2768 
2754 3758 3726 3753 3045 2905 26 1612 2560 
2501 3427 1034 2852 1805 2751 2895 2789 2462 
3815 2352 2944 3514 1188 2235 2345 2404 4184 
2311 3868 1932 2814 1817 431 2545 1167 319 
924 1916 1991 518 2120 1941 4135 1099 1186 
2241 539 1388 2073 2941 2294 933 1747 688 
1481 1957 1260 1173 959 1516 1075 1316 2574 
2551 2631 323 2862 2048 889 1192 1819 1029 
1862 1107 1638 2100 2153 1821 1797 2961 2915 
2793 2217 2534 4280 4191 2521 3851 3243 181 
267 2555 1958 3040 4452 2600 3793 2517 4810 
2875 2593 412 3107 2676 2708 478 895 903 
1851 1673 2117 2103 4264 2161 1490 387 1514 
4268 2519 2799 2622 826 1538 766 3396 2151 
1005 2972 2527 279 1969 298 1226 2830 2411 
1497 2315 295 2879 2475 9 3099 1414 1168 
1896 672 2629 476 2633 3689 433 343 3218 
2081 4227 3595 2709 2324 4154 3101 742 3432 
3466 1855 1901 3993 2290 4032 4035 1791 2256 
2064 3762 1662 3367 2794 3463 1399 1520 1069 
1010 546 961 15 1028 1047 1807 1162 229 
1118 175 1749 1077 2515 806 2403 1818 674 
530 1390 1017 446 1325 1762 2996 2182 1306 
189 611 2111 797 874 636 2940 1907 2635 
2731 2955 2393 2844 1827 42 1840 998 978 
1360 1990 2605 1204 2134 1277 2684 1393 2353 
101 2049 2451 3856 114 2495 2192 2513 969 
3953 3363 2380 2457 3941 3132 3902 3129 2856 
4073 3968 3208 3827 3730 5236 3839 3724 3458 
3124 4768 4569 4942 4718 3668 4447 5760 4365 
4740 2149 1482 3520 1739 1809 1926 543 2000 
1947 1647 2036 971 2237 1924 2093 1004 2346 
700 1748 1479 2038 1869 2277 1367 2614 1971 
2435 2617 3011 1929 2772 2627 2085 1483 2848 
3861 3227 2065 2992 1788 2791 3122 1787 3741 
3439 3315 4831 3834 3655 3465 4187 2303 4700 
4605 4122 5194 3935 4985 4202 4556 4930 4598 
4602 5049 5691 5846 4434 5265 5684 4026 3455 
4284 4982 3216 6012 2387 2212 2611 3336 2428 
657 2297 1716 1574 3229 3066 2481 2491 1383 
1911 2877 2248 2127 1586 1160 2716 3231 481 
2003 1839 6 1994 1873 1447 1931 1676 929 
753 2214 1963 3105 1594 1489 1811 625 2123 
2407 3073 3663 2892 1842 3079 2323 3493 3508 
5345 3770 3372 3965 2997 4263 3982 2969 4430 
4530 5858 4518 5235 2694 3841 5384 3688 4638 
5043 4496 5290 473 3387 4353 5663 3913 3075 
3039 5935 4703 4682 3421 4000 1650 3939 2469 
4046 4254 3048 2738 3254 4005 1945 2410 2363 
1710 3473 2620 3251 2881 4498 1161 2050 2062 
1559 1876 1356 2233 2106 1786 1104 1927 1476 
586 1133 1486 595 838 486 491 1604 2004 
2259 1375 192 1696 1537 1936 2504 2207 1834 
1384 2298 1408 1635 1580 1543 2082 2540 2194 
2783 696 3003 2125 2010 3577 2494 2682 3564 
3026 2198 509 4285 3147 3213 3727 1639 1995 
3729 4003 4219 4083 3618 3732 190 3611 2506 
3230 3666 4355 2711 4257 2147 3032 3414 3311 
3443 3807 4511 3872 5014 5281 1707 2222 3984 
2569 3324 1659 3479 3446 4002 3184 2870 3641 
3542 4940 4507 3745 3659 3685 3588 3128 2446 
3065 2181 2744 2561 3083 3257 1448 1202 1147 
1082 771 692 2317 1239 2226 1892 1179 1822 
503 84 36 693 1116 151 739 533 1355 
1125 378 1485 1080 1575 1468 1823 240 454 
119 406 813 2948 218 884 150 1153 1940 
1035 1895 2230 1137 1298 1720 1692 1685 604 
2747 1688 3033 3580 2640 2080 3295 2770 2355 
2128 3035 3219 2912 876 2108 3381 3373 4478 
3084 2358 1154 3102 3013 3335 2310 2453 3957 
1437 2843 2965 3544 4608 3511 2356 3366 3583 
3837 3652 3999 5053 3169 3020 2977 3157 2442 
3248 3613 3707 3858 3276 1122 1603 2932 1908 
2057 2076 3062 2139 2141 2164 2002 1942 1250 
1391 1496 1728 108 1484 1769 1064 1264 355 
556 90 1812 1582 1248 643 237 260 475 
1278 197 317 777 1006 140 1617 239 409 
686 272 407 1997 1084 293 1242 224 642 
58 1312 428 1935 1230 1506 1353 1697 2174 
102 1838 2531 2025 1871 1655 2480 1503 1909 
2503 3192 1686 3297 1751 2982 3478 2959 2245 
2114 2603 639 3459 1098 2998 2732 1461 3546 
3162 3599 3579 4418 4999 3910 4473 4907 2686 
3240 3895 2052 3434 3410 2993 3450 2610 5386 
1012 2006 2756 1018 1460 2833 2516 4655 1729 
1858 1413 1877 68 386 1595 1545 668 159 
424 199 922 2035 621 1599 854 457 1796 
901 1007 856 544 1344 1014 414 1112 321 
846 389 334 5 880 205 186 289 776 
52 494 1059 939 255 1813 510 89 2643 
1081 2219 39 2051 1596 1289 2343 947 1374 
1949 904 3012 1799 2861 2156 3136 2202 1249 
2227 1063 1474 2666 2420 3103 1721 986 2129 
2750 4341 2242 4555 4603 2835 3146 4251 3165 
3806 3934 3433 3279 2729 2760 4270 3897 3679 
3173 3041 3037 3334 4613 4351 5066 4701 593 
655 2144 3400 2465 792 2798 1814 2766 1973 
3489 2484 1554 923 631 2795 1519 2126 1127 
1783 1478 615 1328 1868 823 888 770 1852 
259 1119 928 1567 1033 1265 954 1500 24 
1187 1464 1327 1314 1455 2384 2440 1669 1351 
2518 4205 2304 1114 3413 2960 1100 3215 2653 
2488 5110 2805 569 2392 2739 4139 4837 3529 
3900 3855 2842 4668 3022 2013 3681 3185 2257 
3661 3775 4277 3322 4933 4526 4293 4352 3898 
4334 5185 3304 4549 4453 5575 4098 2727 4798 
3843 3581 2306 3675 3442 4126 2868 4698 4738 
2995 3678 3036 3095 2395 2535 2826 2985 2467 
2218 2828 3904 2619 1904 2497 2441 3117 3256 
2570 3430 3070 2177 2544 1933 2455 233 2526 
2221 2572 2546 3163 2354 3755 3106 3909 2656 
2238 4070 4065 1615 2849 3757 2436 4403 1487 
4346 4377 5135 4872 4909 4592 4159 3988 3585 
4883 3010 5495 4616 5040 3857 4789 3719 4635 
2797 6063 4317 4634 2962 3809 4158 4190 3512 
4748 4164 3290 4965 5758 3038 4995 4082 3779 
4583 4115 4108 4664 521 1299 2825 2299 3356 
3614 2720 2283 2142 3929 1718 2980 3597 3206 
3816 2210 2364 536 2424 2588 2396 4001 3625 
3590 3058 3436 2220 3822 2530 3859 3389 2067 
4482 2975 4020 4711 4459 4252 5726 3166 3321 
4138 4867 3245 4188 4678 3805 3288 3411 1121 
1535 3517 2788 1308 5180 4019 3405 2589 2499 
1627 2077 4360 3551 2869 2289 3409 1579 3028 
3491 2514 2695 3316 2665 3647 2549 4391 3747 
3052 2737 3615 2325 413 3226 4865 3967 1317 
1970 4105 3408 3082 3420 1750 3017 3530 3126 
2971 2644 2598 1801 2096 2069 1451 2458 871 
3509 3944 497 3451 2891 3475 2846 2698 1998 
3374 3767 3975 2811 4111 3794 3733 3773 2216 
2749 2639 4133 3449 3464 2787 4017 4033 3883 
4303 4272 3653 4466 4544 4006 5406 3347 5804 
5515 4060 3882 3949 5808 4853 4128 5504 5645 
4388 4371 4174 4249 2412 3893 2906 2175 1624 
1849 2200 2556 2538 2967 2647 3195 2721 2336 
1705 1498 1695 4237 2567 2112 2652 3358 2485 
4025 2882 2596 3424 4663 2823 1870 3769 3009 
3361 4063 3141 1664 4229 4846 5833 4179 3920 
3699 4469 4167 5282 4956 5163 6045 5106 3961 
3723 5557 6007 4304 5500 5483 5536 4892 5297 
5451 5224 5346 3791 5097 4267 5420 6043 6059 
6037 5134 3586 4719 2762 2552 2963 2658 3607 
3085 3025 2700 2145 2836 1800 3407 2936 3100 
2680 2578 3265 1675 1746 2994 1881 2847 2309 
1772 1996 2119 2320 1880 3778 2925 2075 2039 
2254 2332 2859 3634 3684 2604 3029 1111 3555 
2409 3016 3506 4918 3116 3349 3337 741 1889 
5446 3516 3351 3772 5723 3867 4029 4540 4131 
5840 5128 4874 4747 4800 5206 4646 5205 4290 
5498 5913 5775 4689 5705 4888 5513 4712 5220 
5261 5105 4741 5348 5304 3714 5936 4308 5943 
5238 4737 5962 4782 5514 4357 3293 3617 4053 
3992 3905 3680 2018 4374 4178 3309 2228 3462 
2801 3272 3151 3635 2335 4125 3470 1658 2745 
899 1893 3139 2377 1984 2171 2417 2482 2321 
757 1222 2421 1346 1110 2196 2072 2743 1657 
2414 1808 2061 2176 2382 1701 1660 1992 2496 
2651 3280 2362 3225 1950 765 2188 4384 4260 
1113 2260 3270 3392 361 3994 3781 4243 4367 
3217 4292 3538 5317 3620 4211 3828 5412 3672 
5223 4457 3826 5915 3160 5716 5423 3375 4095 
5586 3454 4101 5188 4935 5680 4013 3069 3954 
4610 5665 3838 4155 4559 4946 4528 4658 4246 
4618 4922 4443 4691 4089 2945 4064 3977 3636 
4558 3377 4804 4708 4062 3111 2761 1878 990 
2616 2143 2724 3743 2899 2966 2851 1364 644 
996 1815 10 1349 1784 2209 1513 905 1326 
1900 511 1529 1836 966 1144 2042 1190 1875 
249 1470 1780 2087 1467 1109 1247 228 1431 
1663 1826 1760 943 1674 1656 1977 1062 131 
287 1256 1386 1547 2672 3860 1251 1967 1313 
72 2115 2461 1759 1128 4350 2189 2431 1382 
2284 2927 3019 2800 3057 3550 4212 5478 2951 
5131 2688 4389 3709 2536 3359 4376 4309 4828 
4412 4240 5700 3627 4854 4091 3698 4519 5269 
3667 4753 4593 2865 4696 3573 4731 4755 5060 
3292 2215 2040 2314 2548 3142 1680 4316 356 
736 1569 1690 1227 1921 1268 788 1986 1295 
1330 571 745 1142 1752 1087 1920 872 790 
1533 794 1207 79 1649 573 2034 1597 1591 
866 1275 2376 485 1771 1297 1363 1753 2089 
22 1241 2767 2054 1296 113 2250 1972 1845 
1096 2166 3342 2419 2107 3784 1041 3220 2943 
2379 3777 2613 2896 3682 4382 3260 4784 3362 
3388 2337 2933 5637 4717 5993 5310 3768 5725 
5786 4145 5018 5562 5559 3193 4566 5264 6002 
3495 3891 4492 4962 2295 3622 4379 1102 3318 
3357 3468 2973 2305 1361 967 2701 335 1076 
1008 2661 2986 1454 3123 1293 1130 562 1279 
1518 1291 243 1201 2133 1220 527 157 913 
1407 1199 2016 74 174 1552 77 1469 1613 
232 554 1083 746 158 1825 1943 1089 1755 
1442 878 1418 1377 2369 1754 1983 2312 2813 
1978 1566 3852 1708 3323 2958 3238 2162 2910 
4055 3798 3296 3570 3494 2130 563 2860 1571 
2251 3829 1587 1394 4707 4745 2796 5809 5207 
5222 5343 5671 4152 5549 5777 4662 5973 4533 
5847 3258 3696 3721 4844 4961 4955 5119 2902 
4213 2090 4354 3885 3145 4508 4327 3156 3958 
1618 2641 2991 3811 3619 4118 2889 3197 4490 
3190 2053 2816 2765 2657 264 816 2152 2634 
1402 1951 1303 1475 2509 1602 2725 4395 1522 
690 1508 2817 3031 941 743 2903 1985 226 
3239 1176 2370 2923 4094 2063 3649 2163 3452 
2406 3317 2229 4685 2753 4298 5050 5487 4114 
4842 2650 4276 2184 2780 3481 4004 5524 3677 
3594 4432 5056 4937 5543 5780 5766 5447 5984 
5394 5713 5602 5201 5693 4077 5881 4200 5082 
5986 5890 5855 4584 4504 4169 5721 4724 4915 
4971 5525 4693 4520 3646 3584 5099 5096 4793 
4673 3705 3168 3339 3505 3457 2854 4852 4113 
2660 3526 1844 2707 2690 2140 2500 2592 2978 
2904 3916 3686 2027 4650 2952 3476 5537 4882 
5476 4964 5600 3232 5090 2692 3488 2568 4932 
4314 5566 5577 5155 4536 4857 5560 5007 5541 
5991 4901 4885 4948 3071 4692 4630 5819 3383 
5116 5473 4474 5615 4765 5139 5234 5550 5471 
5814 4617 5296 4651 5720 5743 4629 4034 5969 
4535 5032 5231 4690 5126 4394 4198 5916 5812 
3810 4043 3002 3780 4953 1964 4069 3749 2820 
4119 3563 4348 4045 4100 5431 3510 4012 4181 
4606 3704 3665 2618 2646 5226 4390 4671 4543 
4438 5218 5150 3951 5259 5664 2888 2543 4791 
5815 4197 3552 5422 5200 2950 4258 5583 4815 
3919 3562 2193 2726 5868 5331 3643 2880 5374 
2884 5982 3963 5621 5419 3651 3889 4899 4639 
4983 3998 4381 4176 5184 2699 3908 2463 4926 
3566 4245 5742 3310 3364 4345 4057 4392 3186 
4571 4591 4573 4224 3291 3368 3536 3545 3980 
3327 5009 3369 5542 4699 4440 1917 1365 1743 
4704 4500 4331 3671 4400 3329 6058 3138 4756 
2782 5366 6017 4582 2520 5256 3223 5539 3308 
5178 5409 3844 4153 4683 4464 3947 3415 3869 
4484 4562 5706 4086 5695 4427 6040 3531 4600 
3285 5929 3892 5402 5302 5298 3922 5358 5318 
3104 1509 3978 5232 4241 868 2558 3154 4039 
3945 5400 2483 2293 4052 3983 3670 4143 4271 
2871 5712 3412 3708 5522 5039 3673 5736 4847 
3621 5388 4890 5219 3748 5048 5964 4989 5849 
2874 4103 2443 3804 5421 5026 3578 3426 6001 
5795 3521 5673 5199 5521 4553 4140 4709 5875 
5794 6029 6032 5811 3558 2427 5059 5052 6053 
2984 5573 6048 5260 5229 5227 4954 2670 3754 
2493 3344 1948 3830 3942 3360 2667 2607 3401 
3119 2468 4250 1863 2372 3524 2557 2818 2763 
2529 4407 2831 2668 4036 3130 2282 3907 4156 
3927 3207 3191 2079 5035 5341 4383 4437 4527 
4659 5909 4378 5867 4595 4433 4984 5805 3114 
5682 3403 3738 5127 4625 5390 3587 5170 5997 
4493 5266 2916 5426 3030 5948 5081 5718 3731 
5728 4465 4509 4534 5303 5255 5701 5672 5740 
4439 5759 6010 4318 4328 3995 3007 2769 2757 
3115 3863 3565 2819 2399 1866 2576 2307 2710 
2425 2473 3504 1623 2470 2779 2554 2091 2792 
3224 2168 2466 2594 2873 3202 2098 2637 3532 
3196 2489 1209 2413 2351 1042 2638 2624 2344 
3987 3422 2815 3346 3435 2017 2939 3306 3553 
1966 2014 4021 4302 5065 4499 4903 4189 5069 
2170 4461 5531 5826 5489 4220 4826 4358 5864 
4910 3692 2649 5848 3932 5278 4359 5340 4674 
5553 4567 5322 5080 3737 5526 4821 4196 5710 
4802 4217 3522 3485 5599 4576 2318 3750 4419 
2774 2717 2430 5000 4150 1902 2790 3823 2669 
2685 5619 3561 3214 2898 1789 2137 2005 1282 
2759 3140 3034 1636 1495 1736 2564 2240 1860 
1601 719 2068 1557 1396 1622 1856 1477 1912 
1589 1488 855 1020 1025 1704 1756 2033 1982 
3846 1777 1847 1183 1473 1540 2429 4796 768 
2609 3486 3390 4102 2450 1501 1773 1285 4446 
4147 4107 3236 3629 3572 5085 3948 5730 4248 
4454 4279 4320 4924 3873 4347 5474 4372 4449 
5983 5960 5765 5622 5068 5117 3234 2388 4866 
4337 4142 3261 4636 5351 2914 3074 4282 4161 
2584 1553 5647 3989 2375 1609 2571 2037 2349 
3528 2012 2472 2024 1350 796 751 1764 183 
1504 824 1988 1392 2110 155 331 1210 1672 
2246 2599 1463 1255 2808 1309 1502 3024 1493 
920 1544 1993 1105 2253 1441 994 1712 2313 
702 1212 1794 1030 709 2157 470 1980 3472 
3606 2664 2582 1507 2456 2866 2397 2786 3764 
3548 2365 2437 2822 3055 3669 3161 2837 4192 
3127 4539 3782 2486 3204 3874 5370 3842 5670 
5967 4898 3701 5138 5937 3799 5456 4877 4007 
2522 5012 5496 4310 3350 5432 4261 3198 5995 
3474 2204 1370 3278 2124 4040 2160 4023 1989 
2009 4757 1324 2360 1960 2084 932 2021 3352 
312 2471 2270 599 2348 2541 1343 2223 93 
2281 12 1019 1410 1049 1263 1026 754 718 
2045 195 1830 594 2525 1987 504 3593 2901 
2755 2553 3282 2342 2964 3263 4824 1411 4448 
4727 4597 4078 5968 4436 4515 2719 1946 3394 
1610 2968 2954 3469 1884 4807 3328 4722 4014 
3608 4900 4076 5990 6031 3813 3067 5373 5280 
5204 4829 2979 3228 5636 3847 5597 3637 5177 
4096 5656 5283 3061 5963 2840 5418 4532 5745 
3135 4336 3266 4242 4429 3255 1120 2359 3143 
2929 2832 4230 3715 3051 3376 704 2275 3537 
3700 3976 1415 1702 2679 4343 2374 2031 2279 