# vtk DataFile Version 4.2
Generated by LIGGGHTS
ASCII
DATASET POLYDATA
POINTS 6000 float
-0.0220453 -0.0391143 0.0170934 -0.0130101 -0.0430124 0.0174008 -0.013188 -0.0390442 0.0183535 
-0.0177139 -0.0382311 0.0161853 -0.00882207 -0.0428329 0.0165206 -0.00515347 -0.0445688 0.0171608 
-0.00545963 -0.0405425 0.0173127 -0.00930831 -0.0379701 0.0175178 -0.00152695 -0.0421571 0.0178948 
0.00259505 -0.0421586 0.0163156 0.000350016 -0.038826 0.0166062 0.00531132 -0.0445742 0.0180898 
0.00499697 -0.0391437 0.0174064 0.0084147 -0.0417497 0.0172958 0.00875623 -0.0378209 0.0186732 
0.0148108 -0.0424074 0.0172209 0.0194666 -0.0378571 0.0184017 0.0234466 -0.038364 0.0183706 
-0.0333899 -0.0300824 0.0185522 -0.0305908 -0.032989 0.0190375 -0.0295025 -0.0291039 0.0187888 
-0.0275486 -0.0355735 0.0183299 -0.0237134 -0.0344475 0.0171389 -0.020787 -0.0318412 0.0182732 
-0.0261835 -0.0313578 0.0182572 -0.0145469 -0.0354509 0.0168403 -0.0183514 -0.0342783 0.0157402 
-0.0168003 -0.0307077 0.0168217 -0.0127528 -0.0299609 0.0162752 -0.00550169 -0.0364458 0.0171534 
-0.0107804 -0.0340466 0.0176644 -0.00646648 -0.0328748 0.0156078 -0.00898931 -0.0288872 0.0172312 
-0.00166703 -0.035305 0.016697 0.00166103 -0.0330815 0.0161411 0.000695139 -0.0294487 0.0178395 
0.00268294 -0.0361694 0.0188774 0.00954827 -0.03234 0.0175877 0.00516365 -0.0297717 0.0186541 
0.0140314 -0.0320609 0.0177238 0.0170227 -0.0346353 0.0188212 0.0191884 -0.0312437 0.0190338 
0.0266239 -0.0358602 0.0185268 0.0241497 -0.0310299 0.0189001 0.02942 -0.0288996 0.0170889 
0.0292926 -0.03262 0.0187878 -0.0375558 -0.024742 0.0183694 -0.0301031 -0.0254926 0.0171267 
-0.0344825 -0.022181 0.0182602 -0.0308124 -0.0215198 0.0167294 -0.0337752 -0.0261019 0.018643 
-0.0231972 -0.0285943 0.018344 -0.0264922 -0.0271408 0.0165062 -0.0225842 -0.0245845 0.0167354 
-0.026984 -0.0228732 0.0164299 -0.0156517 -0.0257623 0.0173957 -0.0192202 -0.027614 0.0178749 
-0.0188201 -0.0232057 0.0176002 -0.0116076 -0.0259229 0.0165584 -0.00521227 -0.027242 0.0180401 
-0.00818947 -0.0237739 0.017039 -0.00432324 -0.0233346 0.0181634 -0.0107074 -0.0207469 0.0180822 
-0.00113448 -0.0258024 0.018251 0.0107024 -0.0284663 0.0176325 0.00745193 -0.0261174 0.0179093 
0.00512921 -0.0228384 0.0186399 0.011704 -0.0211881 0.0159567 0.0110646 -0.0246232 0.0188409 
0.0161862 -0.0287947 0.0167044 0.0191325 -0.0241791 0.0179879 0.0149583 -0.0222642 0.0186674 
0.0239741 -0.0234438 0.01793 0.028101 -0.0226457 0.0172817 0.021466 -0.0278467 0.0188003 
0.0355341 -0.0275036 0.0173971 0.0357988 -0.0234466 0.0169689 0.0320762 -0.0226205 0.0181756 
0.0399228 -0.0206692 0.0183928 -0.0411715 -0.0180886 0.0180089 -0.0373983 -0.0194015 0.0182804 
-0.0389822 -0.0124201 0.0176219 -0.0426095 -0.0143771 0.018456 -0.0310047 -0.0175793 0.0174435 
-0.0348556 -0.0164603 0.0173381 -0.0320074 -0.0136352 0.0174596 -0.0246976 -0.0176624 0.0183499 
-0.0208536 -0.0197286 0.0177943 -0.0280335 -0.0149247 0.0178519 -0.0208733 -0.0157316 0.0174921 
-0.024267 -0.0136064 0.0175054 -0.016845 -0.0197308 0.0180062 -0.012459 -0.017123 0.0180383 
-0.0168491 -0.0158006 0.0172644 -0.0126962 -0.0130915 0.0177271 -0.00679551 -0.0200631 0.0175699 
-0.00860628 -0.0162637 0.0170186 -0.00493166 -0.0132141 0.017384 -0.00411613 -0.0171237 0.0170213 
0.00282202 -0.0194776 0.0175159 -3.8598e-05 -0.0168598 0.0164465 0.00195229 -0.0128344 0.0163823 
-0.00193315 -0.0200089 0.0190249 0.00740902 -0.0199819 0.0169316 0.0103227 -0.0169196 0.0170967 
0.00623548 -0.0158101 0.0164058 0.00932542 -0.0128747 0.0164606 0.0142224 -0.018464 0.0176432 
0.0183399 -0.0200067 0.0181762 0.0175287 -0.0162402 0.0170874 0.0134052 -0.0144156 0.0178035 
0.0259522 -0.018936 0.0170781 0.0225652 -0.0168203 0.0166235 0.0262433 -0.0141816 0.0167848 
0.0207616 -0.0136401 0.018655 0.0368676 -0.0160378 0.0174177 0.0328684 -0.0161764 0.0181279 
0.0348956 -0.0195607 0.0174523 0.030218 -0.0191004 0.0173647 0.0306688 -0.0127592 0.0177573 
0.0410087 -0.0167566 0.0172972 0.0429624 -0.0132601 0.0176276 0.0390111 -0.0127791 0.0183677 
-0.0437195 -0.0105222 0.0183822 -0.0381984 -0.00845619 0.0175757 -0.0419659 -0.00697099 0.0175826 
-0.0447326 -0.00417997 0.018369 -0.0373399 -0.00454725 0.0172386 -0.0341879 -0.00993819 0.0173798 
-0.0294392 -0.010618 0.0180412 -0.0304289 -0.00674488 0.0177395 -0.021468 -0.0103615 0.0179397 
-0.0255032 -0.0098765 0.0182781 -0.0218991 -0.00630923 0.0181944 -0.026367 -0.00597029 0.0184943 
-0.0165262 -0.0117846 0.0174458 -0.0135786 -0.00907938 0.0174626 -0.0178812 -0.00808605 0.0181581 
-0.00881707 -0.01215 0.0174441 -0.00577824 -0.00933633 0.016753 -0.00957664 -0.00819465 0.0176238 
-0.0111544 -0.00451131 0.0176649 -0.00456246 -0.00453212 0.0167344 -0.00193147 -0.0104938 0.0180278 
0.00220593 -0.00900527 0.0176895 -0.00118875 -0.00665646 0.0171054 0.00228534 -0.00479231 0.0179317 
0.00593478 -0.0106067 0.0164658 0.00563902 -0.00694422 0.0182988 0.00920911 -0.00569416 0.016854 
0.0170406 -0.0122193 0.0181851 0.0135347 -0.0104977 0.0168301 0.0129667 -0.00667551 0.0178747 
0.0166204 -0.0047956 0.016803 0.017604 -0.0082755 0.0186886 0.0209067 -0.0100347 0.0166723 
0.0276291 -0.0101987 0.0169806 0.0244177 -0.00782109 0.0177327 0.0213803 -0.00545588 0.0166052 
0.026983 -0.00473973 0.0176551 0.0322815 -0.00927768 0.0165023 0.0352989 -0.0119339 0.0169095 
0.0357951 -0.00595977 0.0158172 0.0316248 -0.00522648 0.0159025 0.0379534 -0.00869748 0.0180869 
0.0419729 -0.00934702 0.0174332 0.0442534 -0.00698002 0.0148322 0.040487 -0.00573756 0.016451 
-0.0410156 -0.00292121 0.0175913 -0.0449608 -5.70158e-05 0.0182902 -0.0420637 0.00275258 0.0178041 
-0.0371005 -0.000475711 0.0167426 -0.0337263 -0.00282055 0.0172287 -0.0298007 -0.0027117 0.018067 
-0.031807 0.00065266 0.0167193 -0.0350194 0.00263916 0.0182851 -0.0221053 -0.00224288 0.0181821 
-0.0259545 -0.00222897 0.0170518 -0.0244719 0.00148513 0.017064 -0.0282499 0.000939094 0.018632 
-0.0184575 -0.00413444 0.018561 -0.0148451 -0.00278691 0.0174586 -0.018722 -0.000360797 0.017171 
-0.0147808 0.00126965 0.0169387 -0.0183165 0.00360633 0.0177124 -0.00794105 -0.00214571 0.0165627 
-0.00890707 0.0021081 0.0167762 -0.004303 -0.000115633 0.0164272 -0.00521814 0.00381032 0.0164684 
-0.0115042 -0.000573996 0.0183763 -0.0116522 0.004042 0.0190114 -0.000975772 -0.00264874 0.0169449 
0.00262774 -0.000802493 0.0171354 -0.000571597 0.00165074 0.0171836 0.00322354 0.00312518 0.0165235 
0.00602931 -0.00326584 0.0166028 0.00983491 -0.00149234 0.0168082 0.00635284 0.000665472 0.017459 
0.0108399 0.00182432 0.0189901 0.0194442 -0.001966 0.0169673 0.01375 -0.000427925 0.0172941 
0.0173126 0.0014671 0.016767 0.0138645 0.00366099 0.0170845 0.0233563 -0.00180644 0.017934 
0.0266602 -0.000139048 0.0164087 0.0235409 0.00241635 0.016723 0.0274295 0.00376621 0.015548 
0.0305261 -0.0011879 0.0166698 0.0345276 -0.00207637 0.0160346 0.0346642 0.0022315 0.0162304 
0.0307436 0.00287534 0.0177099 0.0442546 -0.00328905 0.017278 0.0431496 -0.000101155 0.0151176 
0.0390057 -0.00195665 0.0169255 0.0393535 0.00192533 0.0154576 0.0444557 0.003948 0.016149 
0.0449715 0.000390433 0.0189566 0.0413377 0.0026565 0.0188688 -0.0444282 0.00677533 0.0181061 
-0.0383655 0.00460659 0.0172197 -0.0398701 0.00851602 0.0174595 -0.0435208 0.0110489 0.0184325 
-0.0336252 0.00635716 0.0166319 -0.0331845 0.0107984 0.0175637 -0.0274196 0.00419297 0.0162356 
-0.0264324 0.00809378 0.0165274 -0.022458 0.00814843 0.0171473 -0.0257061 0.0122033 0.0171785 
-0.0213492 0.0120416 0.0171934 -0.0245017 0.00510818 0.0188612 -0.0147722 0.00534668 0.0167853 
-0.0184984 0.00759054 0.0174156 -0.0154617 0.0100338 0.016506 -0.0085067 0.00603936 0.0175281 
-0.00506297 0.00812036 0.0158325 -0.011744 0.00791537 0.0160305 -0.00835265 0.0104278 0.0158464 
-0.011998 0.011919 0.0172791 -0.00204561 0.00606928 0.0174795 0.00206249 0.00713218 0.0168636 
-0.00157026 0.0101425 0.015897 0.00804657 0.00419714 0.0165033 0.00877779 0.00871676 0.0164521 
0.0049345 0.00977454 0.0159317 0.0109849 0.012064 0.0174476 0.00599624 0.00696062 0.0187305 
0.0165812 0.00690027 0.0174725 0.0125451 0.00748508 0.0172164 0.020186 0.00487078 0.0167874 
0.0188645 0.0110593 0.0168022 0.0148472 0.0116134 0.016451 0.0246057 0.00647474 0.0168466 
0.0228534 0.0101434 0.0168639 0.0268522 0.0110596 0.0165723 0.0288301 0.0072674 0.0174276 
0.036763 0.00927654 0.0172478 0.0337768 0.00612225 0.0175601 0.0330993 0.0095723 0.0155389 
0.0305389 0.0113489 0.0182737 0.0376714 0.00542263 0.0165941 0.0413054 0.00678852 0.0154968 
0.0435002 0.0108435 0.0157749 0.0443041 0.00745702 0.0181173 0.0408154 0.00959405 0.0186499 
-0.0423827 0.0150414 0.0159821 -0.0395181 0.0130684 0.0181199 -0.0408227 0.0182323 0.0180649 
-0.0332475 0.0156146 0.0169764 -0.029507 0.0136704 0.0167743 -0.0367264 0.0184791 0.016788 
-0.0301916 0.01806 0.0179103 -0.0263827 0.0170492 0.0164698 -0.0227447 0.019716 0.0149352 
-0.02354 0.0153906 0.01879 -0.0174955 0.0135613 0.0162912 -0.0200238 0.0171936 0.0166266 
-0.0154645 0.0183411 0.016574 -0.00494881 0.0126136 0.0161007 -0.00854578 0.014144 0.0173785 
-0.0120435 0.0161338 0.0169888 -0.00446513 0.017749 0.0169576 -0.00853783 0.0180526 0.0163698 
-0.0118411 0.0204837 0.0159255 0.00183742 0.0123177 0.015932 -0.0012728 0.0150855 0.0153832 
0.00369367 0.0172098 0.0158401 -0.0012802 0.0203524 0.0152566 -0.00207813 0.0131623 0.0188345 
0.00123469 0.0154224 0.0186236 -0.0010983 0.0188081 0.0189881 0.00732544 0.0131994 0.0159865 
0.0119318 0.0174026 0.0161761 0.00778008 0.0173815 0.0164982 0.0154542 0.0155356 0.0170168 
0.0194644 0.0151235 0.0175754 0.0170885 0.0193458 0.016243 0.0231564 0.0142422 0.0158567 
0.0252704 0.0177099 0.015289 0.0213846 0.0189405 0.0158652 0.0262747 0.0157019 0.0186962 
0.0296977 0.0145738 0.0160171 0.0335276 0.0134284 0.0165117 0.032665 0.0173224 0.0169796 
0.0365938 0.0157675 0.0153895 0.0293306 0.019343 0.0157605 0.036749 0.0183983 0.018556 
0.0389432 0.0125536 0.0163203 0.04222 0.0150769 0.0157024 0.0405276 0.0186301 0.0164151 
0.0395647 0.0154603 0.0190248 -0.0387253 0.022428 0.0161064 -0.0365878 0.0259387 0.0167896 
[...]
POINT_DATA 6000
FIELD FieldData 7
id 1 6000 int
5932 1128 5662 4744 5227 5093 4896 2569 2066 
302 4737 2609 1154 5605 1650 4782 6010 5740 
5739 6059 3313 5943 3421 3387 313 2984 3039 
3032 18 34 5545 4439 3120 4465 3324 5962 
2536 4359 5322 403 3479 1397 2666 4610 2136 
2227 143 1152 4006 679 5052 4456 3702 5529 
5229 5728 3984 2623 2020 1088 4405 1939 1013 
2310 2222 2612 2843 1347 3957 3040 1721 3753 
2251 2392 2905 2013 1687 1563 2560 5420 5363 
4026 4853 3 4649 5402 6043 5856 3558 774 
5304 4570 2626 3549 396 2358 257 1584 1354 
426 5586 1129 3075 1767 1228 664 1576 1236 
2768 1885 576 78 2114 4139 2517 2650 44 
4867 2379 4837 5040 4722 181 4388 4249 2122 
4371 4060 5106 3416 4362 5451 3961 4284 5298 
2339 1630 5500 1732 432 274 247 214 1372 
582 440 383 408 341 1637 639 2704 2555 
2659 208 1698 1305 496 459 2857 3010 4159 
4810 4032 4789 1612 3101 5524 4074 1546 2418 
3534 268 720 1741 4777 364 5846 402 5265 
5224 2810 165 640 660 1440 758 616 508 
858 1171 864 1362 164 1272 1046 211 381 
1182 2844 3595 3245 2915 2961 2629 2709 3408 
3900 2290 4592 5495 3585 2731 4883 3793 3530 
3017 175 1376 4600 638 1078 1371 3098 935 
529 1307 88 30 468 1108 2867 840 153 
1645 1180 1246 1177 266 560 420 61 1749 
851 1514 2879 1325 1168 399 2403 572 5815 
258 2077 4391 60 3166 6006 4591 1961 3988 
4667 3552 4258 292 2327 2113 2863 2094 421 
1060 2452 647 762 441 1628 1424 100 1267 
1534 3662 590 236 133 1215 418 993 1913 
1378 1798 853 2400 1034 1069 3396 2161 3665 
2151 4690 4513 2289 2515 1627 417 4307 5982 
2111 2699 546 4791 2510 1606 1311 2326 2022 
2385 427 2366 1944 680 2071 1037 1421 1304 
2778 3068 2311 656 1816 2120 2583 1923 1932 
4965 2501 1164 687 2117 863 4264 194 2283 
2064 1679 1211 1520 819 5742 2256 910 3566 
5367 4360 2869 3998 5896 1047 1757 1269 3093 
483 549 4352 893 887 3600 2900 1713 2383 
1528 900 2987 2642 92 3431 3189 1805 2895 
2852 2352 3023 895 1399 540 1689 2258 903 
13 3367 2799 637 4019 1906 3919 1146 357 
1121 1648 3005 3087 2266 4526 3322 3427 3089 
4334 4635 2797 242 2655 2676 2789 1673 4748 
2462 1225 412 2249 3512 5819 3805 4474 4158 
5868 2708 2593 367 2962 5904 5759 5260 5639 
4682 5081 5827 4315 5416 1396 3616 3568 3326 
4312 3325 3974 4206 6014 932 4984 3054 2014 
4000 1659 5005 4534 4986 1540 2522 3714 1874 
5514 3335 5672 5592 5949 4322 5085 1558 2037 
4422 5364 5385 4743 4357 3948 3873 4567 1333 
4411 4752 4373 3212 6027 3922 4775 2625 5768 
5822 4106 4209 5302 4703 4928 5724 4809 5167 
4969 5957 5186 5701 3833 374 2261 1891 2878 
5848 5584 5156 5328 4446 2784 3587 4151 4123 
5481 361 4297 5241 2638 5665 5325 5423 1439 
3013 470 4136 5499 5956 5730 5478 3954 2453 
3069 4674 3081 4412 2922 1098 3709 5166 4240 
4013 3022 2129 5890 2427 6037 4086 3285 5573 
3586 5663 473 3725 4761 4321 3825 6032 5318 
5875 4939 2008 6029 3006 5794 3216 4353 5303 
3731 5977 1123 4509 4762 5059 5255 5014 2148 
1837 5189 4954 5281 3692 3373 3375 5915 4821 
2422 3102 5696 3414 3872 628 5348 4935 2603 
3781 5864 609 1955 5680 4382 2998 3478 4320 
3359 3260 2337 3362 5061 4350 3777 2688 2229 
3726 2505 3185 2822 485 1636 3494 2257 4924 
3388 525 5346 3882 3521 4365 20 5297 5929 
5097 3710 3892 5706 4484 5808 4128 1962 5691 
4982 4088 3576 3923 5852 4719 4267 5290 6045 
5557 985 747 4689 3230 5718 1065 2135 6053 
1145 654 350 4888 5711 2524 5238 216 5936 
178 876 209 1539 2746 241 3932 938 1600 
3311 4511 1352 1607 1730 4376 1331 1437 5700 
1631 1828 881 1045 3220 2754 1905 2982 2896 
2107 4478 1063 3459 3071 2420 3161 1242 3136 
986 2331 2130 4628 5393 2739 3297 2968 4616 
1901 4276 5147 994 3481 3455 5684 5217 3382 
471 4590 2513 1903 3208 2206 710 4087 4718 
281 5194 2920 38 531 4553 988 5695 4892 
5645 528 4602 3791 738 606 3059 3492 917 
706 2329 435 3298 235 81 3933 3913 1914 
248 629 4741 5181 1512 1189 392 477 1930 
401 1184 1472 282 964 565 520 558 575 
1632 1221 682 726 1027 1886 886 2654 338 
1711 3045 26 904 1568 2897 1043 4191 267 
2217 3758 997 3681 2861 2842 3103 2999 4685 
4872 1374 4452 4114 1949 72 5182 4893 3798 
4448 4298 4745 3570 3391 2875 2780 3677 4078 
3469 3626 2579 3235 4450 3855 4436 4004 3471 
1691 3938 2586 1715 2677 1846 574 1449 4569 
117 499 1277 358 3968 4202 49 3269 842 
71 316 502 1706 4080 3008 251 2850 789 
550 3453 1141 2775 1619 123 377 522 118 
329 507 170 2109 1436 221 301 694 987 
2 188 98 217 368 748 1066 659 91 
1232 275 951 1257 890 1339 352 1446 173 
3851 2793 641 1738 1471 2911 983 2960 76 
1693 245 797 2600 5135 742 1855 149 551 
4711 1526 1958 1195 2635 4280 5090 2633 3649 
658 3317 2081 3993 5566 5583 4668 4678 4909 
5050 4857 4403 5007 3518 1907 4188 4517 4630 
4306 4170 4807 3328 5422 4714 3432 537 252 
278 1261 1445 2338 1074 976 1093 62 63 
1456 474 552 1401 48 2363 1115 608 773 
1872 870 397 822 622 1 75 517 466 
740 1044 1011 171 145 434 136 1458 812 
857 1218 1095 1139 1071 306 444 1709 380 
538 311 1016 366 849 1369 1243 390 513 
490 1000 2631 867 1103 1070 129 279 348 
795 1792 1010 1118 2776 524 1969 1005 23 
200 2523 2325 2182 5664 874 530 2511 620 
4227 3126 433 4392 5084 2543 4035 2955 3243 
2705 446 1317 3859 1750 3747 3466 160 2393 
5560 3082 2940 3368 1306 5541 4138 4948 636 
5200 4876 2950 3545 5781 4599 4781 4680 5863 
1240 500 2059 2432 2883 2490 2990 3588 1523 
234 107 1790 2292 1505 2263 2423 3305 1722 
1782 330 1770 678 1072 984 353 906 2663 
2105 2781 952 45 1462 1223 2015 162 2095 
1420 1570 2591 1531 1525 896 1850 1887 2167 
328 3581 859 1556 1642 559 1817 431 27 
121 122 2398 1490 456 663 766 385 1864 
1724 4245 305 1991 4606 826 127 40 298 
3780 674 940 4057 31 3551 1320 1136 3409 
3028 15 828 4926 1818 4176 1621 961 4573 
2514 3226 611 3615 4381 4470 1308 2737 3369 
3967 1017 2549 229 413 5934 1934 2118 3210 
1859 1419 2636 484 1768 2478 2264 3353 3110 
1039 1426 2104 3201 1052 3340 1959 916 3915 
3262 3399 2328 2686 1667 2691 3815 1126 3406 
4126 3540 1300 3304 1831 67 518 2995 5066 
3357 4184 5575 3675 2262 2345 4098 4135 4583 
676 2868 4190 2727 4198 132 2519 1188 4664 
811 2197 2235 2751 3463 1028 927 2825 2299 
3038 2589 2463 3405 4345 86 4199 3963 387 
5419 601 1807 2884 2788 6025 1535 3327 3186 
5430 5272 3950 4865 5009 5184 5463 5821 3908 
5989 2097 1611 583 2974 3661 3393 2687 2944 
3162 4270 3594 55 5185 2302 4293 5496 5549 
3249 5780 2760 950 4453 3041 4169 5973 5881 
4118 3868 5855 5758 5082 4701 2814 3290 2683 
3460 5538 3843 3514 2341 478 3809 6021 5621 
4629 2103 4108 254 5987 1791 5743 299 4082 
4639 4651 5287 5835 4983 2116 5417 5296 3762 
5180 4705 2726 4487 4908 3889 4480 5460 3888 
4256 146 5847 1614 3775 6046 4933 2902 5984 
4277 2729 3444 4317 5139 5119 5550 5104 4432 
5543 6063 1024 5986 3898 4077 6000 5342 3850 
3333 4596 5234 3719 3411 5615 4164 4899 3288 
4489 2723 2454 2794 5032 1851 3517 4034 5897 
5374 3107 1662 5491 4501 5213 3849 1680 2645 
5685 2714 5051 5458 4687 5359 4361 3390 3306 
4134 5347 3112 5556 3736 5410 4586 3986 5565 
5841 1771 5607 4578 2508 2386 5528 3820 1363 
3737 2864 5944 4326 3152 5610 5710 4127 4829 
1601 2886 6016 5526 5203 3553 2416 4399 4347 
4502 3507 5732 5073 5202 4582 5804 4562 4464 
5358 6040 5424 5828 6017 3180 4471 4103 2520 
3415 3847 1020 4723 2344 4406 4875 3281 6020 
6023 1417 4749 3785 4340 1565 2702 6004 5215 
2195 745 2939 4195 3801 2268 4805 5244 5013 
5442 3991 1392 4042 3994 1774 1777 1323 1062 
3345 5222 4565 2316 3706 3350 1087 5588 5024 
5813 113 6065 1737 2732 2159 1293 4212 5951 
1690 5486 4309 5373 2553 5634 4988 5294 3435 
3223 4447 5760 6007 5026 4683 5515 3869 4303 
4304 4544 5539 3021 4153 3531 4140 4919 5483 
5823 5421 3699 4700 6047 5127 3539 5811 4943 
6001 5243 4131 2078 3447 4308 5055 6008 2433 
2301 4721 4433 4697 5719 5134 4220 3378 2434 
3454 5448 5440 5659 5910 1982 5563 4461 5489 
5390 3846 3997 1965 4339 3019 2840 5278 4147 
4165 2024 2711 2284 1871 3632 4363 3776 855 
4021 4904 1935 2496 723 4879 2860 796 1820 
3548 5886 2613 4759 4228 1493 1736 2362 1760 
4849 4970 3668 4466 3730 2216 3449 5124 5236 
4174 4272 3347 3949 4709 4122 2787 4740 4768 
4942 3902 5536 5372 4427 5282 3723 4746 5406 
3834 4434 126 3690 5913 3738 5105 3741 3655 
5521 3804 512 2001 5299 3030 5261 5716 4956 
5426 2542 708 1015 4910 4095 3443 3172 5531 
5188 5935 5948 2550 1707 4389 3381 2245 2108 
3342 3682 4828 1686 2355 2770 3084 1655 1909 
3192 2959 2431 2958 3323 1751 1697 2480 5995 
3035 2051 2640 272 2503 3712 1845 4486 2369 
718 2231 3026 4784 4727 2934 5445 2758 579 
5918 3857 3839 3827 2101 4073 2019 542 135 
1890 1990 4124 429 139 270 3418 969 632 
2809 2698 2346 2444 1181 2457 3724 4605 1668 
5504 1787 652 791 1652 918 2460 5043 339 
35 4556 2916 204 848 314 371 781 73 
1318 223 1765 732 411 801 614 455 1853 
2585 1802 515 2930 1092 2580 308 29 2236 
1633 737 400 2602 1550 1403 1832 1466 3057 
1829 734 1910 1766 2156 1670 3529 612 1867 
1056 2280 1249 2488 309 2406 1799 2202 4205 
5110 4094 3296 4239 3238 2365 5968 4398 4081 
4597 1312 4055 5070 4512 4780 2719 4330 4049 
5641 4342 6050 1275 5315 5769 850 32 452 
902 1031 1294 767 649 294 1922 2000 1053 
1776 336 2491 244 2036 948 570 1947 1810 
684 1163 1336 1193 810 1883 2537 69 979 
2894 3137 172 7 1197 646 128 843 626 
265 825 1055 1191 1135 713 1684 1542 673 
365 1861 410 333 942 307 177 1219 238 
725 1214 548 1038 602 379 354 1438 545 
47 532 286 1259 1284 210 569 666 580 
1192 4252 198 598 3413 2436 19 2334 4932 
2888 4459 2692 2220 5537 3321 5006 3064 2568 
4913 5802 5027 5991 4816 4842 2753 5487 4458 
4269 5965 2615 3824 4944 5678 4375 4614 4679 
4851 4370 3962 4931 4289 5788 4692 4244 1588 
2477 1345 2149 2410 2173 1021 4002 4254 869 
1710 4046 3229 66 2428 498 3066 707 2512 
1945 1254 2977 297 519 2062 957 1641 926 
17 1334 1288 56 1491 479 1022 1340 1561 
1562 721 96 310 1002 184 635 1560 1216 
130 196 388 43 1654 250 1727 619 667 
1271 1287 634 142 1398 937 603 2142 2574 
1747 323 124 3099 4571 1536 688 3218 4020 
1487 3436 2975 2132 362 3058 476 4901 2324 
3822 5633 5226 1762 5764 5259 5577 343 5176 
5488 5465 4622 5878 5503 5726 3503 5300 4632 
5162 5251 5380 4885 4702 5075 4815 4531 4536 
4725 2938 2387 3184 3128 2738 3446 4940 3544 
691 2356 3641 1953 2606 2744 1694 3366 3939 
2459 885 2807 1450 3209 2099 3177 2389 2924 
166 2577 865 701 963 3094 2032 516 2190 
2545 1385 1527 1167 1400 514 2073 1941 2144 
1916 2527 1186 319 231 461 4268 2404 924 
521 1388 3356 2972 809 729 806 3625 2622 
4100 5231 2820 862 373 2475 5454 1564 5752 
3491 1077 5103 1429 2665 189 1970 2588 5218 
1390 5658 3420 4348 3980 3316 5512 970 3364 
4482 4197 4675 5083 4881 3906 5542 2618 5074 
5652 3536 5831 4868 5649 3542 3153 3583 3579 
2748 3434 3246 3837 3599 3410 2965 4152 3511 
3020 1803 3501 3165 3173 3546 2821 4351 3292 
3806 4613 3037 1653 3398 4549 2608 3334 3678 
2110 4508 4798 4584 3442 3400 3502 5173 5569 
3779 1538 2535 4738 5911 5558 3584 3505 5812 
3810 3036 4394 4953 2777 4115 4069 5674 3749 
5033 5884 3647 2499 3848 3590 4173 5133 3052 
4141 5404 5042 4180 5834 4163 5158 4335 5616 
4012 5150 3623 4671 5285 5174 5267 5787 5140 
4224 5892 4615 5161 4477 4699 5749 2447 4341 
2242 4037 4492 4655 2076 6002 4603 5637 2835 
5091 5264 4555 3433 4261 1018 3897 1545 1877 
4891 2057 386 4485 5351 5937 1049 5930 4213 
2979 5428 4529 1856 2295 5657 2889 4915 5485 
4056 5969 5094 1473 5130 6052 3164 3612 5916 
1763 4861 5919 4503 2976 4203 4349 2907 4157 
3918 288 5126 4641 4300 4978 3266 5999 2402 
5698 2367 4959 4850 5095 4221 5731 5773 5640 
5860 5625 3133 5931 5312 6030 6036 3291 5786 
1569 2044 5447 3450 3679 3234 5725 5357 6044 
4273 3383 4354 2276 4677 3788 5394 4796 5193 
5392 2880 5248 1609 5113 5249 4839 3562 1857 
4160 5148 5276 5473 5757 4813 5331 5252 5079 
3643 5843 5994 3656 4995 5921 2193 4806 4617 
3651 3865 4011 3759 4579 4756 5436 3840 4826 
1521 3713 2890 2786 4869 4223 5972 5482 5063 
3575 4116 1110 5527 642 1773 4595 3148 1042 
3691 3559 5801 6013 3338 5350 4183 709 5152 
5792 3633 5016 5415 3795 5668 2226 4451 5561 
4031 1999 2970 5452 4090 1954 4790 1030 4581 
4238 2300 4561 3703 2413 5365 1937 2430 2199 
3464 5178 5314 1743 2782 5045 3947 4022 5552 
2158 2866 2601 3138 5653 4409 5366 2595 3603 
4766 5377 5626 3224 3814 2472 2307 4366 4803 
1183 5744 3783 3320 3194 5839 3072 1977 2137 
2581 195 4836 5003 2178 4858 3803 4563 6064 
5708 4880 3461 2874 5209 3965 1007 1256 5953 
1199 4424 5192 4380 131 5138 5391 4296 6048 
3018 5686 5555 2943 5891 3881 3425 2649 504 
4695 5327 3942 1764 2042 1825 5770 5912 4636 
4017 3773 3124 3374 3308 5409 5368 3981 4541 
3671 1865 5927 3134 5859 4500 4295 5048 5316 
4973 3819 2693 5914 3883 5382 2853 4179 3412 
5902 5849 2639 5712 2208 3250 5736 5461 5564 
4977 5903 5959 5170 2131 3361 5705 5775 2988 
5223 4462 5395 3955 5873 4156 1847 3672 788 
4726 3385 4818 5782 3456 1992 4493 5908 3219 
1646 5979 2728 3606 4302 4627 2506 5707 2767 
2184 5650 571 2450 5068 2466 4917 4226 2026 
4546 1755 5332 1361 5398 3543 5250 594 6066 
317 2954 5990 2621 4400 3941 2451 3475 4554 
2380 2919 3458 2846 3329 3935 3129 2749 4133 
6058 2187 5938 3975 3132 3733 3653 2992 4229 
4232 2594 4033 5795 1705 3861 1806 4747 4712 
4469 5833 4111 3315 3227 2112 2485 3767 3397 
5163 4638 4187 3403 3841 3639 3982 5384 3295 
3160 5266 4257 5498 4358 5220 4457 3732 2147 
5412 3826 3807 2800 3828 4101 3580 2785 3666 
2703 2912 39 3611 1503 2531 5128 2747 2587 
2054 58 321 3852 6060 2376 4819 4792 4014 
5008 2080 2063 1084 77 108 3610 1900 884 
4023 3482 1983 4208 1415 4305 4259 1938 1377 
5838 158 2005 1461 2479 3363 3856 1625 2192 
2353 3953 978 101 1204 1926 1733 2684 2811 
1479 1998 2049 3283 2891 2617 1245 1393 3769 
835 2347 2378 2772 3670 1971 589 2435 1870 
2681 493 3011 2303 6012 2856 5049 4598 2394 
685 662 415 2213 2740 852 3688 215 2232 
1148 46 291 85 324 437 303 909 3379 
296 4263 156 630 645 2438 1651 1194 698 
1968 577 1200 83 2274 395 3012 1585 102 
1114 1322 2653 1838 1434 463 1100 1315 2910 
1708 1754 3452 2817 24 3263 941 93 2343 
6024 1176 4767 334 2926 1079 4515 2150 2964 
4472 1830 407 3931 3972 3247 3890 3377 960 
2237 1827 2277 315 1492 1647 1160 2538 1360 
1924 42 543 1383 700 711 965 2127 2233 
1366 2877 2578 1735 804 755 2038 14 584 
1004 1090 2248 568 152 1406 670 829 1452 
1157 897 393 28 337 727 1203 1097 256 
2439 555 724 605 1138 64 1206 841 818 
1516 104 677 1075 384 798 480 785 1511 
207 1671 672 438 453 1819 2656 981 2805 
2534 4346 4920 2646 3389 50 2304 3488 3476 
4923 5121 5753 4343 4824 3171 220 4204 3903 
1987 2935 5362 3282 1943 5651 5612 4329 6049 
3467 4338 5756 794 3541 5630 3477 1794 2829 
6018 5722 4356 1574 971 657 1746 3607 1482 
1739 3085 2700 2297 4125 930 2340 2018 3473 
3231 2228 2181 2335 3251 1448 1172 752 883 
1598 3100 2050 1559 1258 206 1358 651 671 
2265 262 404 1626 2060 1590 591 168 105 
1480 451 280 564 1465 907 1643 715 57 
523 370 756 2241 3597 1481 3929 472 1510 
1718 1888 3909 325 9 3106 592 2100 1957 
2996 1579 4438 4045 2528 5600 4105 5270 4390 
5518 2530 5810 5572 5952 4314 3440 5155 4072 
1753 5582 5323 5242 4843 4993 2333 4497 2722 
5830 4193 2563 4681 5011 5439 5703 2133 5022 
5729 5806 5551 3870 3956 2165 5403 5004 5143 
2007 4413 2405 2881 2870 2469 3745 1716 4005 
3048 4053 3685 3065 2620 4691 3838 2696 4528 
4155 4559 3652 1124 2023 2391 800 1551 567 
2983 1723 273 1395 482 1605 2273 1843 442 
2928 347 4698 3489 2798 1329 1099 587 2941 
2497 21 2828 1299 2306 5099 681 3614 3904 
2980 1226 1162 3457 2720 4852 3705 2764 3310 
5925 3480 6055 4119 5981 4653 5431 3996 536 
4543 3275 5108 4620 5092 3985 2029 4990 4934 
4234 3046 4763 4845 5381 2180 2841 5958 4068 
3015 6038 5850 5933 3589 5214 5023 5466 3940 
5301 5501 4694 4557 5112 5544 4730 5683 5642 
3659 3617 4507 2481 4608 3910 2052 4946 3240 
4418 4999 4091 4854 4755 1012 2993 5386 1603 
3380 3811 3895 3885 4793 2610 3721 4566 3076 
2766 3619 4693 4200 5721 5195 2467 3646 5576 
5945 5283 5644 2986 5096 4673 4724 3979 599 
2947 5785 3740 4887 4652 4460 4275 5443 5275 
3928 5631 4445 1956 4442 5922 4601 3044 4757 
5337 5604 5254 4247 4972 5257 3096 5284 2804 
5438 264 4870 3990 4431 3664 4522 5100 5817 
5547 1717 4619 5125 5574 5183 3279 3667 4519 
4717 4658 3934 817 3680 4120 4217 4844 6069 
4146 5383 5598 3014 3135 4670 1617 1848 5745 
5212 544 4739 2016 5253 1552 3004 5321 4676 
5877 4379 3924 4327 5771 3876 2084 4483 243 
2047 3582 5648 2092 5590 3925 5961 5137 3060 
5942 5585 5123 2507 3063 3711 5334 5627 5661 
3352 5997 5832 4402 2942 5239 4075 4654 5054 
2223 2041 5622 5464 5825 4112 4564 1202 5201 
5151 5117 4998 4473 5738 4325 4817 5620 3875 
4728 4886 1795 5021 562 5776 3694 5221 3000 
2211 5879 3145 2541 4548 5793 5746 3884 5171 
4838 4799 4514 4071 4414 5444 4937 5747 3474 
5694 2674 5401 4054 746 3952 4175 4266 4423 
6051 1504 5407 4332 5225 4736 4207 5361 5116 
1351 3523 3844 1882 249 443 1699 3332 5246 
5874 2160 5490 3506 5681 5207 3280 2313 3864 
1692 6035 2742 1640 119 3236 4437 5777 2554 
1484 2981 5340 3319 5618 3144 3217 3547 5667 
2168 2715 3970 1940 3515 3799 4624 2792 2763 
3485 3237 4010 1656 5293 5870 3604 1557 5279 
3569 4918 3355 757 4776 5399 4647 1230 3242 
967 3878 2823 1594 1001 5432 5767 3628 5307 
5484 5036 2590 1586 2929 2360 1701 5851 5072 
2287 2381 2390 3880 68 3927 5867 4104 5673 
2183 4662 5741 4966 1489 5118 3592 4716 2285 
4454 226 744 3771 1506 2128 878 3874 4192 
3255 159 5762 4877 5702 813 2278 199 1946 
5295 2813 3203 4189 4372 4684 4440 4968 5208 
5142 1179 1365 2470 3930 3130 1547 4510 5441 
2270 1826 5449 5699 1435 5177 4364 3386 5146 
4811 5352 5256 4410 1104 3424 5928 137 4271 
2969 5356 4099 5219 3983 5389 4831 802 4846 
973 5964 1808 5971 4604 3920 1664 3009 3578 
5235 3426 4585 2443 5205 3417 4659 4367 2043 
3717 4499 5494 2872 2921 4003 1035 2198 4383 
5336 1474 3832 3596 2632 1346 3159 3774 5015 
4219 2498 3720 5080 1610 4609 1217 736 2855 
3188 1350 1784 497 3794 3346 5516 3258 2605 
5676 5292 5333 5853 2834 3354 4704 2652 4706 
1143 4463 4025 2827 5523 5763 3300 4734 5115 
1338 5646 4963 3141 3122 2882 4222 2106 1929 
2495 1775 735 1676 2848 4290 4985 1379 111 
5909 4800 3914 4496 4874 945 5858 3027 3964 
4211 4355 4518 3729 5513 4292 3591 4083 190 
5682 3270 3147 5206 4243 3213 1928 703 1289 
777 1813 820 2163 4253 5675 2953 3284 2384 
1443 3111 4841 3445 2230 222 5976 787 2056 
1720 5088 1702 3565 776 5262 1132 4538 3631 
2134 2401 3509 998 5450 114 2598 3602 1785 
5245 2644 2967 1801 3451 1695 2721 4331 2293 
3944 5154 3154 5459 6057 3195 4143 1498 4052 
2567 4237 3056 1086 6041 1367 1748 2070 1873 
1238 1839 1387 320 179 1134 1280 51 1091 
1899 2547 2074 588 109 382 581 284 894 
827 94 669 201 921 1915 492 3757 405 
1032 3618 1548 261 70 1404 1213 936 1029 
1797 627 1592 2322 447 2518 1985 4274 1669 
2219 1153 33 5647 875 1789 5309 4196 5190 
5101 1220 3663 3746 2209 2582 4089 3143 1618 
4751 1644 1384 554 239 4428 1019 5280 4344 
2336 2556 868 2069 3520 4633 1948 2971 4241 
481 5876 5078 2716 696 4804 5153 1165 2529 
1356 1869 1911 1409 2093 3778 1616 2028 3083 
1658 2003 1235 989 561 1342 761 716 112 
808 1067 1348 839 161 185 351 974 359 
1094 578 1101 445 805 344 219 97 134 
665 2396 2521 675 1862 1638 557 4154 3689 
4964 4650 2426 618 4377 4144 3232 3215 2908 
3755 6062 1499 2045 2440 604 140 1567 5866 
1758 5955 5587 3696 5020 3921 1033 5263 5411 
5844 3728 5733 4066 2675 3448 1572 4523 5002 
4771 3484 3718 4856 1809 2658 4374 2175 2200 
2680 2372 1624 5602 2145 2836 3428 3119 2761 
3272 3265 1703 1786 1273 103 1876 1161 1734 
1175 1085 1156 1234 1444 450 759 779 815 
764 879 1266 1048 553 439 539 3430 959 
2441 227 2315 3206 3510 1497 2830 933 4520 
2695 4181 2210 2067 1821 2364 4494 3704 2551 
4715 4065 4783 2923 3535 2927 5344 3314 5330 
4797 6031 3700 5906 1602 1475 2125 5277 5320 
5807 4235 285 3853 1529 4773 3829 4225 4589 
5467 4898 3289 5457 5836 4975 4787 2611 2493 
3893 3254 2429 3750 2790 3309 3999 3635 2561 
1239 2724 3470 3257 3598 5923 769 763 430 
692 87 84 2296 771 1432 2373 1158 1814 
892 731 1973 2826 3256 1260 2395 3339 4113 
1185 2294 110 4043 2634 3816 3002 5172 4008 
5954 4301 4506 4001 5047 5479 3946 1026 4772 
4552 5519 4194 4916 2637 2201 3640 5613 2845 