# vtk DataFile Version 4.2
Generated by LIGGGHTS
ASCII
DATASET POLYDATA
POINTS 6000 float
-0.0158077 -0.0399306 0.0180866 -0.00653384 -0.0445159 0.0184353 -0.0118445 -0.0400632 0.018691 
-0.00268408 -0.043927 0.0174709 0.000922143 -0.0421656 0.0176873 0.00343246 -0.0390517 0.0172694 
0.00383527 -0.0447958 0.0186607 0.00640034 -0.0417676 0.0177919 0.0100501 -0.0400787 0.0183557 
0.00696011 -0.0376237 0.0190251 0.0195267 -0.0383299 0.0185889 0.0132428 -0.0376835 0.0190294 
-0.0326004 -0.0309705 0.0187326 -0.0245582 -0.033615 0.0178186 -0.00956092 -0.0367576 0.0188258 
-0.00669214 -0.0339573 0.0187497 -0.0117795 -0.0290152 0.0187689 -0.00316679 -0.0360484 0.0175502 
-0.00176017 -0.0321494 0.0174667 0.000866305 -0.0359889 0.0180651 0.00199519 -0.0312337 0.0187208 
0.00467503 -0.0343251 0.018819 0.0101353 -0.035181 0.0186918 0.0116944 -0.0313594 0.0188919 
0.0174737 -0.0308341 0.0172315 0.0147241 -0.034007 0.0180824 0.0216802 -0.03137 0.0172761 
0.0262561 -0.0324911 0.0187188 0.030242 -0.0332223 0.0183192 0.033485 -0.0299954 0.0162071 
-0.0384581 -0.023259 0.0172948 -0.0358596 -0.026268 0.0179816 -0.0340146 -0.0226217 0.0185685 
-0.0300819 -0.0227212 0.0175764 -0.0274637 -0.0280977 0.0177295 -0.0262567 -0.0240052 0.0183781 
-0.0142937 -0.0253309 0.0184097 -0.0101735 -0.0254627 0.0176502 -0.00746417 -0.0211528 0.0187525 
-0.00376999 -0.0227534 0.0184301 0.00274029 -0.0271654 0.0182676 -7.21015e-05 -0.0212163 0.0188408 
0.00683197 -0.0264866 0.0181278 0.0108679 -0.0274375 0.0187131 0.0106772 -0.022602 0.0181565 
0.00677184 -0.0224276 0.018999 0.0195029 -0.0268235 0.0175985 0.0139672 -0.0249229 0.0179493 
0.0174912 -0.0230741 0.0183978 0.014228 -0.0207659 0.0177764 0.0237318 -0.0267437 0.018528 
0.0270821 -0.0287783 0.0173805 0.0248698 -0.0220969 0.0177169 0.029021 -0.0254078 0.0185301 
0.0356542 -0.0273469 0.0185148 0.0316385 -0.0222299 0.0190174 0.0378783 -0.0239765 0.0184056 
-0.0389145 -0.0163371 0.0174376 -0.0424687 -0.014541 0.0169876 -0.0364627 -0.019726 0.0168622 
-0.0325771 -0.0186823 0.017946 -0.0311963 -0.0148526 0.0181104 -0.0349541 -0.0132984 0.0180832 
-0.0244219 -0.0192706 0.0183499 -0.0265021 -0.0154689 0.0185914 -0.0218601 -0.015879 0.0190384 
-0.0165739 -0.0206226 0.018215 -0.0203858 -0.0196098 0.018908 -0.0152364 -0.0138332 0.0189054 
-0.0130531 -0.0188332 0.018945 -0.0108488 -0.0154627 0.0187147 -0.00801983 -0.0125453 0.018849 
0.00131255 -0.0141924 0.0184958 -0.00367552 -0.0187409 0.0187626 -0.00265221 -0.0148755 0.0189037 
0.00368521 -0.0198108 0.0188802 0.00507648 -0.0127734 0.0187942 0.0177956 -0.01911 0.0189572 
0.0252121 -0.0180527 0.0176782 0.0254403 -0.0141268 0.018786 0.0292476 -0.0152815 0.0183556 
0.0290045 -0.0192679 0.0181027 0.0366497 -0.0163481 0.0184295 0.036016 -0.0203977 0.0184195 
0.0328603 -0.0179012 0.0186445 0.0340795 -0.013197 0.0188348 0.0408409 -0.0164258 0.0184555 
-0.0395477 -0.0117247 0.0170786 -0.0436003 -0.010727 0.0178574 -0.0414537 -0.00624685 0.0174496 
-0.0366488 -0.00890112 0.0186605 -0.0322238 -0.00991174 0.01825 -0.0297376 -0.00672495 0.0185593 
-0.03436 -0.00535383 0.0181448 -0.0285855 -0.0118269 0.0183962 -0.0241822 -0.012076 0.0187446 
-0.0223835 -0.00815533 0.0187706 -0.0145722 -0.00854707 0.0184726 -0.0183592 -0.00681434 0.0186862 
-0.01827 -0.0110746 0.01864 -0.0118559 -0.0115361 0.0183363 -0.0110229 -0.00628397 0.018483 
-0.00701315 -0.00587448 0.0182528 -0.00193815 -0.0110738 0.0177324 -0.000246474 -0.00734803 0.0176056 
0.00322985 -0.0053879 0.0183243 0.0129674 -0.00914004 0.018541 0.0169715 -0.00624971 0.0187668 
0.0206012 -0.00442457 0.0183726 0.0239029 -0.00679034 0.0186398 0.0357481 -0.00770777 0.0189867 
0.0380961 -0.0114473 0.0188969 0.0413646 -0.00905869 0.0187323 0.0445043 -0.00632774 0.0187783 
0.0391968 -0.00568489 0.0187819 -0.0443406 -0.00313359 0.0158431 -0.0380048 -0.00162391 0.0177916 
-0.0415645 0.00100901 0.0167348 -0.0377002 0.00251911 0.0180996 -0.0302138 0.00130789 0.0169527 
-0.0244458 -0.00126901 0.01761 -0.0243265 0.00394772 0.0175629 -0.0155721 -0.00262142 0.0182968 
-0.0164672 0.00163299 0.0180493 -0.0205512 -0.00236547 0.0186374 -0.0101347 -0.00224793 0.0183089 
-0.00734344 0.00104934 0.0178946 -0.0112134 0.00181543 0.0186226 -0.00296501 -0.000227526 0.0179729 
0.00155122 0.00114262 0.0185322 0.00460804 -0.00160531 0.0180893 0.00932498 0.00285185 0.0179197 
0.00544412 0.00235634 0.0188365 0.0200222 0.000252932 0.0185474 0.0155922 0.00170022 0.0182598 
0.024403 0.00378923 0.0186383 0.0271643 -0.00358924 0.0189625 -0.0445359 0.00491618 0.0161157 
-0.042957 0.0109989 0.0149695 -0.0381843 0.0107767 0.0168744 -0.0409851 0.00536582 0.0190087 
-0.04416 0.00834402 0.018335 -0.0370102 0.00643267 0.0167499 -0.0294161 0.00618179 0.0170512 
-0.0297386 0.0104689 0.0175253 -0.0339187 0.0112123 0.0173106 -0.025577 0.0118919 0.0181774 
-0.0174187 0.00654613 0.0181241 -0.0128644 0.00549728 0.0187563 -0.0143839 0.00927964 0.0184182 
-0.00804646 0.00579591 0.0178496 -0.0066444 0.00959884 0.017161 -0.0105941 0.0112164 0.0179121 
-0.00424045 0.00445486 0.0188733 -0.00223219 0.0082039 0.0173077 0.00295501 0.0103615 0.0177141 
0.000334919 0.00530438 0.0185766 0.00414478 0.00659822 0.0187227 0.00815272 0.00698298 0.0181703 
0.0107268 0.0117718 0.0182526 0.00683611 0.0108337 0.0188458 0.0128567 0.00463741 0.0185751 
0.0204145 0.00424147 0.0184437 0.0195716 0.00982801 0.0186848 0.0155188 0.00967983 0.0185255 
0.0167101 0.00574263 0.0187448 0.0228004 0.00744041 0.0181663 0.0253066 0.0121222 0.0190486 
0.0365436 0.00960436 0.0185083 0.0348354 0.0059639 0.0189497 -0.0421604 0.014571 0.0171527 
-0.0382194 0.0156865 0.0177672 -0.0403269 0.0194217 0.0167092 -0.0313641 0.0148138 0.0174852 
-0.0364173 0.0194659 0.0179232 -0.0238526 0.0159777 0.0179742 -0.0278909 0.0185358 0.0181234 
-0.0180129 0.0126103 0.0171113 -0.0166035 0.018545 0.0170321 -0.0128154 0.0177161 0.0182842 
-0.0203241 0.0202038 0.0171936 -0.0196077 0.0163157 0.0185869 -0.00919065 0.0159543 0.0174386 
-0.00491007 0.0176996 0.0176964 -0.00939335 0.0200646 0.017828 -0.00317141 0.0131902 0.0172268 
0.000237016 0.0152192 0.0181209 0.00293291 0.0183237 0.0177877 -0.00115584 0.0196301 0.0185165 
0.00409143 0.0141855 0.0186928 0.0116806 0.017033 0.0186528 0.00820197 0.0148485 0.0189109 
0.0153455 0.018673 0.017865 0.0142233 0.0135883 0.0190368 0.0218405 0.0140683 0.0185465 
0.0259759 0.0200418 0.0172917 0.025055 0.01645 0.0187913 0.0367868 0.0187063 0.0184459 
0.0347774 0.0149249 0.0188174 0.0387094 0.0137441 0.0189801 -0.0371117 0.024165 0.0154524 
-0.0329843 0.0228196 0.0179734 -0.0341615 0.0274031 0.0166649 -0.0296167 0.0275225 0.0177529 
-0.0281766 0.0236612 0.0177489 -0.0208845 0.0267856 0.0176431 -0.0256266 0.0276155 0.017241 
-0.0130107 0.0218894 0.0178895 -0.0170651 0.0232747 0.0176677 -0.0132073 0.0270018 0.0174078 
-0.00998895 0.0245777 0.0184164 -0.00542272 0.0267651 0.0179205 0.00182231 0.0230097 0.0181195 
-0.00214117 0.0236466 0.0179595 0.00253711 0.027642 0.0182547 0.00586619 0.0222884 0.0185547 
0.00784235 0.0287886 0.0183488 0.0126646 0.0234966 0.0184889 0.0201612 0.0211922 0.0179332 
0.0156677 0.0266275 0.0182031 0.019584 0.0255801 0.0189037 0.0229358 0.0280505 0.0179547 
0.0304715 0.0275498 0.0176371 0.034909 0.0272958 0.0180853 -0.0294712 0.032117 0.0171457 
-0.0215805 0.0311498 0.0167787 -0.0264711 0.0350743 0.0172541 -0.0176932 0.0321586 0.0173132 
-0.0136599 0.0324631 0.0179115 -0.0191028 0.0367132 0.016758 -0.0113999 0.036237 0.017385 
-0.00743545 0.0347184 0.0165533 -0.0096375 0.0316396 0.0185742 -0.00259315 0.0326151 0.0175971 
-0.000787595 0.0362229 0.0182479 0.00349157 0.0364728 0.0186376 0.00118646 0.0320613 0.0190171 
0.011053 0.0329658 0.0177654 0.00560668 0.0325189 0.0185604 0.0115997 0.0369577 0.0189255 
0.0125047 0.0291346 0.0177208 0.0151146 0.0346406 0.0174681 0.0201329 0.031532 0.0185636 
0.0184198 0.0368065 0.0185003 0.0240429 0.0326601 0.0178015 0.0262408 0.0364017 0.0183517 
0.0293999 0.0338757 0.0178298 -0.0235343 0.0377663 0.0163043 -0.019184 0.0406226 0.0176471 
-0.012583 0.042813 0.0153662 -0.00682072 0.0399204 0.0177789 -0.00512061 0.0435754 0.0170767 
-0.0111177 0.0402464 0.0182679 -0.00921703 0.0440201 0.0181929 -0.00118457 0.0443502 0.017424 
0.00343166 0.0446983 0.0176053 -0.00265943 0.0406963 0.0185953 0.00496846 0.0402566 0.0181815 
0.0096082 0.0427264 0.017537 0.0074155 0.0370918 0.0178444 0.0147392 0.0389321 0.017398 
0.0180752 0.0411682 0.0184618 0.0135791 0.0426813 0.0189574 0.0221423 0.0391262 0.0177282 
-0.0217697 -0.039328 0.0208029 -0.0209793 -0.0397568 0.0254311 -0.0241132 -0.0379406 0.0237349 
-0.0248765 -0.0373944 0.0191221 -0.0181497 -0.0411133 0.02119 -0.0133614 -0.0389784 0.0230966 
-0.0142498 -0.042527 0.0214357 -0.0175827 -0.0413796 0.026826 -0.0136854 -0.042312 0.02733 
-0.0172111 -0.0384966 0.0240681 -0.0184144 -0.0373574 0.0197805 -0.00786348 -0.0408733 0.0194765 
-0.0106555 -0.0437139 0.0199532 -0.00580917 -0.0375286 0.0203261 -0.0104095 -0.0416767 0.02348 
-0.00745685 -0.0443758 0.0238905 -0.00586865 -0.0407158 0.0243562 -0.00999845 -0.0438634 0.0272631 
-0.00869265 -0.0380524 0.0233724 -0.011393 -0.037808 0.0263769 -0.00597192 -0.0372575 0.0263744 
-0.00370701 -0.0448545 0.0225133 -0.00202475 -0.0402003 0.0199562 0.00021261 -0.0447026 0.021704 
0.00169733 -0.0401883 0.0223262 -0.00185213 -0.0416299 0.0239986 0.00334769 -0.0448298 0.0242228 
0.00322877 -0.0413342 0.0262025 -0.00232802 -0.0375962 0.0241612 0.00951724 -0.043927 0.0193736 
0.0068906 -0.0444382 0.0223511 0.00518647 -0.038639 0.023974 0.00845663 -0.0407992 0.0229732 
0.00975483 -0.0439357 0.0251907 0.0112127 -0.0397518 0.0261742 0.00811242 -0.0372326 0.0263781 
0.0100873 -0.0370889 0.0222469 0.0170566 -0.0413045 0.0196624 0.0133668 -0.0428743 0.0196996 
0.0137778 -0.0407569 0.0230906 0.0193435 -0.0405535 0.0228985 0.0172712 -0.0379489 0.0253404 
0.0165216 -0.0418223 0.0261229 0.0165894 -0.0376477 0.0212234 0.0230133 -0.0384751 0.0205638 
0.0217191 -0.0393523 0.0263187 0.0247849 -0.0375176 0.0241883 -0.0306248 -0.0328775 0.02177 
[...]
POINT_DATA 6000
FIELD FieldData 7
id 1 6000 int
466 552 48 755 2537 825 252 574 791 
244 1619 123 529 822 1044 441 2109 561 
145 626 1011 415 519 365 727 51 230 
248 652 20 1628 330 474 1022 1072 713 
1452 812 1157 444 507 333 789 1301 28 
1542 46 329 109 1091 852 64 214 251 
268 402 935 2326 107 957 678 1491 136 
128 171 1561 349 404 1131 380 1156 673 
1219 1436 184 377 1861 1440 515 156 392 
111 274 314 988 437 364 1243 484 740 
45 1016 840 236 635 1108 1216 1266 1560 
1369 327 564 1101 1171 1684 469 725 987 
1232 1038 781 350 396 512 178 748 1426 
857 2778 162 153 538 105 1066 388 764 
368 451 98 724 633 104 942 217 1205 
405 858 849 1648 1534 1177 887 166 865 
2167 100 1180 667 122 879 578 177 513 
605 532 253 508 286 1094 82 659 354 
565 523 381 785 805 47 682 211 656 
146 305 420 129 27 1864 859 348 490 
603 266 1465 890 867 130 352 134 914 
340 665 53 164 390 59 1910 1471 208 
400 209 811 299 13 133 132 357 40 
560 370 288 1000 57 275 1339 50 1075 
666 1192 1272 1819 438 207 338 2331 258 
637 86 601 983 819 127 227 200 1429 
1536 61 23 362 1693 672 453 618 1526 
1043 1829 2523 1901 910 572 828 970 1195 
862 160 60 446 1621 399 874 2705 658 
797 2511 1961 1093 1922 1449 170 1060 517 
1053 1733 429 773 1074 810 842 1139 66 
1376 493 30 14 172 1735 1706 684 316 
63 2444 2101 3471 1055 62 1 589 71 
537 1307 1379 69 270 452 1741 1903 38 
1031 139 1883 835 502 1311 500 1419 278 
869 638 32 221 88 421 1078 1294 358 
1456 1269 7 550 762 948 1197 1776 570 
499 897 297 1193 265 179 547 425 320 
979 1231 2070 498 1191 1715 152 804 2894 
351 307 276 588 632 670 2213 1280 382 
600 568 622 339 1652 735 660 176 204 
281 843 3639 662 3382 870 2460 80 3298 
215 49 4124 525 471 3008 647 549 1115 
75 1401 1071 976 1445 2094 1790 1039 691 
1562 1345 427 646 1090 649 1336 926 1523 
711 1235 1134 1172 991 479 1366 1135 716 
752 1387 1163 2272 1342 393 761 1097 648 
749 1086 778 1283 448 1244 1626 148 989 
839 1290 304 786 2086 1761 1141 1203 784 
955 1166 449 1583 460 685 848 363 1406 
1841 992 219 640 201 284 411 732 2547 
85 522 291 708 1148 223 3 118 2810 
35 2418 706 165 531 126 738 1713 2636 
2292 984 2097 2663 2263 1458 1421 397 707 
434 56 1358 883 2023 2883 906 1085 829 
808 1258 263 103 1734 262 369 759 1276 
1252 793 898 944 1023 112 25 1368 193 
167 1981 566 919 2083 1067 2056 2439 1381 
782 1001 464 1435 526 607 1319 337 911 
780 1151 1270 1274 235 1057 921 398 962 
1781 1897 860 1253 1138 455 1061 492 801 
94 2580 1198 909 73 894 247 296 694 
985 1194 1189 371 435 1318 1333 528 143 
1123 606 1354 1570 2366 2452 3110 2863 1606 
353 916 1300 1462 1611 1334 17 1727 2060 
1444 1450 206 671 168 1412 1348 505 769 
1234 96 1002 1590 366 450 535 1430 623 
1357 225 731 95 803 982 650 1058 1974 
1337 974 1380 1665 1824 750 555 185 182 
1549 831 1206 237 410 931 161 818 1714 
949 138 1155 116 1281 995 285 925 2 
841 445 11 602 458 821 125 256 282 
614 677 669 581 827 548 1292 861 1213 
675 440 29 1802 1092 629 2438 577 630 
1915 257 1765 917 654 747 313 1472 1184 
1525 952 1424 2264 1667 1944 3600 2022 2071 
893 1709 1304 1340 1288 1223 1052 1605 483 
1645 900 250 590 1598 196 310 721 1175 
43 567 283 815 836 591 163 1494 1573 
1524 892 779 610 1634 975 436 376 269 
465 830 807 65 1208 760 322 1143 873 
4 345 758 1036 188 1453 1683 141 202 
1286 41 686 1233 951 97 1321 222 847 
744 346 290 699 908 301 1257 616 783 
8 277 83 999 1404 33 91 558 645 
520 238 324 261 1362 379 580 1403 308 
18 34 432 576 1065 216 81 302 1891 
609 401 1584 1466 1215 1218 2328 680 92 
1614 896 1887 3662 1095 1037 851 1400 1246 
1385 1798 1850 1267 442 472 306 1480 715 
1158 1898 311 430 701 559 514 2296 1287 
937 326 1427 137 705 1643 587 1541 763 
697 634 714 280 37 487 695 534 1359 
360 1310 1952 689 359 419 1165 488 1054 
553 372 1229 120 946 1459 391 882 613 
1169 585 617 422 846 1050 213 653 271 
1217 703 180 1073 99 76 1214 775 1804 
70 480 447 423 198 627 545 1766 384 
1284 864 1027 981 726 395 1056 1045 1732 
383 886 1372 1930 582 210 1397 1221 1730 
403 459 687 583 2398 1528 2249 242 1642 
2095 1831 1527 2383 385 2341 795 2591 3068 
1923 1070 1398 2262 516 950 67 418 456 
619 1654 1185 347 328 144 915 1378 907 
21 231 1271 1048 798 845 1530 1888 539 
342 1700 501 1149 106 834 147 1237 1316 
1117 489 799 1159 541 1332 332 1119 1438 
344 124 814 1532 596 443 154 1029 1854 
1671 463 1511 936 1499 2274 2911 1446 598 
1576 19 245 1259 1046 173 2654 938 1637 
1015 997 1228 408 78 241 664 2266 1805 
2400 1724 993 540 2197 1913 1689 1034 2454 
2751 663 676 1320 121 1817 1188 2235 431 
1167 1510 461 1099 319 1186 1490 756 1103 
142 681 439 933 2241 1481 1388 826 1581 
959 2551 2862 1957 1516 2528 2048 2177 2132 
557 1792 191 323 889 2631 1862 2153 1738 
1107 1797 1638 2426 1821 2100 2521 3755 2793 
551 1182 149 2704 2534 2217 2334 2555 341 
1632 2857 181 2897 2517 1958 267 2579 3243 
1687 44 2136 927 1024 2116 863 809 1164 
367 254 1679 2161 478 4264 895 387 1211 
194 2764 729 853 940 1538 766 3396 1916 
592 325 279 298 1747 1010 1226 1969 2411 
2879 688 295 2830 3099 2574 1390 2475 2776 
9 1414 476 3689 1168 1896 2915 3595 2629 
2324 343 742 4154 2081 575 496 2961 2709 
2999 1855 3432 3851 4035 4191 2290 2659 1711 
31 1906 373 1146 417 524 1520 2256 546 
1136 961 1662 229 1162 620 1069 1749 1028 
15 2403 530 1118 175 1017 2515 1077 806 
1325 189 1306 1564 2182 1762 636 433 2111 
2996 2940 3058 611 1907 1970 2633 2393 2955 
2844 2635 4227 3101 3466 1492 42 1181 315 
294 998 978 1990 1204 1360 2605 2206 767 
1393 114 101 2684 2353 2451 2495 2049 1371 
902 1625 1846 2378 3856 2809 1277 234 2192 
2380 2457 969 117 468 1890 135 2513 2856 
3953 2586 3730 3208 1546 918 1691 292 542 
2019 4073 2867 2479 3269 2920 720 2327 2149 
1482 2000 1261 850 543 971 2237 960 1947 
1926 1827 1647 2036 1383 2038 700 584 1245 
2346 1004 2277 1748 1479 1705 1367 1238 1971 
2617 2614 2435 2772 1870 1929 3011 2677 1899 
2627 3137 2848 2791 2502 2085 2347 802 2681 
1775 1787 3227 3439 2065 3724 3315 2074 2394 
3397 3492 2850 973 2001 1668 2122 2775 5217 
3938 4746 3098 4074 4362 3416 930 1240 1588 
1716 2478 336 2173 2491 2477 657 2297 2428 
608 1810 965 1254 1911 1160 2248 2127 1586 
2028 2340 1409 2003 6 1447 1994 1676 1931 
1839 2309 300 929 753 1963 2214 625 1811 
1489 1936 1678 1699 2291 1483 3073 3105 1594 
1788 2409 2648 1842 2247 2892 2123 2323 3663 
2125 3508 1408 2494 2783 772 2055 3493 2487 
3077 2773 2997 4285 3577 2752 945 2740 303 
3964 3841 4083 3688 3591 3534 710 1145 3923 
3933 3059 5181 4088 3455 473 679 3212 1934 
2432 2387 2338 1757 2490 3353 3939 1021 1641 
885 2423 1694 1770 2363 1945 2459 1872 2512 
1953 1616 972 1161 1927 1559 1876 2050 586 
1068 891 2259 1476 1133 1486 838 1604 1384 
595 1696 1375 1537 533 2504 1834 2207 2196 
192 1900 1326 1080 1003 2298 1979 2176 2540 
1635 2407 1701 2082 454 2194 1894 1580 696 
2010 2682 2198 1940 1543 977 2102 1338 968 
1517 2741 2449 509 3213 3003 2230 1555 3379 
3914 416 3147 3033 2322 1298 2232 774 2785 
1853 3732 2542 3618 4405 190 2602 2008 1630 
1962 1152 2626 3549 3006 2339 1837 2104 1859 
2059 1505 1768 2118 2990 1959 2687 1722 2389 
2113 1551 2606 2181 2099 2015 833 1703 1448 
1273 1051 503 486 1147 692 36 1620 1202 
1496 1082 771 1335 1822 84 693 1116 151 
1125 1728 356 624 495 1468 378 813 1264 
511 2058 1355 1575 1823 1485 240 218 249 
406 872 2948 212 1153 884 1895 1826 1431 
228 1035 119 1425 712 150 1720 1137 1685 
1692 1242 1697 3027 1170 1928 820 2953 604 
2640 2080 2355 2587 1935 169 1512 1867 2930 
2550 2703 1633 2108 1968 2329 1088 1539 2585 
1914 2261 2020 2612 477 1939 3201 2105 2900 
2385 2691 3305 2974 3246 3189 3093 1782 3393 
3915 3153 963 2265 3005 2696 3020 1124 1422 
1795 1578 800 1122 1908 87 1603 1391 651 
1723 1250 722 1942 108 462 1484 556 877 
355 1248 1582 90 197 1040 1150 457 1752 
260 317 475 1278 777 1617 1006 115 856 
409 239 1084 1997 293 224 1760 573 1405 
642 272 428 1312 1353 1230 407 255 787 
733 1548 187 2376 58 723 1506 2174 2025 
102 1629 1443 2051 964 1585 734 1550 309 
698 1909 1838 1651 1434 1129 737 374 2148 
628 1600 1955 1767 1013 1828 1670 1347 2114 
426 1607 2227 1816 55 2987 2577 3210 2748 
2965 2686 3546 3089 1420 2391 2807 3177 2928 
1803 3501 3240 2977 273 2273 1395 2032 1432 
2006 1729 1413 318 1577 246 506 817 386 
68 832 424 668 1812 199 1007 901 159 
922 854 16 1796 5 1112 321 1344 544 
1014 389 880 205 289 186 494 510 1469 
52 776 77 334 1059 24 939 89 2643 
1081 1813 1187 875 1224 2532 2219 39 2343 
947 1032 1200 2236 1322 1592 1315 1503 1374 
1799 641 1949 1352 1886 1874 1698 612 1305 
1885 1905 1063 1563 1631 2420 904 1225 2258 
1531 2302 2447 2642 3162 3023 3087 2190 2924 
3209 2781 3262 3399 2821 2852 3540 2583 2983 
1556 1126 3094 482 1843 1012 3431 2545 2373 
1835 1329 1554 593 1653 655 110 1389 1478 
923 2484 888 1519 1783 770 1719 2795 259 
1567 615 414 1265 1868 1328 1106 1852 928 
1327 1033 954 1303 1475 1951 3031 980 1314 
1500 2384 1455 2817 1669 1351 2440 1464 2238 
1100 2280 569 2304 1114 2653 3413 3215 2805 
1568 1832 881 3758 2392 2754 4139 3726 2768 
2905 26 1236 1612 2560 3022 2013 3045 2655 
2501 2895 3427 2345 2462 2789 3815 2593 3514 
2352 2944 2404 1991 4184 2311 1932 3868 2814 
3398 3843 924 2144 518 2073 2120 2535 3095 
1941 2306 4135 3675 3581 1260 2941 2294 1904 
2570 2985 2826 3430 1497 1173 2441 823 2455 
1933 3117 2221 2619 2497 2526 2354 2544 233 
3163 1615 2572 2707 3909 2396 2546 3757 3106 
4070 2656 4065 2849 4650 3389 2027 2518 4280 
4205 2436 4403 2960 4346 5110 4377 1487 4872 
4883 3753 4452 2600 4909 3793 4592 4159 5040 
3040 4810 2875 3857 412 2676 2708 3107 903 
2519 1791 1673 1851 4268 2103 2117 3809 2962 
1514 2972 2799 2622 521 3463 4995 3038 1005 
2527 2395 2142 1299 2299 1718 2283 2980 2315 
3929 3597 2424 3206 3256 3625 2210 3218 2364 
3859 2588 2067 4482 3590 2618 2530 3563 2646 
3436 2220 3822 4020 2975 4252 3993 4867 4711 
5135 4459 4678 3321 3245 4188 3988 4032 3585 
4616 3762 2794 1121 3512 1399 1047 2064 3367 
1535 1627 2499 1818 1807 2151 2589 2289 3405 
3028 2825 2077 2514 3491 4360 674 413 1579 
3409 3052 2325 3615 3226 2695 3747 4865 1317 
536 2737 3082 3420 3017 1750 4105 2731 3530 
3408 3369 3126 3368 3166 4138 2543 1840 1801 
1451 2891 2134 2096 871 2069 3509 2458 497 
3733 3475 2846 2698 3374 3773 3767 2811 1998 
3975 4400 4111 3861 2216 3363 3902 3129 3361 
3449 2787 2749 2639 4133 3464 3941 3827 3839 
3458 5236 4272 4303 3124 4466 4544 3653 3968 
3453 4569 4942 4768 4447 4718 3418 5760 1739 
1849 2412 2200 2175 1624 1869 1924 2336 2971 
2538 2556 2967 2093 1498 2567 1695 2112 4237 
2485 4025 3358 2652 3424 2596 2882 4663 2823 
4033 3132 3141 2079 2992 3009 4063 3122 3769 
3748 4179 1664 3920 4831 3655 3465 2303 4187 
4700 4229 4846 3555 3741 4232 2969 3834 5194 
3935 4122 5858 4930 4605 4556 4202 5124 3982 
4080 4777 4598 5363 5049 4602 4087 4590 4649 
3216 4026 6059 3336 2212 2552 2481 3520 2877 
1809 1574 2658 3025 3085 3607 2700 3066 1873 
2716 1996 481 2847 2578 3778 2647 1675 3100 
3231 2680 2417 1772 2332 2119 2320 2075 2925 
2831 3524 1880 3224 2039 2254 3684 2859 3634 
3116 2604 2668 4036 2168 1111 3016 3079 3349 
3337 741 4918 5446 3516 3196 1889 3506 4384 
5345 3351 3867 4540 5723 3270 3770 3965 3372 
5128 4530 2694 3772 4292 4874 4260 5384 4263 
4638 4518 4496 5043 4430 5498 5290 5935 4211 
3710 3576 4353 3387 4284 5663 3913 4682 3075 
3313 3039 3421 2510 2410 2611 3254 3251 2762 
2469 4046 4005 3293 2062 1710 3229 3473 2233 
4374 2228 2620 2018 2881 3309 2106 1356 1984 
1786 2171 1746 2745 1658 1104 2372 2004 2482 
757 2321 2421 1222 1346 1815 644 1657 2072 
1110 2743 2414 2061 2466 2594 1836 1636 2382 
1808 1660 1950 2651 3280 3225 2362 1209 2188 
1875 1109 2496 1992 2260 1113 3392 2489 765 
361 1977 1639 2115 3564 3727 4219 3026 3994 
4003 3217 4021 3860 3729 1995 3230 2711 3611 
2506 4355 4243 3580 3702 2147 3032 3666 3414 
3311 4350 3443 3807 2746 2135 3984 2569 4000 
3324 2222 1659 1707 2738 4254 4002 3048 3745 
2870 3838 3446 4940 3617 3659 3128 2446 3065 
1239 3588 2561 4498 4089 1878 3257 3083 491 
2226 2724 2616 899 990 1179 1892 2143 739 
10 1364 1513 1349 2137 2209 996 1690 1784 
905 1529 966 2042 1144 745 1142 1495 1190 
1470 2087 1247 1477 1780 2068 2110 1087 1467 
1591 1674 943 1656 1256 287 1386 1020 1663 
131 1547 1062 1128 2747 2672 1251 1313 1967 
1982 72 1363 1777 2128 1688 3219 3035 2189 
1382 2431 113 2912 2531 2770 3295 3381 3084 
4478 1686 3342 2054 2623 876 2358 3335 3102 
3373 2310 2453 3013 1331 1437 3459 3184 2356 
3544 3641 3542 3366 3685 3999 3583 4608 4507 
5053 3169 2744 3157 2945 3613 2865 2442 2076 
4064 4696 2002 2317 2932 2139 3062 2040 2141 
2057 2164 3142 2314 1769 2215 1064 736 1227 
788 1569 1293 1921 335 1008 571 643 1295 
1330 174 1649 140 794 1920 1533 790 2034 
1493 1207 155 331 79 1210 1597 1771 866 
2313 1544 920 1275 1030 702 485 1297 1753 
1212 2089 709 1794 1096 1655 1241 2480 2767 
2166 1972 2250 1845 1377 1296 2755 1871 2503 
3192 2982 3478 2419 3297 639 1154 2245 1098 
2603 2959 1751 1461 2896 2750 2613 3599 3511 
3837 3652 3667 4473 4999 3579 4854 5993 3627 
3410 3248 3858 3193 3707 2993 2052 4418 3895 
3450 2610 2756 1460 1018 2833 2516 2295 3276 
1361 1595 2701 1877 1130 1545 967 1076 1370 
1518 1599 2035 621 1279 1291 243 1324 1201 
1552 2360 562 1199 527 1220 913 74 599 
2016 232 157 1407 1613 554 1993 718 12 
1943 1019 195 158 1089 2045 746 1825 878 
22 1755 1418 1442 226 594 1596 1289 2369 
1983 2312 2813 2406 2063 1978 2162 1708 2156 
3012 2202 2861 3136 3323 2666 3494 1474 1721 
986 3103 563 2130 2860 2184 2129 3406 3444 
4341 3910 5637 4603 2242 4907 4555 3434 3806 
3934 3165 2760 3340 3279 1858 3173 3400 3037 
3041 4613 3334 2766 4351 5066 4701 2465 631 
1814 1618 792 2090 1973 3958 3489 2798 1454 
3885 2641 2126 2053 2991 2816 3811 1127 2765 
1120 3619 2657 2152 816 264 1343 1522 690 
1402 2634 4395 1682 704 1602 1083 2509 1176 
1508 2725 3376 1844 2679 941 743 1985 2903 
1702 2370 2923 1754 2163 3649 3452 3317 4094 
2753 2488 2842 2739 4837 4685 3529 2229 3238 
4298 4668 3681 2650 3185 4276 2257 2780 3481 
2835 3661 3775 2729 4933 3433 4526 4293 4277 
3719 3679 4270 4334 3304 4549 5185 4453 4698 
5575 2727 4190 4098 4798 5881 3442 2467 4126 
2868 3678 4693 2995 3036 4738 4504 4584 2218 
3168 2828 3339 3646 4520 3505 3705 3584 5099 
3070 3526 3457 2854 2904 2660 2690 4113 2500 
2592 2140 2952 2978 3916 2957 4882 3239 3488 
3232 3476 4314 5476 5764 5537 5090 2692 2568 
4932 5566 4920 5577 5006 4857 5991 3855 3010 
3900 5560 4789 5487 5007 4692 5524 4901 3071 
4004 3322 2797 4352 4634 4635 4158 4164 4748 
3290 6063 5758 4965 4317 4474 3779 4082 4115 
4583 4664 3288 4108 3904 3614 4043 2720 3810 
1964 5231 4953 4001 3816 3002 4348 3780 4100 
4069 4119 4045 4543 5431 3510 4390 4964 3996 
4606 3951 4012 3704 4506 5259 5226 4438 2888 
5218 4197 5600 5176 4791 4881 5726 2950 5155 
5664 4815 5815 5583 4536 5541 5495 5200 5422 
4885 4258 4948 3805 3411 3517 2788 3551 1308 
5982 5180 4019 2869 2665 3356 3647 2549 2884 
4381 4690 2699 3963 5184 5419 3310 3316 4391 
3967 4176 4345 3186 4057 3908 4392 2463 4926 
4591 3364 4571 3980 3536 4671 3291 3327 4335 
4573 3950 4224 3545 5542 5150 5009 4699 5989 
5460 5161 5103 4477 3552 5934 1365 2644 3944 
3451 3329 1743 3138 4756 4500 3671 4331 3794 
6058 3308 2782 3844 5522 4582 4153 5366 5178 
3883 3223 4683 5515 5539 5804 4562 5409 4989 
4006 3882 4017 5833 3347 4128 3699 5406 4060 
4484 4600 5282 3869 3949 3668 5808 4853 3723 
4371 4388 5504 4365 4174 5346 3893 868 3104 
2906 2598 2721 4039 3195 4704 1917 3154 3598 
2293 3942 4271 4052 2871 4143 3412 3621 3945 
3673 5712 3670 5256 2919 5039 3029 5736 3708 
5388 5964 4847 3800 4156 4437 4167 4890 4527 
5048 5219 4099 2874 5421 2443 3277 5163 4131 
4469 4956 3804 5909 3426 6045 4985 4740 5106 
6007 4747 4892 4646 3961 5224 3738 5235 5691 
5265 5846 4434 5297 3791 6037 5684 4982 6012 
5229 5227 1800 2145 2558 3265 1948 2963 3407 
3830 2936 2493 2994 1881 4241 2483 3401 2667 
2607 3630 2918 2468 2557 3130 2818 2763 3983 
4250 2931 4407 2917 2282 3532 3927 3907 3207 
3987 3931 2590 3202 3191 5341 5035 4383 5805 
4050 2638 4029 5840 3781 4378 5867 4659 3461 
3717 4984 4433 3538 5206 4800 5205 4595 4625 
4499 4367 4290 5105 5412 5451 5913 5513 5705 
5775 4888 4457 4703 5304 4741 5348 5943 5936 
4689 5134 4737 5716 3714 1650 5514 3344 4178 
3905 2670 4053 4328 2836 2335 3272 3462 2801 
4125 3115 2802 2757 2430 2761 2377 2399 1893 
3139 3565 1866 2576 2473 2285 2710 1623 2779 
1863 2470 2529 2091 2562 2005 2351 2792 2637 
3422 2873 2098 3547 953 1860 2413 2344 2624 
2205 3286 1042 2815 2158 1856 1912 3346 2017 
3306 2939 1704 4903 1966 3553 5317 3435 4302 
4796 3268 5065 3846 1417 2033 3620 3828 3672 
3160 5223 3826 4461 4101 5489 4257 5281 4511 
3872 5915 3375 4095 5423 2800 5014 3479 4782 
5680 3954 4610 3069 5700 4013 4389 4412 3635 
4559 3992 4246 3680 4618 4691 4443 3377 3470 
3977 3151 3750 3636 4217 4804 2769 4576 4708 
4062 3402 2899 2554 2966 1902 2307 3074 2790 
2851 2669 3034 1789 2898 2759 2563 1515 2208 
1988 2571 1282 1736 2240 1764 2564 1725 719 
1601 1557 1622 1565 1341 2246 1742 1396 1918 
1439 1589 1025 855 1488 1473 2170 2408 2146 
1756 1540 1759 2461 2429 1183 2330 1558 956 
1501 1847 1773 2609 3486 2927 2951 3390 4102 
2786 2284 3606 3055 3019 3550 3057 4212 2688 
1041 3777 3957 2536 2843 3709 4376 4309 4828 
3359 4454 3682 4155 4091 4922 4946 3698 4528 
4658 4753 5960 4802 3624 4558 3573 4731 4419 
3111 1680 3743 3292 2548 2914 4316 1986 1268 
1609 2375 2037 3140 2012 2204 1504 3989 3528 
1350 796 751 183 824 1392 1262 2029 2026 
312 1954 2024 1672 2599 1502 1712 2507 754 
1255 1309 994 2253 1441 1079 1938 1820 1140 
579 1132 470 2157 1975 768 683 2276 1980 
2397 2664 3472 1507 2582 3764 2456 2107 3784 
3388 2437 2337 2943 3782 2998 2732 4382 3260 
4784 3362 2837 2933 2486 2251 4519 5269 3768 
3485 4593 5559 3842 5670 4717 5018 4755 4566 
5264 5060 5386 5725 6002 3891 5117 5138 4898 
3357 3495 3318 3622 5496 3468 2305 4379 4655 
4492 2133 2661 1102 2160 3123 2986 2124 3278 
2349 3350 932 1960 2084 4040 2270 2471 3352 
2021 3143 3198 1463 1410 93 2348 2223 1572 
2281 2885 1049 3200 1105 1026 504 1263 2333 
1009 2718 3253 1987 2829 2525 1830 3866 2553 
2030 3693 3593 4226 2901 2342 3263 1566 3852 
2866 1411 2964 4078 3567 4824 2910 2958 4055 
2379 3220 3296 4448 2365 3798 1249 1571 3829 
2796 1587 1946 3394 1610 2719 2968 1394 5809 
5310 4145 5222 5562 3608 5990 3146 4152 5207 
5549 5786 4662 5777 5671 4962 5847 4844 3897 
4961 4955 2902 3474 4213 3847 4354 3721 4327 
3145 2889 2973 3156 3061 4508 4023 5963 3197 
3190 4490 3135 3266 3249 4242 3255 3715 2359 
2929 3054 2541 2832 4230 2845 2275 3537 1415 
2841 4247 4404 3700 3976 220 2374 2908 2279 
2031 4343 4385 4204 4323 3817 4072 5027 4239 
4081 3282 3644 4913 4515 3570 4842 4114 3518 
4745 4727 2615 4517 4306 3677 5050 4450 4707 
2758 3765 2505 4512 1884 4251 3594 5343 3898 
4432 5780 5766 5984 5056 5973 4533 5693 5201 
4077 5986 5119 3696 4200 5602 5890 5855 5636 
4169 5525 5721 4915 5743 4294 5969 4118 4724 
4793 4852 4429 4673 4157 5096 5321 4396 4966 
2947 3480 3865 4435 3051 4911 3979 5818 5172 
3686 4661 4117 2893 2713 4387 3946 4144 3275 
5834 4445 4715 3903 4916 4895 5270 4816 4783 
5952 6062 5083 5092 5965 4234 3503 5658 5162 
4269 5465 5878 4622 5084 5075 4680 4781 5380 
4714 4876 4725 4599 5806 4244 4630 4632 4937 
5543 3383 5394 5116 5615 5819 5082 5139 5447 
4765 5234 5713 5550 5471 5296 4617 4651 5720 
4971 4629 5812 4899 4034 5032 4503 3749 4198 
4394 4199 5916 5919 5835 5126 2820 4181 5454 
5785 5954 3848 4487 4887 4414 5981 2946 3307 
4653 4652 5925 5033 4772 5519 4141 5633 5174 
5572 5254 5604 4470 5892 4620 5810 5863 6006 
4667 5787 5649 5678 4615 5616 5683 5503 5781 
5074 4531 5143 4730 3919 2880 5621 5473 2193 
5868 2726 3643 5331 4514 5374 3651 3889 4245 
4983 4639 4256 3998 4054 5860 3665 5742 3566 
5417 4705 5133 4850 4513 5694 5773 5042 5225 
3759 6025 5367 5512 4480 5896 4180 5430 5931 
4990 5821 5272 5125 5312 4977 5285 4619 5831 
5574 4440 4409 5927 4022 4811 5316 3840 5903 
4734 5058 6017 5202 5957 2520 5292 4103 5216 