# vtk DataFile Version 4.2
Generated by LIGGGHTS
ASCII
DATASET POLYDATA
POINTS 6000 float
0.0309137 0.0239545 0.0100356 0.0358241 0.0216024 0.0101872 0.0272607 0.0351231 0.00977797 
0.0272069 0.0308728 0.00896971 0.0332455 0.0300856 0.00983043 0.0210005 0.0397151 0.00976544 
-0.0250913 -0.0372486 0.0148407 -0.0218174 -0.039292 0.0169018 -0.0178872 -0.0385201 0.0153282 
-0.015812 -0.0420473 0.0153405 -0.0183023 -0.0410071 0.0185814 -0.0127171 -0.0429862 0.017798 
-0.0119799 -0.0402535 0.0147836 -0.0100714 -0.0438602 0.0148501 -0.00814643 -0.0377342 0.0148684 
-0.00636257 -0.0422814 0.0144065 -0.008884 -0.040939 0.0173524 -0.0112486 -0.0374191 0.0178921 
-0.00606864 -0.0445837 0.0177041 -0.00487737 -0.0389511 0.0169961 -0.00161114 -0.0403907 0.0151202 
-0.00225316 -0.0445569 0.0161362 0.00217417 -0.0403283 0.0169464 0.00176177 -0.0448043 0.0176104 
-0.000746915 -0.0381602 0.0188199 0.00455848 -0.0439039 0.014363 0.00669326 -0.0404448 0.0146218 
0.00993788 -0.0438013 0.0142421 0.0111612 -0.0395191 0.0159095 0.0118181 -0.0430571 0.0177154 
0.00578683 -0.0445725 0.0182089 0.00816699 -0.0401243 0.0185409 0.0177733 -0.0411518 0.0139731 
0.0138836 -0.0425005 0.0142073 0.0150597 -0.0382179 0.0147561 0.0157603 -0.0420484 0.0186097 
0.0167746 -0.0381416 0.0186305 0.0229118 -0.0386455 0.0136507 0.0206553 -0.0399435 0.0167268 
0.0249442 -0.0373269 0.0169893 -0.030564 -0.032944 0.0165224 -0.0332209 -0.0302146 0.0178366 
-0.0265007 -0.0334594 0.0133786 -0.0284451 -0.0298956 0.0141481 -0.0225002 -0.0324908 0.0134249 
-0.0207512 -0.0356793 0.0151894 -0.0251334 -0.0302443 0.017616 -0.0243583 -0.0341837 0.0177076 
-0.0141996 -0.0369375 0.0152134 -0.0149314 -0.032962 0.0147778 -0.0190642 -0.0318355 0.0154232 
-0.0159222 -0.0295703 0.0168567 -0.0205521 -0.0335156 0.0187974 -0.0162652 -0.0342596 0.0184434 
-0.0108027 -0.0344475 0.0151967 -0.00661935 -0.0318182 0.0149618 -0.0117582 -0.030621 0.0159087 
-0.00720652 -0.034904 0.0175503 0.0013093 -0.0367491 0.0152314 -0.000174337 -0.0288757 0.0153034 
0.000920304 -0.032872 0.017098 -0.00307155 -0.0310946 0.0170094 -0.00300321 -0.0353623 0.0166119 
0.00394384 -0.0369016 0.0187908 0.00452162 -0.0312766 0.014874 0.0116631 -0.035668 0.0146777 
0.00920605 -0.0293464 0.0145239 0.00757939 -0.0360207 0.0158435 0.00999202 -0.0325605 0.0168606 
0.00460557 -0.0328504 0.0186913 0.0067077 -0.0293941 0.0187416 0.0118414 -0.028971 0.018421 
0.013687 -0.0320238 0.0152311 0.017777 -0.031787 0.0151886 0.0188372 -0.0363166 0.0157152 
0.0155833 -0.0342977 0.0180775 0.0201181 -0.0336772 0.0186412 0.0164196 -0.029629 0.0186593 
0.0257707 -0.0332936 0.0133782 0.0220972 -0.0336401 0.0151618 0.0248077 -0.0315884 0.0173779 
0.0207513 -0.0298052 0.0173646 0.0283281 -0.0296173 0.0170942 0.028161 -0.0349214 0.0169387 
0.0305991 -0.0322114 0.0144309 0.0338331 -0.0294566 0.0155876 0.0312882 -0.0321746 0.0185934 
-0.0399844 -0.0205741 0.0166111 -0.0380191 -0.0240896 0.016768 -0.0338272 -0.0243408 0.0167322 
-0.0306228 -0.0273429 0.0167908 -0.029991 -0.0230945 0.0159457 -0.0358529 -0.0270935 0.0188229 
-0.0234048 -0.0284169 0.0142582 -0.025897 -0.0228968 0.0165814 -0.0267067 -0.0268519 0.0161383 
-0.0228259 -0.025452 0.0173542 -0.0155179 -0.0217857 0.0158382 -0.0196294 -0.0277477 0.0159756 
-0.0196673 -0.0231041 0.0166033 -0.0129312 -0.0268008 0.0157407 -0.016446 -0.0255354 0.0172402 
-0.0130671 -0.0237973 0.0185509 -0.00664245 -0.021899 0.0159265 -0.00962121 -0.0245675 0.0161656 
-0.00821698 -0.0283639 0.0161931 -0.0115567 -0.0209206 0.0161988 -0.00440631 -0.0276722 0.0151896 
-0.00612609 -0.0249355 0.0185892 0.00239167 -0.0245794 0.0147819 -0.0015434 -0.02507 0.0163356 
8.80677e-05 -0.0214174 0.015905 -0.00295574 -0.0220937 0.0186044 0.00272249 -0.0274121 0.0177162 
0.00430527 -0.0209327 0.0144473 0.0112246 -0.0256951 0.0143399 0.00847499 -0.022816 0.0151661 
0.00574919 -0.0269758 0.0151207 0.00909691 -0.0258772 0.01793 0.00595158 -0.0217054 0.018115 
0.0183465 -0.0209536 0.0141216 0.0158709 -0.0240813 0.0148596 0.0125536 -0.0216383 0.0148481 
0.0146455 -0.0278757 0.0154853 0.0188743 -0.0260008 0.0168567 0.0130724 -0.0238927 0.0181164 
0.0227677 -0.0285337 0.0138522 0.0274174 -0.0280873 0.0132397 0.0210574 -0.0241646 0.0132954 
0.0267791 -0.0242688 0.0144933 0.0232782 -0.0248745 0.0167225 0.0264652 -0.0209845 0.0185913 
0.0276985 -0.0248103 0.0186536 0.0345966 -0.0219392 0.013822 0.0305079 -0.0218814 0.0131294 
0.0364126 -0.0263275 0.0146248 0.030571 -0.0258382 0.0142938 0.0338907 -0.0234516 0.0175747 
0.0361012 -0.0267668 0.0187544 0.0385626 -0.0225716 0.0125239 0.0379167 -0.0228784 0.0168464 
-0.0403148 -0.0188286 0.0123155 -0.0414524 -0.014934 0.0153027 -0.0379916 -0.0125948 0.0151048 
-0.0376595 -0.0157229 0.0124018 -0.0329927 -0.0169439 0.0146861 -0.0326839 -0.0128912 0.0144514 
-0.0365222 -0.0185192 0.0159772 -0.029222 -0.0162484 0.0128242 -0.029038 -0.0192265 0.0167557 
-0.0330828 -0.0202013 0.0173823 -0.0358369 -0.0132147 0.0187324 -0.0255243 -0.0153436 0.0148359 
-0.028713 -0.0125482 0.0149284 -0.0250267 -0.018935 0.0167514 -0.0211357 -0.0126641 0.0168457 
-0.0216903 -0.0166481 0.0169736 -0.0187256 -0.0192014 0.0160628 -0.0180517 -0.0152308 0.0161108 
-0.0148883 -0.0178187 0.0160265 -0.0147004 -0.0141775 0.0180424 -0.0108434 -0.0130698 0.0153913 
-0.0109891 -0.0170672 0.0152459 -0.0073041 -0.0154499 0.0147927 -0.00787851 -0.0183514 0.0174871 
0.00018646 -0.0173729 0.0154284 0.00018738 -0.0133762 0.0156115 -0.00347654 -0.0149476 0.0162245 
-0.00402492 -0.0189068 0.0164234 0.00304089 -0.018902 0.0179912 0.00359523 -0.0149321 0.0176443 
0.00713335 -0.0143519 0.0150773 0.0104573 -0.0180668 0.0149498 0.0068983 -0.0180418 0.0167783 
0.0113574 -0.0150673 0.0174806 0.013489 -0.0152413 0.0140723 0.0185115 -0.016919 0.0151649 
0.0189824 -0.0128956 0.0157098 0.0148788 -0.0181493 0.0166219 0.0148704 -0.0130441 0.0171639 
0.0240807 -0.0200776 0.0141773 0.022376 -0.0157292 0.0145984 0.0268101 -0.0148666 0.0145437 
0.0249586 -0.0174443 0.0171738 0.0239667 -0.0135742 0.0175694 0.0349643 -0.0176823 0.0142314 
0.0314448 -0.0147752 0.0151069 0.0296426 -0.0186637 0.0155207 0.0331292 -0.0184558 0.0177253 
0.0370527 -0.017102 0.0180971 0.0345892 -0.0138985 0.017747 0.0380027 -0.0148907 0.013613 
0.0422825 -0.0141867 0.0114979 0.040271 -0.0186914 0.0130034 0.0404824 -0.0194154 0.0173454 
0.0424567 -0.0147913 0.0162987 0.0394421 -0.0133344 0.0186001 -0.0436093 -0.0109344 0.0124875 
-0.0394668 -0.00866939 0.0145216 -0.0373492 -0.00458005 0.0154797 -0.0437679 -0.00443689 0.0166323 
-0.0407537 -0.0107603 0.0188911 -0.0402704 -0.00633415 0.017918 -0.0440886 -0.00851215 0.018581 
-0.0354588 -0.00964978 0.0139455 -0.0337857 -0.00596857 0.0138354 -0.0325058 -0.00885036 0.0166397 
-0.0252192 -0.00630429 0.0151529 -0.021908 -0.00895928 0.0153064 -0.0250829 -0.0113199 0.0161849 
-0.0213426 -0.00490713 0.0156865 -0.0280743 -0.00864377 0.017006 -0.0179319 -0.00738168 0.0150108 
-0.0136562 -0.0101532 0.0149699 -0.0140345 -0.00628636 0.0159847 -0.0174422 -0.0111897 0.0161926 
-0.0100776 -0.00600598 0.0144969 -0.00707914 -0.0114597 0.0155094 -0.00630214 -0.00729414 0.0155859 
-0.0103114 -0.00910016 0.0172394 0.000113004 -0.00937717 0.0147201 -0.0038957 -0.00418289 0.0146266 
0.00269036 -0.00631572 0.0143782 0.00392526 -0.0118103 0.0151495 -0.00315371 -0.010593 0.0168026 
-0.00105375 -0.00704703 0.0178104 0.00255862 -0.00506222 0.0183847 0.00653633 -0.00896984 0.0140669 
0.00866688 -0.0055607 0.0139326 0.0104888 -0.0121751 0.0148085 0.011523 -0.00849856 0.0131792 
0.00752536 -0.0109911 0.0174404 0.00658309 -0.00520953 0.0174693 0.00429711 -0.00861699 0.0175925 
0.0104372 -0.00675493 0.0174728 0.0146288 -0.0112978 0.0135379 0.0125296 -0.00452066 0.0142836 
0.0153488 -0.00732591 0.0136377 0.0189229 -0.00936394 0.0136174 0.0199885 -0.0053852 0.0135601 
0.0139981 -0.00879872 0.0173594 0.0147518 -0.00447982 0.0176676 0.0179771 -0.00691816 0.0167424 
0.0227474 -0.011628 0.0142244 0.0241049 -0.00466076 0.0141146 0.0262219 -0.00808735 0.013912 
0.0272821 -0.0111867 0.016451 0.0228982 -0.00777379 0.0164233 0.0282845 -0.00714365 0.0177267 
0.0338607 -0.0120651 0.0129395 0.0304353 -0.00984035 0.0140013 0.0358724 -0.00422649 0.0118819 
0.0352629 -0.00766693 0.0140844 0.031417 -0.00582557 0.0155618 0.0326997 -0.0098987 0.0173403 
0.0368836 -0.00836277 0.0180098 0.0398473 -0.00829969 0.0131591 0.0441872 -0.0072069 0.0121205 
0.0436822 -0.01051 0.0146829 0.0407481 -0.00473057 0.0153864 0.0381001 -0.011127 0.0153856 
0.0437827 -0.00904559 0.0185212 0.0446287 -0.00531173 0.0163366 -0.0405264 -0.00296709 0.0123015 
-0.0427308 0.00238483 0.0136456 -0.0447374 -0.00243991 0.0129553 -0.0404933 -0.00124567 0.0163584 
-0.0444369 0.00262226 0.0187997 -0.0316455 -0.0023587 0.0141248 -0.0360266 0.000370786 0.015622 
-0.0320732 0.00128695 0.0159305 -0.0344154 -0.0028415 0.0176086 -0.0285097 -0.00408045 0.0159694 
-0.0282679 0.000347663 0.0147335 -0.0247878 -0.00250435 0.0137054 -0.024402 0.00170712 0.014896 
-0.02086 -0.00110523 0.0144409 -0.0258491 0.000102818 0.0183151 -0.0221533 -0.00231835 0.0186262 
-0.0218356 0.00176944 0.018323 -0.020307 0.00308034 0.0141593 -0.0171613 0.000448252 0.0153139 
-0.0140146 -0.00214973 0.0156868 -0.0133117 0.00188856 0.0155429 -0.0177203 -0.00353989 0.0171031 
-0.017909 0.00327539 0.0186178 -0.0100316 -0.00196196 0.0143255 -0.00937814 0.00202356 0.014459 
-0.00605875 -0.000829516 0.0142731 -0.0113678 -0.00291 0.0186099 -0.0108708 0.00319224 0.0186297 
-0.00854632 -5.45e-05 0.0182235 -0.00731778 -0.00362693 0.0168632 -0.00582927 0.0024048 0.0166168 
-1.9275e-05 0.00267964 0.0139173 0.00245988 -0.000410593 0.0145879 3.18954e-05 -0.00350523 0.0154182 
-0.00267573 -0.000172522 0.0166846 0.000882366 0.00152422 0.0178313 0.00540079 -0.00316345 0.0141166 
0.00627318 0.000853251 0.0139282 0.0096527 -0.00160437 0.0141265 0.0104542 0.00226679 0.0132395 
0.0051996 0.00234569 0.0180902 0.00808922 -0.000421646 0.017677 0.0118476 0.00182585 0.0171821 
0.0136194 -0.000441957 0.013425 0.0170166 0.00127979 0.012159 0.0165064 -0.0032545 0.0142727 
[...]
POINT_DATA 6000
FIELD FieldData 7
id 1 6000 int
3369 3530 4791 2111 2699 3566 5932 3325 5662 
3326 1128 2522 3974 5085 1540 5949 5514 302 
4534 5672 4326 3152 5610 6035 5152 3633 5350 
709 2313 1692 3506 5792 5415 5668 1999 2554 
5340 3795 1558 1954 313 5739 3039 5318 2878 
4744 4456 3421 932 4000 1659 2014 5156 5093 
5565 5481 3335 1874 3820 5730 2508 4782 4829 
5528 3069 5944 4743 5710 3864 5410 1363 4090 
2864 6016 5561 4422 3217 1484 2416 2226 2970 
4031 3515 1030 4238 4347 2300 2586 4371 4649 
3702 679 143 4703 5229 3984 2984 18 2536 
5545 2609 5005 5848 3120 34 2066 4439 2638 
4123 5325 6010 2222 4737 2037 1650 1601 2886 
3553 1007 1777 6064 4399 4451 4790 3706 5741 
5618 3703 5526 2159 5391 131 3018 5166 4380 
5203 4502 4561 4567 3507 4581 1078 1449 1445 
4249 5402 1371 1546 5106 4362 4074 1715 3416 
1741 4088 3961 5303 2020 4570 1088 4405 5728 
1939 3075 4465 3102 5322 5962 3324 4136 4935 
5423 5813 1323 3013 3350 3081 3479 5222 4674 
5364 4412 4363 2453 4013 4357 1293 5740 1690 
5891 4240 1098 3948 3873 1937 2430 4309 1240 
2990 421 2059 2338 500 292 638 3098 63 
935 402 5298 468 502 660 2339 2810 5846 
274 396 1584 1630 426 582 1767 3040 5586 
1372 209 1347 1228 4359 3753 5680 664 2843 
609 1397 1885 1236 1721 78 5478 3220 2998 
2905 2331 2251 3709 3260 3777 2129 3954 3726 
4610 2337 2922 2227 5486 2732 5373 2136 2666 
3022 2013 2423 2113 3305 1419 2510 234 2863 
1790 2292 2094 1060 1307 88 30 330 517 
857 1628 840 1108 1180 2867 952 758 153 
1440 640 1709 508 214 1645 1272 1046 1129 
440 383 408 1637 576 2704 211 1576 208 
639 1698 4382 459 3758 2768 2517 997 3459 
1305 4139 5393 44 2114 3071 3161 2392 4867 
1612 2650 3494 2379 2739 3185 1687 3388 5890 
2968 2229 4924 181 2118 484 2326 2636 1606 
1859 1311 1269 107 2022 2452 1039 2385 427 
916 1426 2104 2071 1525 45 906 441 2366 
1570 1944 1420 1534 1177 1424 2778 236 1246 
1850 680 1887 420 164 133 1490 851 61 
1378 1749 572 1168 2844 3595 399 853 2915 
1514 1325 2629 496 4032 1949 2659 2857 5090 
5050 2290 3010 4837 3681 3798 72 4789 3677 
5182 4893 3469 4078 4159 2257 4883 5524 4722 
2780 4616 2560 5040 2447 2748 4341 2974 3110 
3353 1768 3201 3434 3915 5549 4293 2944 647 
3262 3433 2328 887 1037 3087 2900 3399 55 
3406 1421 2987 2311 3068 5855 4184 1300 2583 
590 1164 418 1304 1215 132 2117 1034 1320 
2400 194 456 2403 258 1069 2161 5815 3900 
2077 5583 2709 3408 4391 5495 1961 4909 3793 
4668 1907 4114 4810 4188 3988 2731 175 4678 
3855 4306 3101 2875 4436 4450 4276 2097 583 
1757 4152 2264 3165 2687 3599 4555 4603 893 
549 1648 4352 2302 2076 2902 6046 1713 483 
5780 3249 5543 3600 2383 3005 92 4453 4701 
900 2814 2120 993 687 4965 3431 2683 863 
2352 2256 2064 5742 3023 387 1816 895 3963 
1136 3665 2515 4592 2289 2283 3166 3226 3028 
4513 4591 3432 6006 5982 60 2514 3466 3082 
611 2940 4258 3552 4948 636 5200 4876 5007 
5781 2950 3585 4138 3017 5422 4670 5786 1545 
4270 3661 5847 5264 2835 3679 3234 146 3594 
3897 1614 4526 4213 5725 2266 3089 2642 5973 
5104 3444 6063 1805 1528 2249 2895 2462 1673 
3514 2103 2593 540 2799 4158 4264 3367 3919 
2116 367 4307 5367 2151 1627 1211 5419 3998 
3186 4381 910 546 5896 229 417 2869 1308 
2737 2549 3545 4667 3967 1017 3162 5447 3322 
4933 5984 1569 4432 3450 3383 5119 3898 3427 
4635 5139 4748 2676 4334 3333 3850 2797 3189 
5342 1024 2655 3288 242 4164 3512 5897 5819 
412 4034 3411 5868 4474 5032 2962 1520 3107 
357 3517 4360 1146 637 1121 1047 3327 3908 
5227 5904 5639 5081 5827 2569 4315 4775 3568 
3616 5416 4984 4986 3737 4134 4586 6014 5051 
3559 5685 1680 2714 3338 4116 2386 5527 3736 
3986 4578 3575 2890 5556 4869 3148 5801 6013 
2160 1773 3332 5063 642 3691 966 4825 5681 
5246 2360 2981 3547 3905 5420 5573 5363 1152 
3521 6059 4682 5943 3313 5724 6027 5875 3212 
2625 4312 3387 3032 4206 5957 5328 5347 4928 
4809 3306 4896 3390 3054 5592 6023 3112 4749 
5167 1417 5607 5841 4183 4322 5013 3785 5215 
2742 5003 5207 1640 1042 2137 2287 4437 5016 
5145 3236 4662 5673 119 5452 3144 2413 5777 
2168 878 4862 3799 4624 3237 3485 2206 5684 
2513 4388 5052 2418 4853 2122 1903 4026 2677 
4006 525 3 6043 5856 3216 5794 1962 5929 
6037 5097 4106 2623 5529 374 5701 5584 3833 
3714 4939 3587 5665 4297 2261 4446 1154 5605 
2784 361 4151 745 4340 5385 5241 1771 2268 
5744 5244 2939 1565 4803 4836 2581 2178 5442 
3965 3803 195 5708 4296 4104 2715 2874 4858 
2792 3319 3970 4966 4716 226 1489 744 5686 
1940 1410 2285 1656 3786 2763 4454 159 5365 
4010 1376 1691 976 4569 117 537 3208 850 
710 4128 4600 574 4777 3534 268 3471 49 
3558 38 5194 531 3923 6045 774 4060 4087 
3576 5977 5557 5304 985 3731 3006 5281 747 
3549 1123 2358 2626 1013 5014 1891 1439 1354 
5189 654 2148 350 4195 4042 3373 4821 3801 
3991 2422 5915 3378 4805 3345 403 4127 1774 
5956 3994 4565 4461 5448 5390 5024 1256 2316 
5138 1737 4880 1062 3461 4147 1199 5489 6048 
1087 855 6065 4424 3717 5908 5192 3425 3881 
5588 3255 113 5555 3942 2199 4695 2649 5951 
504 4988 5770 2943 252 2432 358 2477 2490 
2327 1523 1261 2363 278 1093 62 48 1401 
552 3968 499 842 4202 529 5265 870 71 
3008 988 3453 2850 1706 5451 4553 720 4080 
4284 364 2775 5224 5500 247 435 251 2329 
3933 377 1732 178 81 432 522 1189 738 
694 3311 392 257 2310 1600 3375 5348 1472 
1930 1539 1631 5499 3957 2612 1607 1352 470 
2603 1955 1331 5700 3414 3781 4376 1905 2982 
4320 5278 5864 2840 3359 4350 2688 3478 2284 
4165 4212 1636 3362 4021 3776 4627 5650 4904 
1935 2822 2505 5061 2553 5634 5886 2042 5294 
2496 3435 2883 2263 3588 1722 1934 3641 3184 
869 2512 3544 1505 2478 474 1770 608 3066 
1872 1782 466 1072 885 397 762 984 622 
740 66 678 75 789 1011 1462 550 1458 
171 165 1218 2109 822 1171 858 444 266 
616 812 98 301 1512 565 1362 1446 390 
864 173 341 1045 659 338 575 1730 2555 
1886 2754 2654 1221 3045 881 4478 26 2130 
1063 2156 2107 2896 904 2431 3136 3323 2420 
4448 3632 1751 3103 1697 2958 1242 1563 986 
3712 4879 718 3026 5995 796 2860 485 4849 
1845 3548 2362 1820 2613 2758 4486 4759 691 
3366 3210 3153 2744 2356 4608 3542 3410 3093 
3340 3246 3546 2663 3020 2105 1953 2099 2052 
3177 1959 2781 353 1052 2577 2459 2015 2807 
3209 162 1531 2591 3815 1667 1223 136 701 
2545 2095 1831 311 1267 100 1642 859 1016 
306 3662 67 2398 560 795 513 2879 524 
381 200 1913 1182 890 1798 129 490 1969 
245 1792 1195 3245 4191 267 797 551 874 
2999 2897 2961 1374 2081 2861 1526 4452 5135 
2633 1855 3649 3317 2842 4685 4872 658 4745 
3570 3238 2202 5110 3297 4298 4628 4597 2369 
5070 2365 4727 5968 5147 2934 1901 3481 4784 
994 5445 2965 3579 3910 3279 3837 3511 6002 
3501 4613 3292 3393 3806 4755 4418 4655 4351 
3037 1018 1803 2821 4217 3398 3678 2691 1126 
3540 3334 2760 3357 4126 5066 2608 4798 2686 
2727 656 5185 1923 5575 3304 5082 4169 1932 
2345 663 2519 4245 2501 1864 927 2325 766 
940 127 2523 1028 620 2705 298 3551 4345 
3396 40 5084 2543 4392 3993 4035 2955 5664 
1621 446 3518 4857 160 2393 5560 5541 2753 
3243 3503 5487 3391 4403 4517 5300 4614 3328 
4679 4342 4458 4370 3626 3235 4170 2579 4780 
5641 4512 2719 4630 4851 4037 4519 4492 1611 
2242 3680 817 5091 3934 1877 2057 4891 5637 
4844 3135 3775 4261 5496 4118 1049 4485 3041 
5569 5937 5212 5130 5758 5881 2729 3460 950 
3868 5485 4190 3843 2852 1791 2341 3463 1689 
2299 2751 254 299 1679 31 1399 961 4926 
4690 3038 601 4176 6025 2589 2788 4348 15 
4573 1818 3409 828 4482 1317 970 5404 3747 
3615 3364 3368 5503 1306 5726 5577 5176 1762 
3420 4197 4680 4599 5863 4781 5162 4632 5251 
5465 5075 4885 4714 4807 2044 5201 3788 4273 
4146 6069 6044 386 5357 5620 1856 2295 5351 
2979 4354 1857 5193 4529 5428 1609 5276 4839 
6052 2789 4056 3290 3809 5148 3612 5392 478 
903 1225 2454 4629 5987 4082 13 4203 5916 
5287 2258 2708 5417 2884 819 1851 5743 4850 
4180 1807 5184 1535 4019 5272 3888 5009 5463 
3980 3623 4470 4865 413 5989 2618 4881 5150 
3536 5174 5787 5542 4699 5934 4815 5074 2276 
4796 3694 5550 4277 4317 5249 4677 5234 4077 
5248 4596 6000 4489 2880 5986 5113 5079 3719 
5331 3656 4108 5615 4813 2193 2723 5835 4641 
5921 5757 3805 4983 3762 4899 1662 5296 4639 
2794 5491 5374 5126 4221 4705 5430 1906 4480 
3889 2726 5140 5460 5821 3950 4671 4411 3922 
5732 5260 5822 5759 5302 1396 4501 5213 1020 
2645 5359 4687 4826 2595 5458 4471 5045 1521 
5972 3849 3224 1110 3713 2866 5626 2158 5436 
2472 967 753 2307 5482 2786 5874 2590 3628 
3814 3844 1882 4647 4223 5036 1699 4595 1972 
5599 5490 4778 2399 249 3280 5497 5755 5596 
3882 4086 2427 3825 1333 4373 3586 5663 4209 
4153 4752 6040 5706 4761 3725 5768 5186 6029 
4969 4140 4919 3847 4361 5828 3180 5421 4723 
2702 4406 3281 6004 2344 5366 6020 4875 5552 
1183 4766 4366 3603 5377 3412 2208 68 3194 
3320 5072 5767 443 5356 5484 1586 1006 2390 
3880 2381 1279 5993 3080 2643 2102 1815 730 
5579 3560 5667 5118 5723 3751 5534 3079 4319 
4130 5462 3839 5124 4073 5297 5346 3382 3455 
471 5236 4590 5217 4768 20 2216 3668 4321 
4365 5691 3710 3892 2008 4484 473 5808 3949 
6047 3531 5483 6032 4719 4509 4762 3699 5536 
4427 5811 2078 5255 3539 6008 3447 4943 3021 
5127 3783 5461 2433 2195 5839 5382 5564 5903 
5902 6001 1977 3072 4977 3955 1701 137 4462 
2131 2183 5867 5953 5395 4563 5873 2079 2128 
5692 3592 4059 3301 4929 872 1950 3784 1759 
1411 5854 3867 5293 5 174 4124 1846 1588 
1031 767 135 2019 3827 3938 4718 270 2101 
902 4272 969 2920 3902 4353 139 281 4982 
632 3269 5645 4174 4942 3418 1668 5059 5852 
5695 6053 4434 4267 4689 4892 5504 5290 1837 
5718 2135 3692 4954 4888 5134 3690 1145 3738 
3230 3741 4721 5055 5696 4308 2301 5711 4433 
5959 3030 5719 2988 2434 1392 5659 5440 3846 
5223 5910 788 3997 1847 3385 4818 4726 5782 
3417 1506 3874 5209 2728 2443 1120 4585 4499 
3426 4192 3771 3606 5336 2043 2278 2921 3832 
2072 1681 813 5762 4877 5702 4189 5870 199 
1277 452 2149 336 1345 2410 2491 1074 1115 
2173 1053 1574 2000 2346 1294 32 649 2036 
1776 1336 948 1810 1947 316 2444 2537 244 
570 2894 810 1619 1181 1197 3791 4602 123 
528 235 606 2460 1883 4605 3492 1914 5181 
3913 917 987 4741 706 216 628 2524 5936 
2746 938 629 3932 4511 5238 4910 5563 241 
3872 1982 3454 4095 1707 4828 1437 3019 2355 
3672 4389 1965 2711 2912 1646 1871 2770 3219 
5979 39 5707 2466 2024 2184 4302 2450 3159 
1474 2498 5327 5912 2767 4636 1764 4546 4228 
571 1825 1755 2813 3203 3543 4046 4254 4002 
2387 3939 2738 1710 3128 2620 3229 2881 1456 
1021 1163 1945 2428 2606 2018 707 1694 3065 
2340 684 519 1044 773 1 17 297 2062 
1141 498 1288 329 1071 170 434 1139 507 
145 221 1022 843 1436 1491 217 118 1066 
748 1369 368 2 1339 867 673 188 401 
282 275 477 983 91 1000 1471 641 964 
951 1232 1257 682 1828 1632 886 1568 726 
2236 1027 1633 2793 1466 1686 2480 3682 2959 
3192 3342 2217 1670 3084 2054 1655 2503 1249 
1909 3035 2640 1503 3012 3852 723 2376 77 
321 5068 6060 1900 4819 4226 1493 2026 1736 
317 1760 2954 1084 5398 594 1361 5332 2621 
3610 1938 2870 3446 3745 4940 3659 4155 3685 
4507 4559 3652 2481 4691 4528 1723 2977 3173 
1450 2924 2032 963 800 2389 1843 3885 380 
1095 166 518 2190 896 3094 1243 1556 516 
1400 721 865 538 2167 849 3581 366 1070 
559 328 1527 635 348 385 2631 1010 23 
1817 1005 1738 1103 1711 3851 2182 2600 2911 
2635 2511 742 149 4227 530 1043 1799 1958 
5566 5006 4711 5991 2488 3321 2568 2051 4205 
3296 3064 4398 4239 5802 5027 4055 2910 4913 
6024 272 2964 941 884 2343 2231 108 579 
3857 5918 2150 4305 4208 4259 2005 93 3151 
3583 4946 3667 4999 2865 4854 95 2006 5386 
3240 2993 3380 1124 318 1012 4566 1603 4549 
3895 2110 4508 4793 2610 1653 5173 4584 3400 
3502 3442 2073 4098 2868 3675 2995 2262 2197 
4135 676 2535 3779 1188 2235 1991 1724 4664 
2499 431 305 2463 811 3036 3780 4057 2475 
674 3126 3491 373 1564 862 3996 3822 3859 
1750 2324 2665 5226 4842 4901 5259 5764 5965 
4269 5678 343 4944 3824 3282 2615 5612 4081 
1312 4931 5788 1275 1079 4338 3541 1830 4049 
6050 5315 4004 4330 5630 1247 4658 1202 4717 
3811 2816 5738 5963 923 5598 4325 1617 3276 
3014 5945 3721 5383 3995 1848 4739 544 3693 
5930 5745 2016 5969 5321 5195 5253 3584 2889 
1473 4198 1763 2976 4915 4583 5919 5558 4503 
3164 5621 86 6021 4199 2825 4069 4173 5674 
4115 2588 3405 3848 5042 3316 4335 3052 5254 
5512 5218 1970 189 5616 5658 4990 5257 4234 
4934 4843 4675 3906 2722 4068 5878 4622 4497 
5703 5011 5488 4289 4702 2938 5380 5022 4536 
4692 6018 5756 5551 4244 4375 3962 5117 5151 
4998 4817 4015 2146 3875 1795 5204 5021 1552 
3000 5221 2211 4473 5998 562 1731 4676 5657 
2541 2084 4728 4327 4799 5793 4838 3140 3958 
5538 3918 4937 5877 3582 2047 5123 5648 3060 
4275 4861 4651 5698 4300 4141 5133 5922 5585 
2367 3711 5180 5158 5731 288 4163 4442 4012 
264 4247 5239 1390 5834 5604 5285 3096 5284 
5892 4075 5161 5083 5267 4868 5749 5023 4615 
5831 3015 4870 4730 4531 5652 5649 4725 4694 
4886 5776 5394 3884 4548 4160 3562 5171 3145 
5879 5961 2674 5473 5252 4349 5843 5994 3643 
2907 4414 5444 3925 5694 4806 3266 4617 3865 
3651 2402 4959 2507 4175 3759 4579 5095 4487 
4978 4995 4908 5640 5999 5773 5625 4402 5832 
5860 5054 3990 3133 4256 5312 3291 5931 4654 
6030 4477 4224 4619 5358 5202 5804 3464 5073 
4103 6017 4582 5178 2782 3947 3242 5653 2520 
4022 757 2412 3138 2601 2823 1230 457 2470 
4756 3523 2349 3351 4030 2791 1979 2012 4050 
2317 1351 1594 1761 3331 5237 3840 5361 4397 
2170 5289 5628 414 2308 5116 192 3267 3483 
3211 4532 335 4447 5760 3223 4970 4017 3285 
4683 6007 5515 3869 5026 4464 3308 3671 5314 
5409 4562 5424 5048 5539 5823 4541 4500 1865 
1557 4295 5316 3415 3819 5914 2693 1001 3259 
5699 4409 5307 5432 4811 1435 5399 3878 1826 
992 778 5449 2929 2566 4410 2162 4007 3336 
4047 5611 1929 3465 1111 5219 2035 1507 5511 
2417 2933 741 4827 2918 880 5883 2414 4645 
5157 5837 2085 5714 5306 237 1416 487 4063 
542 3449 3941 4303 4466 3329 2451 3935 3730 
3347 4400 2919 5859 2787 4740 4709 2809 2749 
4122 2187 4133 3930 5142 4544 4304 4746 3653 
5282 4232 3129 3883 6058 4973 4700 4131 2270 
4229 5441 2853 2639 5243 3300 3130 5177 2594 
3250 5849 5851 5712 4364 3386 5736 5523 5146 
4099 3361 4271 2969 3424 3141 5256 3561 5689 
3983 3009 4846 5389 1963 802 1104 2648 1808 
929 1639 2945 1664 2185 3684 4864 304 5258 
2669 4611 79 4729 754 5857 4420 5905 980 
4547 6009 2701 3042 429 1990 2479 1922 1926 
1625 3856 3953 101 3458 2846 3733 1890 3363 
2192 1479 2353 3283 3132 2891 2401 2698 1998 
1787 2049 2811 3670 3834 3451 2617 5372 5406 
2992 3723 5043 3769 652 3861 4033 2001 3804 
5105 126 5913 3655 5521 2112 4179 4697 4747 
4220 5833 2485 3227 5163 4469 3841 4831 4187 
5170 4358 5775 5705 3403 4156 5266 3927 3456 
5964 3578 4493 5909 4604 5220 2408 3920 4659 
4646 5205 5494 2872 4733 5295 3270 4378 4516 
2354 416 5206 4524 5845 1946 2198 6011 2011 
1919 1733 960 657 1827 2237 1492 971 315 
1160 2277 1647 1245 2457 1193 294 2233 543 
711 1204 700 2716 493 918 979 3724 1366 
172 3137 1393 2347 791 265 1652 339 69 
2681 4556 2378 1065 3059 248 3298 2542 35 
5299 371 876 512 1318 4956 520 5716 5261 
781 4638 5426 708 5531 3172 1015 3443 5188 
3295 5948 4339 5498 3160 3381 2245 3611 3807 
3826 2108 4257 4101 2800 3828 2506 4917 1992 
2531 4367 5128 2587 4243 1346 1035 3774 1813 
4003 2384 3596 777 703 4372 2632 5080 1610 
5250 4684 5015 4609 6003 1296 1217 5313 3607 
930 2877 1482 4125 3251 2469 2297 1746 2836 
4005 2611 2700 1383 1254 2127 3473 2335 3231 
2228 56 128 1641 957 752 883 646 926 
1598 7 1172 626 1562 1191 713 1334 479 
1340 1135 307 825 455 1684 184 1542 365 
614 725 942 410 2585 558 352 238 308 
1214 1259 210 548 1184 2550 1853 1829 400 
737 612 1867 3057 1056 3529 4094 2280 309 
2656 102 2406 2063 1315 58 1100 1754 2080 
1708 3452 3111 6066 4014 4792 1415 5008 820 
4023 2219 4274 3720 5990 5838 3482 158 3445 
1784 5088 2855 5976 2163 407 3048 2145 2790 
3636 4053 3309 3617 4091 2493 3635 2429 3254 
1448 3838 1703 2696 3999 763 3257 1876 1551 
2023 1605 567 482 273 1395 3489 2273 2391 
347 2265 96 1385 310 715 250 43 1002 
1654 177 354 388 1560 196 937 122 1216 
130 532 545 1118 279 1398 3356 2776 76 
667 1747 1536 1910 1284 4280 4459 2960 1693 
1192 666 2220 3413 5537 4020 4932 4816 2692 
4204 2436 2334 4923 5121 5753 1983 2926 4515 
5101 4767 4751 5190 334 2209 4404 5309 1461 
1377 4472 3972 3890 1176 4841 3143 2230 3931 
3470 3193 3750 3812 1147 4754 2724 1524 1422 
3707 4120 84 2756 6034 4200 4698 5283 5576 
2798 2766 514 3646 2144 2306 3076 5721 4693 
1941 2527 2986 319 1167 27 4738 1538 924 
2404 4268 1186 4606 826 121 3810 4100 3647 
2622 4394 5231 433 3436 3590 5454 3058 3625 
1077 4620 1487 4543 362 2841 5633 2975 5155 
5572 5952 2530 2927 2935 1943 5362 5830 5242 
4329 6049 5651 1753 2333 3247 3921 5280 2829 
5002 3467 1572 1384 2675 5769 1794 3377 4771 
4428 2552 3627 2314 2795 1661 3524 1554 5679 
4368 5568 2685 2985 5901 157 2641 3004 2570 
4504 3348 2421 4914 2467 3979 5697 4379 4673 
4483 5818 5798 599 1682 5771 5812 5094 2777 
4460 3749 3505 5631 5884 4953 3740 1918 4445 
5337 3044 5103 5381 3046 3205 3985 5974 4786 
5092 4993 5582 4763 2180 5958 5330 6061 5906 
4193 5323 5850 6038 5933 2563 4681 5439 2133 
5807 3940 5722 5729 5806 4589 4225 2165 3477 
4356 4856 1529 4413 3448 794 4523 5470 4441 
2832 260 4753 1268 1966 631 2599 5638 36 
5414 2624 4949 2375 3876 3924 243 5210 2755 
2305 10 2904 5137 2092 3007 5942 3078 905 
3928 4991 2281 4157 1956 4757 3352 4601 4479 
751 5571 4912 1190 4287 4972 2949 2804 4142 
1920 4947 1201 4952 5817 4845 4522 4431 1717 
1780 2734 1327 5301 1150 3589 5214 3664 5501 
5574 2348 5642 5112 4557 5466 5353 3429 5510 
5544 5403 5143 3870 2405 2584 4514 5746 4823 
2733 1291 4071 4054 4093 5751 4236 746 5401 
4788 5747 3474 5790 5632 4423 3528 5247 2706 
428 5590 3952 4011 3063 5225 1504 5334 6051 
4266 5661 5660 5629 5438 4332 2942 4736 5627 
2223 2041 4660 4207 5997 3121 3624 6036 5622 
5405 5464 5825 2525 3866 5125 5100 5547 1743 
943 2068 4918 3104 4776 5966 4038 218 5766 
5046 621 1660 1059 1068 2009 3835 1836 1178 
4430 1119 449 3131 3790 807 1003 65 1894 
469 625 765 2083 2186 3115 3441 2075 3200 
3899 803 1688 1205 2321 1262 4822 2796 607 
4419 5800 1144 3493 3124 5368 3773 3355 5279 
3604 3569 2468 5885 1933 1657 648 2225 4575 
4255 1700 5789 1149 3754 3365 4706 3901 4936 
4808 5898 300 3563 996 5670 2415 2504 1453 
1811 2627 3033 4847 1931 230 2936 4337 1895 
1289 644 3472 2489 3836 5352 2086 946 2031 
155 3214 425 3987 1349 5803 494 3513 4996 
2672 3169 2027 462 6019 2179 2377 2380 1778 
3981 4554 2834 3475 5333 3346 4029 5927 3354 
3374 5676 5388 1365 5938 4889 4048 4871 1459 
743 3134 1179 944 1580 4510 1917 448 1989 
877 4551 1281 1380 5115 1995 683 4855 5034 
4222 2937 5928 2882 1058 2253 213 4265 1775 
1282 786 3495 342 3034 4874 4663 2309 3047 
3114 860 1265 653 4383 1683 2323 4285 5053 
925 3067 187 4137 4527 792 821 4961 5947 
2464 2815 5355 5169 3748 5671 114 2134 978 
998 5450 2598 1948 3794 5292 3509 3602 4331 
2652 1812 977 2293 4214 1725 4704 1695 3975 
3944 5154 1370 5853 4612 3001 5795 1705 835 
4463 4025 5763 4963 5354 3601 1143 2827 4111 
2772 4734 5646 1498 735 3122 3397 3315 2106 
3639 4598 3767 1338 109 303 3732 547 1379 
2495 4985 973 3982 4496 4355 3964 4930 1292 
3914 5513 5971 4800 4292 2449 3358 4211 510 
2065 1942 4162 506 4083 5809 2448 4642 2397 
2033 783 5871 4580 2967 2684 1801 42 1924 
2336 1360 3520 2556 2971 2538 2069 868 2721 
2644 481 6057 3195 5876 1165 5578 3154 2435 
2038 4052 1869 965 4927 1911 4143 1806 1583 
1735 1004 589 2856 584 2213 1367 3056 1870 
2303 204 1971 6012 5049 2740 1765 73 4712 
732 515 5384 215 85 3688 2147 2930 324 
677 437 909 2438 5412 4457 4518 2785 3580 
3666 577 630 581 3729 1838 2747 190 1592 
1928 359 1434 1322 3744 3213 4219 5031 2286 
5682 3147 832 4882 4426 5233 4540 5872 5077 
5675 4794 5816 3360 5153 1739 3085 2175 1716 
4374 3893 2658 2200 1878 1809 1849 4132 2680 
696 2578 2181 3119 4804 3265 3272 1356 5078 
14 3100 1090 2050 1590 1273 651 2248 1055 
404 755 1358 897 804 393 152 670 2916 
223 848 1038 1861 568 314 1219 727 411 
28 852 602 2580 801 379 29 5935 1550 
2602 1802 734 1092 1766 1832 83 2703 1819 
981 4920 2274 1651 1968 618 1585 1114 33 
2653 5160 1669 2440 4346 169 4196 4253 733 
939 3284 736 3565 3188 1702 2139 3438 222 