# vtk DataFile Version 4.2
Generated by LIGGGHTS
ASCII
DATASET POLYDATA
POINTS 6000 float
-0.023792 -0.0380501 0.0140914 -0.02121 -0.0396305 0.0167609 -0.0187983 -0.0408853 0.0138159 
-0.0147972 -0.0409601 0.0139259 -0.0139638 -0.0372807 0.0152892 -0.0140322 -0.0425499 0.0176263 
-0.0175744 -0.040668 0.0183186 -0.0150923 -0.0373331 0.0191295 -0.00698769 -0.0371396 0.013777 
-0.0106 -0.0388648 0.0138099 -0.00779764 -0.0443203 0.0139611 -0.0117026 -0.0434585 0.0143769 
-0.00565023 -0.0409674 0.0143451 -0.00953347 -0.041208 0.0168972 -0.00670804 -0.0384559 0.0175999 
-0.00727901 -0.0444127 0.0179814 -0.0016599 -0.0411471 0.0139711 0.00199837 -0.0390603 0.0136612 
0.00395306 -0.0448007 0.0139276 -0.00399984 -0.0448269 0.0151567 -6.28413e-05 -0.0448907 0.0143299 
-0.0033587 -0.0377695 0.0153704 -0.00409579 -0.0419886 0.0179834 0.00138215 -0.0417228 0.0166491 
-0.00122692 -0.0392345 0.0184207 -0.000397021 -0.0449585 0.0183238 0.0036139 -0.0448361 0.0179918 
0.00695112 -0.0372187 0.0140911 0.00555007 -0.0411342 0.0138068 0.0116646 -0.0433415 0.0135199 
0.00784677 -0.0442204 0.0149541 0.00928317 -0.0404254 0.0150963 0.0119482 -0.0375005 0.0157833 
0.00570486 -0.0411602 0.017839 0.0118373 -0.0433956 0.0176811 0.00811942 -0.0441629 0.018948 
0.00638634 -0.0372701 0.0186626 0.00977588 -0.0402683 0.0191168 0.0151509 -0.0386872 0.0135629 
0.0150979 -0.0422921 0.0154103 0.0187068 -0.0406258 0.0148274 0.0137602 -0.0399295 0.0183966 
0.016865 -0.0377039 0.0172031 0.0204596 -0.0400603 0.0184501 0.0224929 -0.038879 0.0138375 
0.0239901 -0.0378373 0.0174368 -0.029552 -0.0302712 0.0139285 -0.0335271 -0.0299168 0.0141969 
-0.0293241 -0.0340977 0.0150934 -0.0321434 -0.0314681 0.0178688 -0.0253644 -0.0343262 0.0139362 
-0.0245124 -0.030414 0.0138401 -0.0207413 -0.0290429 0.0138816 -0.0225735 -0.035381 0.0168474 
-0.022205 -0.0313948 0.016959 -0.0281122 -0.0312371 0.0176153 -0.0266533 -0.0362577 0.0172095 
-0.0249869 -0.0331957 0.0191988 -0.0206408 -0.0334421 0.0138969 -0.0191054 -0.0369885 0.0189011 
-0.0179182 -0.036638 0.0144738 -0.0142187 -0.0332883 0.0153131 -0.0172769 -0.0310847 0.0139763 
-0.0136179 -0.0293982 0.0143762 -0.0148305 -0.0304324 0.0180604 -0.0179035 -0.0336097 0.0171175 
-0.0187702 -0.0298853 0.0185078 -0.0128411 -0.0337668 0.0192029 -0.00680954 -0.0310986 0.0141877 
-0.0103867 -0.0348478 0.0142497 -0.0102439 -0.0365265 0.0178858 -0.0108343 -0.0315238 0.0165446 
-0.0069014 -0.0345315 0.0168087 -0.00426795 -0.0341561 0.0137205 0.00156731 -0.0289178 0.0136142 
-0.000943992 -0.0319768 0.0143157 0.00348889 -0.0350498 0.0137707 -0.0034735 -0.0288854 0.014076 
0.00104057 -0.0364707 0.0166083 0.00326607 -0.0316787 0.0159986 4.67497e-05 -0.0328686 0.0180881 
0.00366513 -0.0343453 0.018959 0.00702489 -0.0332047 0.0141544 0.0108883 -0.0341551 0.0135577 
0.00564214 -0.0293823 0.0137448 0.00922963 -0.0348543 0.0171346 0.00692918 -0.0316489 0.0178451 
0.0185891 -0.0364873 0.0137504 0.0149319 -0.0346864 0.0139582 0.0127799 -0.0305068 0.0138301 
0.0181391 -0.0322211 0.0138608 0.0127611 -0.0329655 0.0170897 0.016798 -0.0336944 0.0173536 
0.0131056 -0.0291041 0.0182729 0.0204745 -0.0360287 0.0182031 0.0259777 -0.0367464 0.0137555 
0.0234598 -0.031184 0.0137376 0.0278281 -0.0331888 0.0138564 0.0275213 -0.0289296 0.0136456 
0.020818 -0.0315937 0.0169054 0.0225675 -0.0349799 0.0149198 0.0275514 -0.0303928 0.0175601 
0.0277012 -0.0354054 0.0172362 0.0244855 -0.0330541 0.0178831 0.0326099 -0.0309206 0.0137882 
0.0307041 -0.0327498 0.016828 0.0336256 -0.0298707 0.0177596 -0.0383891 -0.0234265 0.0140097 
-0.0392801 -0.0217418 0.0184724 -0.0373232 -0.0251 0.0175273 -0.0361071 -0.0268331 0.0140305 
-0.0298864 -0.0259282 0.0139054 -0.0333577 -0.0239275 0.0138882 -0.034931 -0.0283053 0.0176029 
-0.0303789 -0.0237111 0.0173899 -0.0309193 -0.0276779 0.0174316 -0.0349542 -0.0219272 0.0169622 
-0.0236659 -0.0263038 0.0140483 -0.0232538 -0.0221428 0.0138685 -0.0266671 -0.0239218 0.01521 
-0.0269378 -0.0278745 0.0157814 -0.0217918 -0.0274506 0.017479 -0.0241684 -0.0243991 0.0184975 
-0.0207665 -0.0222996 0.0170626 -0.0200557 -0.0245803 0.0138514 -0.016885 -0.0270221 0.0139015 
-0.0165183 -0.0226723 0.0138826 -0.0141251 -0.0250453 0.0160398 -0.0144333 -0.0211596 0.0170978 
-0.0178798 -0.0260166 0.0176569 -0.0097615 -0.0283946 0.0139069 -0.00734698 -0.0217995 0.0137425 
-0.0104034 -0.0244512 0.0143297 -0.00554166 -0.0253889 0.0138636 -0.0105785 -0.0207337 0.015926 
-0.00730811 -0.0228244 0.0177285 -0.0114138 -0.0276493 0.0174734 -0.00750445 -0.0267713 0.0170716 
-0.0111301 -0.0237645 0.0185102 -0.00334181 -0.0218286 0.0135821 0.00219171 -0.0229253 0.0141792 
-0.00123942 -0.0243284 0.0159588 -0.000375351 -0.0284496 0.0170885 -0.00355576 -0.0214172 0.0177146 
0.00306677 -0.0262644 0.016254 -0.00357042 -0.025577 0.019079 0.000179315 -0.0211107 0.0191162 
0.00387929 -0.0206993 0.0171748 0.00947507 -0.0281704 0.0138212 0.00630813 -0.0253363 0.0140695 
0.00610366 -0.0213017 0.0138924 0.0101288 -0.0241061 0.0138656 0.00798088 -0.0230995 0.0170858 
0.00687938 -0.027666 0.0172759 0.00473727 -0.0240444 0.0192273 0.0120844 -0.0218033 0.0164878 
0.0100699 -0.0261761 0.019211 0.0202808 -0.0280694 0.0149628 0.0163411 -0.0284715 0.0137338 
0.0191517 -0.0243699 0.0137466 0.015443 -0.0233337 0.0149296 0.013003 -0.0266209 0.015126 
0.0171621 -0.0264545 0.0171181 0.0177302 -0.0226625 0.0182584 0.0138041 -0.0247243 0.0186137 
0.0230725 -0.0251968 0.0138456 0.0254608 -0.0219893 0.0137015 0.0285021 -0.0247894 0.0137251 
0.0245102 -0.0281465 0.0161953 0.0217654 -0.0283599 0.0191852 0.0216965 -0.0215482 0.0150045 
0.021018 -0.0248791 0.0172674 0.0246688 -0.0231941 0.0174638 0.0277419 -0.0260925 0.0175383 
0.0214732 -0.0213172 0.0190654 0.0282641 -0.0224276 0.0190733 0.0349938 -0.0276141 0.0136723 
0.0337168 -0.0236829 0.0137526 0.0308768 -0.027754 0.0156854 0.0290466 -0.0209432 0.0154324 
0.0312771 -0.0239733 0.0169381 0.0352373 -0.0224893 0.0175936 0.0362519 -0.0266339 0.0175363 
0.0376019 -0.0245977 0.0140159 0.0396113 -0.021096 0.0139502 0.0395854 -0.0212199 0.0181182 
-0.0402875 -0.0200318 0.0149824 -0.0418914 -0.0163758 0.014563 -0.0377806 -0.0160451 0.0144987 
-0.0402913 -0.0127059 0.0141846 -0.0411461 -0.0182016 0.0184358 -0.0425819 -0.0144675 0.0183267 
-0.0318758 -0.0203279 0.0149608 -0.0364398 -0.0197776 0.0139199 -0.0328247 -0.0128784 0.0141635 
-0.0338659 -0.0168525 0.0148724 -0.0367999 -0.018545 0.0180401 -0.0298321 -0.0168002 0.0158665 
-0.0356449 -0.0144511 0.0175503 -0.0330127 -0.0172106 0.0187659 -0.02885 -0.0133938 0.0140124 
-0.0281594 -0.0204256 0.0164585 -0.0236849 -0.0204621 0.0190909 -0.0210333 -0.0153436 0.0141076 
-0.0263691 -0.0179492 0.0138376 -0.0248921 -0.0142113 0.0139296 -0.0228231 -0.0185706 0.0156676 
-0.0237999 -0.0164523 0.018921 -0.020971 -0.0134077 0.0176303 -0.0263201 -0.0136096 0.0176279 
-0.0194229 -0.0199153 0.0140453 -0.0134878 -0.0187697 0.0139692 -0.0134804 -0.0147597 0.0140065 
-0.017441 -0.0135747 0.0138883 -0.0169071 -0.017187 0.0155502 -0.0192519 -0.0188513 0.0184508 
-0.0171744 -0.0143381 0.0188009 -0.0149937 -0.0177034 0.0190724 -0.0125982 -0.0143782 0.0178925 
-0.00593622 -0.0180352 0.014138 -0.00987738 -0.0170997 0.0143928 -0.00749878 -0.0137822 0.0137744 
-0.00666478 -0.0187569 0.018195 -0.00853728 -0.0145433 0.0176184 -0.0106481 -0.017794 0.0186544 
-0.00361578 -0.0147462 0.0139793 0.00321559 -0.0184865 0.0137922 -0.000210203 -0.0198903 0.0153268 
0.000140036 -0.0158787 0.0151398 -0.00307647 -0.017522 0.0169303 -0.00272585 -0.0124286 0.0171155 
0.00195891 -0.0173982 0.0183749 0.00197806 -0.0131177 0.0180063 0.00405597 -0.0147355 0.0149956 
0.00989662 -0.0199845 0.0136492 0.00699163 -0.0174366 0.0147044 0.010654 -0.0159409 0.013965 
0.00759811 -0.0130503 0.0141472 0.00951843 -0.0188916 0.0176732 0.0107435 -0.0123427 0.0173693 
0.00594892 -0.0171915 0.0185641 0.00597068 -0.0128 0.018015 0.0179701 -0.0203582 0.0139752 
0.0139955 -0.0197848 0.0135848 0.0148034 -0.0158443 0.0143265 0.0127451 -0.0123271 0.0138924 
0.0187931 -0.0158863 0.0138717 0.0168043 -0.0123831 0.0137418 0.0158482 -0.0190436 0.0171213 
0.0126327 -0.0161332 0.0176905 0.0197905 -0.0183495 0.0169777 0.0194903 -0.0144194 0.0177323 
0.0156201 -0.0134036 0.0174526 0.0207776 -0.012443 0.014472 0.0224797 -0.0175594 0.0138198 
0.0264537 -0.0180191 0.0139517 0.0248185 -0.0123309 0.0136991 0.0282272 -0.0144142 0.0139467 
0.0243256 -0.0191803 0.017155 0.0244081 -0.0152247 0.0164874 0.0280849 -0.0144924 0.0188523 
0.0286653 -0.018458 0.018748 0.0356288 -0.0201269 0.0139544 0.0319818 -0.0130107 0.0138226 
0.0306465 -0.0175945 0.0137617 0.0343851 -0.0161956 0.0142505 0.0327614 -0.0193348 0.0167079 
0.031533 -0.0154583 0.017063 0.0352554 -0.0140655 0.0175743 0.036833 -0.0180098 0.0172463 
0.0423944 -0.0149851 0.0136877 0.0412021 -0.0180378 0.0160951 0.038602 -0.0150569 0.0152085 
0.0426373 -0.0143832 0.0176639 0.0389406 -0.0143854 0.0191935 -0.0406715 -0.00521647 0.0141439 
-0.0447033 -0.00504104 0.0138327 -0.0402691 -0.0089952 0.0157057 -0.0435694 -0.0112059 0.0161983 
-0.0436668 -0.00728408 0.0169885 -0.0410804 -0.00411528 0.0179743 -0.0371769 -0.010656 0.0178478 
-0.0372909 -0.0056863 0.018367 -0.0370853 -0.0071378 0.0141287 -0.0364061 -0.0110761 0.013945 
-0.0296695 -0.00831363 0.0142172 -0.0332282 -0.00603836 0.0140025 -0.0296308 -0.00432974 0.0146155 
-0.0326908 -0.0121139 0.0190524 -0.0333719 -0.00938967 0.0161929 -0.0293292 -0.0109709 0.0171877 
-0.0313101 -0.00633784 0.0180196 -0.0223016 -0.0112105 0.0145318 -0.0262132 -0.0103905 0.0142045 
-0.0220033 -0.00720424 0.0141778 -0.0259771 -0.00640052 0.0143793 -0.0235098 -0.00534226 0.0173827 
-0.0243795 -0.0101084 0.017776 -0.0275176 -0.00767544 0.018662 -0.0206843 -0.00877273 0.0186415 
-0.0185625 -0.00990592 0.0151844 -0.0134463 -0.00849493 0.0139499 -0.016873 -0.00642695 0.0139938 
-0.0149267 -0.011516 0.0162215 -0.019547 -0.00537793 0.0168009 -0.0143952 -0.00508379 0.0171431 
-0.0165322 -0.00846035 0.0183251 -0.0123993 -0.00883107 0.0177974 -0.0109727 -0.0116753 0.0153487 
[...]
POINT_DATA 6000
FIELD FieldData 7
id 1 6000 int
3455 5297 5346 473 679 5573 2427 5052 774 
6037 143 5420 1152 4719 5304 6059 1123 2626 
3212 1333 313 2339 3216 3702 3549 3313 3421 
350 3006 2623 1837 2746 654 3032 3039 4682 
1065 4703 1354 2020 2569 3984 1584 1088 374 
2261 4060 4600 5684 4853 4249 531 5298 1962 
6043 4128 4388 3521 4649 3710 5097 4088 5500 
1145 5451 4267 5372 3558 3923 126 2008 3933 
3576 2329 1765 738 747 528 2135 396 985 
2542 1914 81 432 178 3311 18 1930 257 
938 1184 2358 1512 2148 34 241 609 576 
209 1397 664 403 1129 1228 2905 3753 5217 
3382 20 525 4371 4362 4365 5106 4026 4590 
2418 5929 3 4982 5557 5645 3961 5265 435 
5846 4284 3791 4892 606 5181 3059 1630 706 
6012 5224 1318 2916 248 694 917 512 111 
73 708 2232 515 3913 1189 274 781 437 
629 371 1802 520 408 1372 1632 1259 1732 
1472 400 401 1576 341 886 1221 1015 338 
1045 1637 1886 1829 2897 997 496 3045 2857 
2704 1687 2560 2331 44 4810 4569 4777 471 
2122 4073 1546 4087 4124 268 4074 4768 3938 
2920 4718 4202 49 5504 3416 5194 402 3534 
4602 339 1787 988 4080 165 935 2775 4605 
2460 3492 314 247 364 2810 5384 215 35 
3298 614 2740 732 522 852 801 2580 858 
440 214 308 282 1092 238 909 29 383 
964 91 864 1046 1362 1027 210 1446 641 
173 211 245 2555 3595 1855 2654 1711 2999 
267 4032 3245 797 2659 2961 4191 4452 3793 
2290 181 4867 4188 3101 292 537 3098 1741 
117 2206 502 62 1371 720 3453 870 2537 
139 3968 1668 244 2850 1619 2867 38 626 
3008 1652 204 660 843 329 251 123 365 
1406 848 235 640 64 118 1861 1542 411 
223 392 1440 987 2 455 725 1232 1091 
1038 76 616 390 47 558 1257 1471 1272 
1738 1792 580 384 2911 1511 551 1182 2915 
2182 2600 2635 1693 3851 2844 399 2629 1526 
2633 4035 2705 1961 3432 2709 1907 2393 4592 
3017 5495 2731 160 1628 529 1060 1449 638 
421 1074 316 234 63 1307 468 30 517 
552 550 466 622 1141 1 1011 441 1883 
810 221 825 789 377 507 1171 812 1191 
307 758 410 98 508 337 188 942 1219 
333 301 217 659 352 354 523 951 286 
565 381 275 2631 198 323 1438 1118 124 
2879 61 1192 545 666 2776 453 2132 874 
530 1168 1487 4227 23 433 3126 2530 2081 
1195 2543 2523 1750 446 2324 60 2111 3368 
175 3408 3552 2737 3967 970 2452 2636 1311 
1419 427 2094 762 647 1790 330 397 2326 
1401 822 170 906 171 840 1458 145 136 
2109 444 1108 590 673 1436 1684 748 380 
368 1066 667 177 605 130 1369 1560 164 
890 867 513 532 1465 1271 1339 983 619 
200 2574 142 362 1749 1010 524 325 1969 
1536 4571 1429 674 1325 2325 2511 4348 373 
2475 2940 3409 620 4391 1317 828 189 3226 
3369 1306 3082 3747 2515 3908 413 1017 611 
107 1713 1039 549 1269 2423 857 1525 678 
916 1570 2663 1421 2778 1709 1016 1304 1534 
45 236 1095 153 1645 1180 538 1243 366 
701 865 311 306 1070 1287 388 122 266 
348 385 853 1103 634 1000 795 1398 937 
560 490 194 279 1747 688 603 756 3356 
1514 766 1069 1005 729 4100 4606 862 572 
298 127 3625 3780 3491 5454 3665 2077 1136 
2665 15 4591 3052 3316 5463 4392 2514 2699 
2549 229 5272 4573 4480 2366 1424 1606 1642 
2022 1426 483 1944 3201 1611 1177 887 1667 
1887 1462 162 3662 656 1218 1267 1215 129 
1246 896 1831 1798 2167 851 859 1724 1378 
420 559 27 319 2262 1320 456 418 1817 
305 431 1490 1864 663 40 461 2519 2972 
940 3028 258 2161 826 809 2825 4057 2403 
2289 2788 1818 4926 2151 2463 1807 4381 4513 
3963 417 4307 4176 5367 5417 1627 2869 1648 
893 2071 2328 583 680 2383 146 92 1225 
1528 849 2398 100 2501 2341 242 2852 1689 
2400 993 687 1913 1034 2197 2235 927 811 
133 3463 1991 132 863 121 1399 4268 2622 
31 387 1679 2299 4664 961 4690 601 1520 
3551 3396 288 2256 5184 2884 546 2589 4360 
5742 5419 3889 1047 1308 1121 5982 2266 2249 
2258 1805 1024 2462 2655 2751 2583 2454 895 
1791 13 1673 540 367 3107 4158 1851 1164 
299 903 254 3038 2794 478 2064 4082 2116 
3762 2962 637 4995 4264 2799 1906 1211 819 
910 2283 86 357 1535 1146 5402 5358 5314 
5739 5202 3285 4752 4373 5663 5229 5529 3586 
4353 4209 4106 5318 5059 3922 4775 5728 6027 
6053 216 5943 4570 3387 5255 4954 5081 5759 
4744 5227 4456 5936 5639 5348 5701 5303 4737 
4000 3075 5281 1539 1013 1659 2310 5014 3335 
302 628 1154 4006 4447 4484 3882 3223 5695 
4321 3825 3892 4970 3347 4086 5706 4427 3725 
4562 4153 5804 5794 4761 6032 5875 3531 5483 
5424 4140 3021 4939 5105 5718 5913 5299 6029 
4762 5127 5426 5711 3230 4888 5261 4689 5134 
5238 5220 4509 5266 4457 876 4308 5586 4741 
1853 3692 5935 4910 5188 5716 2147 4405 582 
477 1891 1600 2550 1707 4511 3443 3102 1331 
1939 1955 1874 2612 1236 1607 426 2114 3013 
1767 1698 1885 78 459 1563 3040 5124 5760 
3449 5363 3668 5808 4942 4740 4272 3949 3730 
4466 5515 2787 3935 4174 4434 6045 5536 4709 
4746 3869 3723 5282 4229 4553 5043 4304 4747 
5290 2001 3738 2303 3741 4131 5521 4712 3841 
4290 5705 5163 5909 4956 4800 4646 303 4638 
3982 3732 3403 3688 4263 5498 324 2585 2930 
2785 5412 1968 4496 4257 2438 734 682 737 
726 1550 1828 2602 612 1670 1633 1631 1730 
1466 1568 2236 881 1352 904 208 575 4139 
26 1305 2754 4159 2136 2768 2392 3855 3071 
2517 5040 3839 3827 542 2479 3458 2019 3856 
5691 281 4122 5236 3418 2809 2992 270 3129 
2698 710 4556 3834 5406 835 4232 3769 3767 
3132 5049 3639 3397 4598 2394 3315 3122 3227 
291 4985 973 80 85 1148 3379 284 94 
3964 945 827 3914 645 296 894 1403 1194 
581 83 1915 1200 3027 261 1284 1832 1766 
2793 2274 1032 698 2334 19 1651 981 1910 
149 1043 569 4280 1374 2960 2217 3900 3413 
3988 4837 4883 4909 5090 5084 3993 5524 5560 
3243 5050 4876 4678 3585 2579 3010 4789 4948 
4616 5422 4714 1691 3208 2586 452 3471 2513 
135 1031 2101 3953 1625 3269 1903 918 71 
1890 969 632 3724 2677 493 2213 652 2856 
791 69 2378 2681 3137 2347 589 662 685 
670 415 51 1280 176 2074 363 735 1899 
2627 46 727 28 2547 109 600 382 219 
1061 2752 1583 841 2487 156 630 921 1138 
445 201 492 405 962 1253 669 548 677 
480 379 8 675 936 59 1819 598 207 
1671 4377 395 2534 2521 618 1797 742 4872 
4459 2436 4711 3321 2805 4252 2888 4932 5135 
3166 1958 2955 658 5664 4901 5541 5566 636 
2950 3466 5583 4138 4667 4258 5726 5577 5781 
5200 4815 4680 1376 1093 574 252 842 1715 
1846 1277 850 902 1053 948 767 1456 773 
297 1706 2444 2346 2036 684 2894 1181 265 
1139 1055 519 7 152 498 804 979 561 
755 568 1135 588 1097 2502 1452 784 989 
1231 351 1301 818 1203 839 555 1206 161 
185 460 911 780 1067 602 104 785 256 
154 398 665 97 1036 1516 1075 1214 805 
344 438 1862 557 423 613 3689 1414 1117 
50 1821 672 3909 2100 3106 1638 4154 3755 
3488 3859 2220 4020 3436 3058 2996 5259 2646 
5600 2975 1762 343 1970 4482 3822 5226 5176 
3530 6006 5815 5863 3545 3364 4791 4881 5503 
4197 5934 5542 5652 5787 2863 88 976 48 
1078 1445 1523 358 499 869 1261 32 278 
1776 75 1044 474 1072 66 608 1336 1163 
713 434 646 1071 479 1197 991 926 128 
1085 393 184 2439 1157 1216 1626 1561 761 
112 1022 404 262 829 724 105 280 4 
1101 764 974 564 1156 689 836 578 57 
1169 359 879 1094 553 82 253 1048 914 
227 3099 2551 134 2528 3597 3206 1497 959 
1896 2411 2830 3510 3218 806 2067 592 9 
1957 2364 3704 476 5103 2588 1077 536 4105 
3996 4390 4653 4438 5108 4445 1564 1621 3615 
5512 4234 3420 1390 5218 4470 5572 3985 4990 
5892 5989 2618 3186 3536 5150 4671 3980 4699 
5174 5140 2097 2327 1588 2113 500 1934 2510 
1240 2338 484 885 2263 2292 2478 984 1770 
2459 1115 691 2363 2062 740 353 1172 1641 
1562 166 1288 957 17 1358 1334 56 1491 
43 1340 635 591 721 96 1727 671 2060 
1002 1654 328 196 451 250 472 1480 514 
1266 587 347 715 798 370 907 2241 681 
1510 231 539 439 1099 2497 933 1888 2315 
1481 3929 2142 2395 1718 3816 2980 4001 1162 
2764 4045 1579 5752 3310 2695 5431 4119 5925 
3480 5519 3590 5981 4620 4543 4012 4652 4141 
3275 4442 4345 4335 5285 5404 4180 5834 5604 
3327 5009 3950 4865 5821 3623 4224 5161 3110 
1757 2432 2883 1768 2104 2059 3353 2389 1859 
2990 1722 1505 3005 900 1300 1223 952 1420 
1052 2015 2265 963 2105 1400 1850 1605 2095 
1531 1923 310 2591 1385 2391 3094 1527 2190 
67 1556 1126 516 2073 1186 924 2404 1167 
1916 3779 1388 518 2527 1299 1941 3614 3904 
1226 2720 4852 3505 2820 5231 3810 3457 5033 
5785 5919 4887 3848 3647 5674 5133 4069 4300 
4173 5042 3740 4978 5884 2367 5999 5896 6025 
5731 5430 5312 4850 3133 3888 5095 4163 5460 
5464 6030 1959 2264 2687 3305 1037 3068 3600 
1614 3189 3093 2577 2900 3915 3406 3023 1816 
2345 3089 2642 2987 950 3431 2781 3262 676 
1932 2120 1188 4184 3868 3581 4126 2311 4334 
2117 4135 3843 1538 2868 3675 4098 4915 2995 
4115 521 4583 4198 4651 4738 4394 3584 5916 
5721 5969 5911 4245 1028 4953 3405 5126 4503 
2777 3749 6021 2499 4705 4199 2193 4983 3998 
4639 4487 5835 5694 3566 4256 5773 5931 4908 
2302 3087 55 3162 2895 412 3427 2352 3444 
2944 2676 3322 2789 3809 2814 2593 2103 3514 
3719 5575 2708 5185 4933 3512 3288 3805 4190 
4164 3411 3919 4108 4748 5758 5819 4474 3517 
5180 3290 3036 4617 5743 4629 5538 5615 5897 
4034 4899 5296 4019 1662 3367 5374 5621 5757 
5868 2726 5331 3651 5747 4582 3849 4022 5732 
6040 5768 5302 5073 4411 5828 5416 5822 6017 
4501 5055 4928 3616 3833 4315 2878 5827 5167 
5957 5260 5584 2984 5932 5852 4896 5904 5189 
4586 5481 5093 4439 4534 5848 3172 1128 361 
5949 4446 2066 4206 3714 4465 5672 3324 5962 
1650 3954 4782 3479 2453 2536 3069 4683 5178 
4017 3138 1743 2782 3840 5539 5368 4464 5026 
3415 2520 3947 3844 4295 5823 4756 4919 2625 
4103 6047 2853 3180 4875 5977 4697 4471 2595 
3690 4433 3539 3731 5775 2433 2301 4358 3447 
5856 5719 4493 3030 2524 4220 5223 5910 5531 
4821 3160 5948 3932 3807 4095 5325 2422 3295 
3454 2800 2222 5915 3872 3414 4935 4389 5423 
1347 3373 4013 3459 3957 2843 2603 3359 2732 
3709 1721 2227 2013 2420 1098 3022 4400 3374 
4303 3124 3464 3329 3308 4541 3773 3671 3981 
5409 3699 6007 4700 4544 3883 2639 5421 5243 
5048 5366 4500 5316 5811 6001 4462 3804 4187 
4469 4943 4179 3412 4099 3009 5849 5959 2969 
3578 5170 4604 5873 5673 5199 4156 4430 5513 
5235 4292 4874 5205 3729 4659 4367 4355 3618 
3591 3666 4211 2703 4518 2912 2108 1585 309 
2245 1437 3381 1867 1434 3057 2531 3192 1949 
3682 639 2156 1905 1063 2861 2842 2130 2896 
3103 3681 3758 4668 3677 1901 2666 2739 3726 
4114 1612 2505 2875 4004 3941 2216 2451 2380 
3475 2919 3794 2846 114 3902 4133 2749 1998 
4554 3733 6058 3975 2187 3283 3653 3655 4033 
3861 2112 1705 4111 1806 4364 5712 5833 3141 
1775 2882 3361 5736 5219 1664 4846 4930 772 
4831 3465 5858 3920 3555 5345 3748 3077 4530 
1555 1198 2997 4285 3770 2449 190 577 4083 
1548 1292 1404 1838 1213 447 2322 169 416 
1629 2280 3012 1322 1592 1114 2653 2532 1708 
1056 4857 4205 2488 3529 5110 2202 2406 4685 
4450 4403 4517 5007 5487 4370 4306 3328 3518 
4632 4807 4630 4599 4679 4781 4692 4851 4375 
4170 4244 429 978 3363 2684 1990 101 1733 
1204 998 2134 2457 2192 2049 1393 2617 1479 
1245 2353 2435 3451 3944 1695 4143 2891 3011 
2811 2772 1971 3670 2485 1748 4663 1870 1498 
802 1379 2614 2495 2848 2791 2065 5522 2596 
1483 230 992 2323 449 2085 3439 1788 1678 
968 2055 1151 1841 138 821 2773 1897 1781 
2102 346 847 1804 1029 277 213 627 814 
125 70 783 775 463 2426 2656 2518 3215 
596 980 1500 2304 2923 4346 3649 3317 2568 
5991 2692 5006 4269 4094 4920 4816 3064 4913 
5633 4842 5678 5300 2615 4622 5027 4944 5162 
5488 4536 4885 5251 4702 4531 5380 4725 5022 
2722 1294 294 1922 960 2237 1926 2277 315 
1492 1647 2538 1360 2069 1947 543 1193 700 
711 1367 2721 1869 481 1735 172 320 2038 
584 179 2070 1004 1676 300 2003 1931 1839 
1238 547 955 1290 276 1994 425 786 148 
778 929 1283 782 2648 1761 1270 1274 304 
650 464 182 1381 1205 1057 1321 653 469 
949 391 925 1532 2048 1332 2544 3757 271 
541 1073 1107 3563 2354 2572 4650 3232 1464 
4070 4065 3951 2957 2849 2027 2238 3389 5155 
3476 5270 4314 5518 5537 5476 4204 4072 3440 
3503 5952 5764 5658 4068 4843 5582 4934 5850 
5465 5074 5075 5083 4868 5831 5023 5649 5878 
5143 2938 4675 4730 4694 2000 2149 336 1827 
1574 649 2877 2173 42 1160 971 3607 1924 
570 2428 965 1810 1383 1746 1366 2127 3231 
2233 897 1254 14 752 1090 1342 263 1235 
2340 716 2028 2248 1911 349 759 749 1134 
1252 1276 1244 779 873 793 714 1131 1430 
803 845 975 269 919 1581 419 53 534 
2619 340 633 2862 2210 2396 295 2526 2946 
2854 3117 2455 2424 2546 2221 4964 2978 4715 
4916 2893 3307 3686 2713 4117 4506 4993 4783 
5810 5974 3046 3946 4162 3535 5587 2029 5381 
4763 4972 4845 5284 5257 6061 5214 3940 5267 
5616 4477 4615 5749 5574 4870 5100 4431 3015 
5544 4997 2477 2387 1345 2410 657 930 1482 
2297 1021 2491 3066 1710 1694 4254 3229 1945 
2018 3251 206 707 883 2023 1616 1953 1258 
2050 168 442 103 1598 808 1412 1234 1590 
1348 1158 369 1620 1444 1175 731 1185 1634 
915 892 21 535 815 1427 144 1700 2941 
1173 2441 501 1260 2826 3430 1904 3339 2294 
3070 4181 2690 3002 3256 1964 2634 4043 2592 
4113 4230 4911 5954 6055 5172 4387 5047 4661 
4772 4301 4435 4552 5092 5585 1956 5631 5922 
5275 5337 3640 5164 3711 4735 5254 5438 3990 
4247 3096 5239 264 2804 3291 4619 2942 5125 
4075 5183 4522 4112 5622 2469 4046 2490 2738 
4002 3588 1782 2118 2512 3128 3641 3184 3939 
3446 4940 3366 3020 1551 1872 1450 2099 2356 
3685 2744 2606 2807 2273 3209 651 2928 567 
800 1643 1843 2545 2296 2032 1329 1653 430 
1395 1432 4698 2373 2535 2144 2306 2467 4693 
2798 2828 4200 3646 5099 5096 4520 3705 4724 
4673 2660 3190 5644 5576 2947 599 4460 5479 
4275 3979 5798 3582 5123 4157 4959 5698 3952 
2507 3063 2402 4175 6036 4221 4402 5625 5832 
4736 5334 4654 4207 5627 4266 6051 5860 5825 
5054 4564 2385 2974 3544 3153 3542 2691 3210 
3177 3393 2748 3246 2965 3434 3837 3410 2686 
3399 2821 2924 1803 3540 3340 3501 3165 2983 
4152 3815 3304 482 3041 3398 4453 3334 4549 
5549 3173 3400 3357 5066 4584 4798 3442 3489 
4169 4508 5173 5321 5558 5195 3502 5485 5287 
2723 5094 2907 4203 5812 1763 3164 4861 4349 
4641 5491 4806 3759 5921 3266 5640 5994 5407 
3865 5158 4579 5225 4332 5869 3546 3579 2447 
4341 2242 3661 4352 3433 3775 2797 4635 4293 
2729 4277 4526 5780 5496 2902 2760 4965 4077 
6063 2727 3898 5973 4701 4317 5082 5855 5881 
5550 5473 5987 5342 3460 2889 2683 4489 5392 
5986 2880 6000 3562 5032 3656 3643 4813 4596 
5079 5252 4414 4054 4011 5401 5213 5458 4361 
2645 3847 2714 5685 1396 4687 3820 3974 3587 
6014 5724 745 5156 4986 3306 3325 2784 5662 
5545 3326 5241 5944 4151 5696 2014 4312 5385 
1540 4422 5005 6016 2886 5592 5085 5322 4042 
4123 3737 2609 5605 5514 5730 5665 1558 5740 
3948 4359 6010 4610 4647 4409 5436 3814 2628 
5359 5972 5045 5552 5361 2890 4406 5626 1521 
5186 3281 4969 2344 6008 1020 6020 4723 4749 
2078 4721 3378 5440 1565 6004 3785 4805 3568 
5328 788 2638 4195 3456 2434 5448 5659 3846 
3991 3997 5956 5563 4101 3120 4339 1965 3826 
5489 3672 5864 1439 1982 3375 5680 4828 2037 
4376 5478 4320 4412 5700 2251 3362 4382 4240 
3260 2129 2257 2922 3185 4276 5208 5232 4440 
3134 5927 3819 1865 3604 2594 4811 5914 2208 
5307 3386 4766 1826 5377 5256 3603 2131 5902 
5903 5382 3250 5839 5461 5564 3955 3927 2988 
5782 953 5395 2803 3426 4527 4818 5206 2443 
1847 5390 4499 4003 5682 3828 3580 3019 3147 
3611 2711 5128 2747 2770 1909 5278 3084 4478 
3342 2503 3777 1686 2982 2998 2959 1751 3220 
3323 1249 986 3238 3136 4055 2379 3161 3798 
2650 2229 2780 4745 3469 5393 5182 4512 3626 
3857 497 2401 871 2458 5333 5292 4039 5516 
6039 4973 5859 6057 2834 5795 5960 5142 5449 
3346 3258 5938 4271 5441 2827 4734 5523 5611 
5837 5058 5619 3423 5928 5964 4063 2381 4847 
4410 5689 5389 2566 5484 3621 4167 4890 5723 
4437 3116 5039 3351 5857 4029 4989 2079 2694 
3493 3727 3372 3213 6028 5840 509 3508 4378 
3772 2080 861 1928 1720 1298 820 3033 2953 
939 102 1754 1224 1315 1289 1503 1100 2063 
4448 4239 1799 3570 3296 4081 2958 5968 2753 
2968 3467 4298 4597 3391 4436 5070 5641 4078 
5315 3962 6050 3477 4330 4780 5769 3509 2605 
2644 2598 3088 5450 2096 4860 5455 2712 4331 
4704 2567 4052 3602 5245 4963 5115 1370 4980 
1917 5853 4025 3424 1929 2309 5146 3983 2652 
2590 3016 3708 2214 2831 2119 3684 2823 625 
3907 1111 1594 3073 1338 3349 3079 2123 4918 
3663 2247 3337 2892 977 860 1281 11 2741 
1517 458 712 2125 1425 3577 187 617 999 
33 744 1170 699 1314 733 1499 3452 2908 
1854 2163 875 1669 2964 4343 4824 1985 5121 
5802 5753 3263 4515 4614 4329 4458 4931 5965 
5362 4923 4398 3824 4342 5651 5551 5806 4974 
4289 4497 5729 3870 5722 5756 6018 3956 2007 
4225 1801 2336 2967 3154 868 2293 1451 3630 
5820 5824 4633 5030 1948 4237 2647 3195 3945 
5153 4222 5715 3358 2093 1086 1873 1447 3778 
838 1996 448 6 2557 2039 167 2086 1963 
1772 607 1166 1058 1699 2291 1368 1003 1824 
1714 831 1001 1208 1380 1319 202 1894 882 
1155 908 116 1459 489 222 1286 2153 3163 
443 332 1119 99 3031 585 2440 3239 4882 
3817 3644 3835 4144 2031 4895 3903 6062 3171 
220 5866 5807 2374 4538 5242 5830 5323 5933 
5703 2333 1987 4494 4193 4557 5011 3906 2165 
5439 5403 5004 5836 5112 4413 2405 3289 1739 
2700 2556 2971 2658 3520 2838 5750 2200 2175 
4241 3104 4250 3100 2228 5533 4374 2716 3119 
2578 2680 2994 5876 1881 1559 1409 1387 2745 
1786 1927 2847 1586 2272 2801 2106 1104 1068 
25 648 898 2083 1476 193 891 1375 830 
327 465 2056 944 982 376 610 1665 326 
65 488 695 1316 995 37 1359 191 106 
2177 799 147 1054 1159 2707 1933 889 1844 
3376 2500 1615 233 3916 1475 2140 4637 2952 
1263 2679 3976 2279 5613 4404 3593 5779 5427 
2525 232 5339 1026 4194 2841 4550 3700 5958 
5330 3044 5301 2180 3429 4505 2201 3871 1207 
4750 5683 5501 6038 3589 3664 4324 5353 5089 
5642 4710 4833 5704 3085 1716 1624 1809 2836 
2611 1800 3893 2558 4005 2493 4125 2335 3473 
3272 3309 2761 4498 2145 1161 1273 1356 1876 
2181 486 771 1658 692 1051 1734 972 450 
769 1422 1023 1357 1494 1122 697 705 1898 
283 110 655 360 1389 1835 1719 1106 1530 
3095 1868 2570 259 770 2053 3526 4395 1682 
816 2991 2359 2904 5443 5818 2275 5520 2281 
5210 3537 956 2845 6056 4912 3928 3657 751 
4987 1386 3701 4950 4947 5817 4601 4786 5405 
1918 1920 4479 4287 4344 3624 5547 1717 2288 
3024 2734 5594 3048 3254 2881 2870 2620 4155 
3617 4053 3745 3635 4559 3636 2977 3065 833 
3838 3257 4528 1448 1703 4691 2561 3999 2696 
1723 1578 3240 1012 1124 87 2993 1603 2756 
1524 2985 246 273 2766 1858 593 3885 763 
1577 6034 2218 3619 792 3168 1783 1127 1973 
2795 1595 4504 3076 2986 5283 5697 1076 5771 
5942 3876 4379 2092 5877 2305 5069 4676 4757 
5661 5648 1533 5590 3060 4991 3352 5790 5961 
3078 2223 4660 5997 4812 5632 5629 4455 2802 
2041 4835 3583 3659 4507 3992 4854 3599 3511 
3652 4608 3910 2052 4946 4418 3806 4655 3193 
4492 4613 5386 3292 3037 4351 2610 1018 3895 
5091 3721 4566 4844 3934 2608 3678 4396 4793 
2110 4118 5945 4891 6069 5745 4485 5930 1049 
2979 5130 4056 4839 5569 4677 5937 1966 5248 
2976 2047 1473 3918 6052 3612 1857 3884 2084 
2541 5148 5843 3925 1504 5444 5247 4937 3474 
3092 4894 2674 6033 4788 4444 4941 5228 3792 
4999 3667 4603 4519 3279 2835 5786 4270 6002 
4037 4555 3594 6046 4261 2076 3450 3897 5847 
4670 2057 5637 1569 5264 3249 5984 5119 3850 
4432 5543 5104 1877 5447 5351 3679 5139 5234 
5193 3383 3333 4160 4354 5249 5879 2276 3145 
5394 5428 5746 5113 4071 1609 4514 4878 4548 
4958 4423 5751 5063 3633 1110 4578 5556 3338 
6009 5667 2970 5565 932 4297 2939 2522 3986 
2508 4134 5365 2386 3152 5561 5668 4829 5610 
4743 2416 4326 5203 1777 3994 1771 4581 3553 
4322 2864 4502 5526 5499 5364 3706 5486 4136 
3507 4567 4347 5166 4309 4357 5373 3523 5279 
4366 3966 2573 4223 5051 4826 2702 3713 1773 
3559 5527 3736 4116 5792 3319 4340 1680 4984 
5347 1417 4809 3345 2195 3390 2874 2268 3801 
3054 5708 1199 4127 4880 5528 5222 1062 4565 
1774 6048 1323 4726 4461 2316 5908 3781 4147 
113 470 2284 1737 4674 3478 3873 5588 4350 
2688 3081 3548 1293 3494 4363 2337 2860 4784 
1760 5890 3388 994 796 2091 1547 5029 1365 
2158 5653 2693 5497 4869 4776 4148 4968 3242 
2866 3072 5699 3320 2601 5432 3575 5490 1882 
3863 4977 3783 4803 1484 1183 1392 3691 2307 
1808 3112 1977 2651 4858 4585 4563 3417 4420 
2489 5209 1042 3385 5979 6065 2872 3217 4302 
3606 4243 4165 1992 2506 4219 3270 5707 58 
2480 3297 1871 2365 2355 3035 2107 2431 3776 
1845 1636 72 3784 5147 3832 504 485 2719 
4722 2822 2934 2954 4628 3481 5077 2026 2758 
4925 2855 5165 3912 5737 4516 5676 4048 5727 
3182 4463 3354 4265 1785 3930 2270 2271 5107 