# vtk DataFile Version 4.2
Generated by LIGGGHTS
ASCII
DATASET POLYDATA
POINTS 6000 float
-0.0222011 -0.039096 0.0180813 -0.0156991 -0.0420567 0.0178998 -0.0177258 -0.0383013 0.0186161 
-0.012626 -0.0395644 0.018597 -0.00801913 -0.0441068 0.0188501 -0.00464746 -0.0420673 0.0179737 
-0.00151259 -0.0449321 0.017891 0.000535996 -0.04148 0.0184612 0.000899156 -0.0374994 0.0186943 
0.00483897 -0.0418241 0.0181786 0.00910692 -0.0438291 0.0182337 0.00671546 -0.0382509 0.018543 
0.0132925 -0.0429142 0.0190045 0.0173894 -0.0415091 0.0190313 0.0132663 -0.0388371 0.0186352 
0.0217423 -0.0393516 0.0188054 -0.0316177 -0.0307772 0.0180302 -0.0293248 -0.0340814 0.0182979 
-0.025426 -0.031165 0.0188054 -0.0224275 -0.0351401 0.0187448 -0.0261247 -0.0365862 0.0180771 
-0.0218737 -0.0293091 0.0188214 -0.0144673 -0.0359124 0.0189121 -0.0179407 -0.0301999 0.0185061 
-0.0139552 -0.0295407 0.0185225 -0.00807608 -0.0296972 0.018411 -0.0079459 -0.033697 0.018711 
-0.0118525 -0.032891 0.0191367 -0.00464232 -0.0359959 0.0187009 -0.00432507 -0.0319737 0.0188138 
0.00369658 -0.0346358 0.0183778 0.00265253 -0.0307595 0.0187891 -0.000673722 -0.0337907 0.0187321 
0.00675694 -0.0320434 0.0184868 0.00947194 -0.0353003 0.0189084 0.00942904 -0.0290676 0.0183665 
0.012964 -0.0320585 0.0189246 0.0219826 -0.0353351 0.0189558 0.0262151 -0.0364822 0.0185382 
0.0246727 -0.0323353 0.0183673 0.0286299 -0.0292382 0.0188636 0.0288681 -0.0332105 0.0184556 
0.0324246 -0.0306778 0.018396 -0.039273 -0.0218868 0.0184028 -0.0372099 -0.0252539 0.0190689 
-0.0348148 -0.0284367 0.0186017 -0.0319519 -0.0250843 0.0180575 -0.0305365 -0.0213474 0.0186685 
-0.0347917 -0.0221963 0.0181708 -0.028891 -0.0278465 0.0179657 -0.0225719 -0.0245034 0.0183732 
-0.0254272 -0.0214357 0.0184378 -0.0177773 -0.0259232 0.0186793 -0.0143046 -0.0220943 0.01811 
-0.0127103 -0.0257433 0.0187254 -0.00619297 -0.0233961 0.0179591 -0.0102986 -0.0221757 0.0184024 
-0.00481869 -0.0272744 0.0185555 -0.00216129 -0.0234296 0.0177744 0.00126425 -0.0268731 0.0186857 
0.00560774 -0.0278415 0.0185862 0.0041048 -0.0240615 0.0184784 0.0151371 -0.023014 0.0182356 
0.0126724 -0.0262529 0.0187481 0.0204044 -0.0288028 0.0184708 0.0224745 -0.0243416 0.0187347 
0.0244651 -0.0279558 0.0182239 0.0246225 -0.0209171 0.0184123 0.0277575 -0.0251154 0.0190423 
0.0338144 -0.0231541 0.0183234 0.0351617 -0.027603 0.0186511 0.0384666 -0.0231857 0.0184897 
-0.0409191 -0.016288 0.0174569 -0.0430575 -0.0130285 0.0185134 -0.0372661 -0.0179687 0.0179382 
-0.0332993 -0.0184814 0.0182134 -0.0317053 -0.0147567 0.0185771 -0.0357269 -0.0142817 0.0181229 
-0.0280705 -0.0181913 0.0183108 -0.021686 -0.0196305 0.0184032 -0.0153982 -0.015494 0.0185944 
-0.019415 -0.0163111 0.0180517 -0.0125517 -0.0184726 0.018564 -0.011047 -0.0147779 0.0189122 
-0.00764118 -0.0190861 0.018621 -0.00473545 -0.0162442 0.0190342 -0.00225334 -0.012956 0.0189442 
-0.00210509 -0.0193837 0.0182665 0.000252715 -0.0161498 0.0184744 0.00208491 -0.0197254 0.0186247 
0.00400969 -0.0147332 0.0183691 0.00582987 -0.0183714 0.018213 0.00839723 -0.0152808 0.018583 
0.0102931 -0.0191895 0.0190062 0.0142468 -0.0188241 0.0183429 0.0184403 -0.0186301 0.0186934 
0.0193231 -0.0144549 0.0186983 0.0231415 -0.0132646 0.0184698 0.0348247 -0.015985 0.0183695 
0.0369559 -0.0193934 0.0183931 0.0409102 -0.0187181 0.0182143 0.0389482 -0.0152009 0.0181488 
-0.0446236 -0.00510963 0.0179036 -0.040848 -0.00652538 0.019061 -0.0440285 -0.00901856 0.0188125 
-0.0321067 -0.00715351 0.0183703 -0.0340012 -0.0106833 0.0187187 -0.0300035 -0.0109737 0.0185032 
-0.0258312 -0.0119726 0.0178047 -0.0254402 -0.00686882 0.0185896 -0.0225787 -0.00968107 0.0186523 
-0.0215271 -0.00582269 0.0187296 -0.0193825 -0.0122322 0.0182954 -0.0174829 -0.00744205 0.0182739 
-0.0137931 -0.0117916 0.018909 -0.0134427 -0.00781397 0.0185483 -0.00991877 -0.0107871 0.0188332 
-0.00957833 -0.00678062 0.0187627 -0.00592955 -0.0107305 0.0185287 -0.00232946 -0.00897064 0.0185471 
0.00173843 -0.0112674 0.0187274 0.00370517 -0.00636223 0.0183878 0.00665894 -0.0116908 0.0179363 
0.00767061 -0.0078183 0.0179345 0.0114556 -0.00643947 0.018216 0.0116582 -0.0104237 0.0178248 
0.0153862 -0.0123427 0.0183167 0.0150747 -0.00823148 0.0183543 0.0152496 -0.00422934 0.0182084 
0.0186944 -0.00650255 0.0186017 0.0225364 -0.00917243 0.0179477 0.0298605 -0.0118139 0.0180571 
0.0318455 -0.00835879 0.0177143 0.0344818 -0.0119885 0.0182521 0.0346133 -0.0048512 0.0181126 
0.0391101 -0.0112 0.0183525 0.0440423 -0.00780789 0.0175098 0.0434187 -0.0118051 0.0178246 
0.0388449 -0.0055692 0.0184249 -0.0435992 0.00024626 0.0178203 -0.0399052 0.0016264 0.0185748 
-0.0407647 -0.00260561 0.0179625 -0.0368294 -0.00229131 0.0188535 -0.0300649 -0.00374905 0.0189321 
-0.0266659 -0.00210122 0.017419 -0.0254531 0.00153707 0.0188507 -0.0215657 -0.00110051 0.0188991 
-0.0142946 -0.00387109 0.0185144 -0.0182723 -0.00345318 0.0188582 -0.0180462 0.00093444 0.0184681 
-0.0135682 0.000395245 0.0186141 -0.00891277 0.000750324 0.0184334 -0.0079688 -0.00311688 0.0188366 
-0.00641873 0.00384758 0.0189713 -0.0028825 0.000881865 0.01851 -0.00401752 -0.00294834 0.0181776 
-9.51499e-05 -0.00223285 0.0185897 -0.000455885 0.00410431 0.0188549 0.00214866 0.00104553 0.0191401 
0.00780085 -0.00380042 0.0178786 0.00851649 0.000129426 0.0184149 0.0092041 0.00411077 0.0183965 
0.0116738 -0.00243183 0.0181069 0.0122546 0.00153722 0.0181026 0.016106 9.25308e-05 0.0184112 
0.0195507 -0.00258024 0.0182835 0.0192779 0.00321944 0.0179568 0.0223492 0.000281404 0.0179525 
0.0264328 -0.00113616 0.0184787 0.0271003 0.00409921 0.0178264 0.0335687 -0.000511366 0.0189843 
0.0306854 -0.00350623 0.018832 0.0364349 0.00234126 0.0181327 0.0386339 -0.00110642 0.0178467 
0.0448146 -0.00399667 0.0188053 0.0448529 0.00229354 0.0169794 0.0407312 0.0034992 0.0185653 
-0.0415122 0.00546339 0.018382 -0.0441727 0.00840138 0.0189851 -0.0392058 0.0123211 0.0185415 
-0.0357162 0.0103308 0.0189052 -0.0292002 0.011813 0.0187237 -0.0248068 0.00580161 0.0185316 
-0.0252205 0.0122736 0.0187688 -0.0209224 0.00678359 0.0185069 -0.0184098 0.0110202 0.0181268 
-0.0169377 0.00720272 0.0185287 -0.014466 0.0103058 0.0178074 -0.0129898 0.00658664 0.0182221 
-0.010494 0.0100053 0.018236 -0.00650616 0.00956977 0.0183715 -0.00363719 0.00666797 0.0183389 
-0.00272379 0.0108707 0.0183186 0.000137709 0.00805143 0.0183064 0.00114296 0.0119217 0.0186048 
0.00326326 0.00557829 0.0187584 0.0117254 0.0113994 0.0181824 0.0152766 0.00416373 0.018285 
0.0147705 0.00813756 0.0179944 0.018815 0.00729226 0.0175553 0.0219071 0.0102265 0.0178097 
0.02487 0.00750603 0.0173656 0.0231675 0.00416854 0.0187838 0.0260888 0.0115043 0.0172209 
0.030831 0.00843754 0.0175724 0.0328987 0.00492364 0.0172329 0.0356797 0.00980484 0.0172336 
0.0394244 0.0100944 0.0188515 0.0435802 0.0108125 0.0170354 0.0423097 0.00725493 0.0187078 
0.037246 0.00651308 0.0189482 -0.0432057 0.0123588 0.0187771 -0.041796 0.0166219 0.0186563 
-0.0352004 0.0181407 0.019044 -0.0346197 0.0142423 0.0183511 -0.0311653 0.019065 0.0178894 
-0.0277482 0.0155446 0.018507 -0.0240668 0.0172229 0.0188619 -0.0272609 0.0198412 0.0184341 
-0.019921 0.0172743 0.0188172 -0.0159122 0.0174028 0.0189613 -0.0116223 0.0190083 0.0186619 
-0.00982599 0.0140107 0.0186747 -0.00787417 0.0175997 0.0187473 -0.00584571 0.0136227 0.0184184 
-0.00173394 0.0147495 0.0185243 -5.91018e-05 0.0183967 0.018264 0.0027054 0.015576 0.0190887 
0.00630944 0.0171279 0.0180729 0.00566744 0.0129965 0.0182851 0.00966024 0.0148101 0.0186183 
0.0106523 0.0186646 0.017863 0.0139081 0.0146981 0.0188162 0.0162256 0.0181764 0.0186455 
0.0180419 0.0140461 0.0184139 0.020073 0.0177525 0.017625 0.0221517 0.0142721 0.0181106 
0.0256008 0.0193501 0.0169926 0.0288443 0.0159716 0.017409 0.0308481 0.0124815 0.0174532 
0.0329225 0.016743 0.01776 0.0365401 0.018946 0.0177222 0.0384806 0.0139361 0.0180488 
0.0408246 0.0185438 0.0181371 0.0424269 0.0146446 0.0184931 -0.0379474 0.0239172 0.0180338 
-0.0334052 0.0241515 0.018258 -0.021885 0.0207459 0.0184822 -0.0284913 0.0264898 0.0180291 
-0.0234133 0.0259303 0.0182685 -0.0198588 0.0241613 0.0189594 -0.0161144 0.0255586 0.0185543 
-0.0141425 0.022091 0.0190368 -0.00866935 0.0242806 0.0180558 -0.00608493 0.0212343 0.018263 
-0.00489732 0.02565 0.0180845 -0.0101081 0.0287206 0.0181587 -0.0022323 0.0224242 0.0181151 
0.00203091 0.0225702 0.017875 0.00248173 0.0285358 0.0181385 -0.00238475 0.0287754 0.0182432 
0.00499748 0.0254085 0.0179894 0.00738092 0.0209733 0.0183696 0.00902009 0.0283294 0.0179076 
0.0125617 0.0240877 0.0174023 0.0174207 0.0219884 0.018019 0.0183065 0.0259249 0.0176961 
0.0145506 0.0276053 0.0181904 0.0217966 0.0238759 0.0183615 0.0257576 0.0259656 0.0180685 
0.0216624 0.0282506 0.0181642 0.029945 0.0207508 0.0175476 0.0296574 0.0247294 0.0181776 
0.0366462 0.0260029 0.0181181 0.0344784 0.0225526 0.0181614 0.0329994 0.0281672 0.0177152 
0.0288559 0.0286833 0.0180428 0.0389049 0.02221 0.0183473 -0.033097 0.0303112 0.0184611 
-0.0282358 0.031095 0.0173998 -0.0243635 0.0303443 0.0181054 -0.02784 0.0350596 0.0178652 
-0.0179505 0.0344273 0.0184186 -0.0189786 0.0305278 0.0181747 -0.0139354 0.0349377 0.018597 
-0.014148 0.0290484 0.0185236 -0.00642263 0.0302547 0.0184288 -0.00694878 0.0344322 0.0182636 
-0.0105881 0.0327499 0.0178411 -0.0103796 0.0367375 0.0181545 -0.00327023 0.0327958 0.0182702 
0.000820119 0.0322359 0.018072 -0.000662978 0.0359514 0.0180374 0.00780247 0.0355532 0.0180834 
0.00500013 0.0316836 0.0190899 0.0118277 0.0351978 0.0180502 0.0131154 0.0313366 0.0183192 
0.01798 0.0302705 0.0178923 0.0201013 0.033994 0.018035 0.0247203 0.03073 0.0189754 
0.0262349 0.0359883 0.0180151 0.0314558 0.03207 0.0166243 -0.0228846 0.038067 0.0185109 
-0.0166206 0.0394425 0.0179527 -0.0125582 0.0400189 0.0188955 -0.00850084 0.040784 0.0185232 
-0.00301987 0.0448682 0.0184674 -0.00397696 0.0384605 0.0185466 -0.000852364 0.0414845 0.0181804 
0.00144706 0.0448818 0.0179206 0.00224284 0.0389382 0.0177651 0.00543561 0.0442151 0.0174637 
[...]
POINT_DATA 6000
FIELD FieldData 7
id 1 6000 int
1074 842 48 810 452 63 574 71 244 
123 270 139 1903 281 1883 3382 529 638 
822 762 170 221 1044 2109 441 145 561 
755 825 626 791 365 519 51 1619 600 
204 652 49 471 2810 20 531 1713 1628 
330 75 1022 957 1072 479 128 1452 1157 
812 507 444 1011 789 1301 727 329 852 
230 3298 522 3008 165 402 314 935 528 
107 484 2326 678 1491 136 171 404 1156 
1131 1436 184 333 377 1861 1542 337 28 
235 1091 1440 109 223 214 392 909 350 
364 606 396 857 740 748 1304 1016 840 
1108 366 1216 1560 1369 564 673 803 1171 
1684 185 410 161 725 1138 2 841 455 
156 1038 616 858 614 440 781 257 432 
654 512 1765 1732 849 2778 1525 1426 590 
153 538 388 1101 105 1066 368 98 1206 
508 942 633 758 104 188 987 217 565 
1232 301 1257 558 379 238 864 211 401 
308 582 1930 34 886 1372 1177 1648 1642 
1246 2167 306 1180 472 122 667 280 578 
879 532 286 253 1094 659 354 344 405 
805 76 545 384 580 1766 682 383 1045 
938 1228 1015 209 656 146 129 100 420 
795 27 385 266 937 619 513 1465 130 
352 134 53 665 82 390 164 59 1272 
47 1471 598 1910 19 400 208 44 997 
2136 664 305 299 1864 132 40 603 370 
348 490 867 57 1000 142 275 2528 325 
50 2132 666 1792 438 207 453 149 2704 
1526 1576 338 2331 341 2659 496 1687 13 
927 86 1164 637 1211 601 288 200 127 
983 2764 227 1429 592 61 23 2705 362 
618 1043 1829 2523 1901 910 819 572 373 
160 862 970 1195 1621 60 399 1564 658 
874 2511 797 1961 1093 1060 1922 466 1376 
66 1053 30 172 684 552 2537 316 1715 
1706 2444 1625 493 902 2677 2101 62 1 
252 537 1307 589 3471 1546 1846 117 1890 
468 38 1741 1031 1691 2867 69 292 918 
542 2019 2347 502 2479 720 3269 1668 3418 
2122 4124 3098 1311 32 869 1419 421 1269 
88 499 550 1078 1449 1197 1336 1456 1776 
7 773 265 517 1135 14 179 297 979 
425 1139 547 498 320 152 1055 1231 804 
1238 2894 415 670 632 2213 1280 1379 2378 
2074 568 1652 622 382 735 2394 339 3639 
843 835 662 660 248 870 973 2001 2460 
2775 4362 215 3416 4074 4590 3938 710 5217 
4087 525 126 2418 3923 647 2292 549 278 
474 1401 1071 976 1039 1115 1790 713 646 
1090 1172 427 991 1342 926 1523 649 752 
349 1097 749 716 648 761 1244 778 307 
839 393 989 276 1191 1290 148 351 786 
588 1141 1203 1583 955 304 449 784 46 
176 685 848 411 1406 363 1841 992 2547 
251 64 85 80 2752 708 284 2487 118 
35 291 732 694 303 2740 3534 1148 268 
247 1318 435 3 706 1145 143 774 679 
1333 1243 2636 2366 984 2452 2663 3110 2263 
1562 397 707 434 906 883 1358 2883 1421 
56 1561 635 262 829 1085 103 808 1258 
263 1134 1023 759 380 327 1252 793 1430 
1626 112 25 1276 944 919 1219 2439 1067 
1381 526 1368 1001 1761 780 911 782 460 
1274 464 1151 1270 398 640 962 1781 219 
1897 2055 860 201 1061 968 515 801 94 
492 1555 3077 945 111 988 1189 1194 894 
296 2232 2785 437 274 985 371 73 1472 
1123 1853 2542 2626 2585 1962 1354 917 2339 
747 1088 2329 1152 1914 45 1570 916 17 
353 2863 1462 1606 1611 1300 236 1727 1458 
1340 2060 206 1334 671 1348 96 1444 168 
1234 450 1412 769 1590 1266 982 1665 535 
1357 1337 1058 623 469 974 650 555 1380 
1824 831 2056 182 607 818 995 949 1057 
1714 116 1155 2102 921 138 256 445 602 
11 821 1281 1253 669 282 2580 548 677 
630 827 861 1292 1213 3027 645 324 91 
1092 29 261 581 577 1968 1867 2438 178 
1802 1512 520 629 216 737 2550 1184 477 
18 576 81 313 2148 1539 2261 1013 887 
2022 1944 893 2328 483 1424 2071 1667 2264 
3600 1709 162 166 865 952 1223 1598 1288 
963 900 1605 250 1002 1287 721 310 196 
1175 567 1422 283 731 1494 764 451 591 
815 836 1573 610 1634 465 605 779 724 
269 830 975 376 873 65 4 1208 202 
1036 1143 345 1453 1683 41 285 1286 141 
1205 951 125 222 847 1321 925 290 346 
97 783 83 277 8 675 187 169 999 
1548 1362 1403 734 1032 1651 1585 1629 698 
210 1466 964 1891 1200 1600 1550 309 1828 
609 1065 1584 302 374 1129 1955 628 1607 
1874 1347 1221 1534 1215 680 583 896 1037 
92 1528 1614 1887 1095 1218 1400 1645 1798 
1850 442 2391 1385 851 1070 1480 43 311 
715 1158 2296 430 1643 892 1427 697 705 
587 1541 326 763 487 177 534 714 689 
419 37 695 1165 1054 613 359 1169 391 
488 1459 882 585 381 523 699 785 653 
213 908 703 271 99 423 1214 1804 70 
33 775 447 1404 1284 480 395 981 198 
627 641 2532 1322 1056 1046 726 1027 1832 
1730 1886 612 2236 1949 1352 1397 459 78 
403 1698 1305 1885 2383 2398 687 242 3068 
2341 2249 3023 1267 2591 1831 2095 1913 1923 
950 1527 2583 456 2262 701 559 1398 67 
514 516 1126 634 1654 1185 907 347 328 
21 144 360 915 798 1048 1271 1888 1359 
845 106 890 1117 553 340 501 914 372 
1149 1316 489 147 1237 1159 541 1438 1332 
332 1073 1532 191 124 1671 814 596 936 
980 2426 1499 463 245 1511 1632 2274 1446 
2911 173 2280 408 2857 1259 1568 2654 1236 
881 2768 3758 1637 241 3045 2905 26 1631 
1612 2266 2655 2501 811 418 1724 540 993 
1689 1034 1805 2400 2852 1320 133 663 676 
2197 3431 1188 121 2345 2235 431 1378 859 
461 231 1817 1510 319 1490 1167 1099 1186 
560 681 439 1103 933 539 1388 2241 1747 
1339 1581 959 688 1516 2574 1957 2862 2551 
557 154 1075 2879 1862 323 2631 2153 1107 
1192 1738 1797 1819 2915 2793 1029 1638 2100 
2534 2521 1182 551 2961 2555 2217 4191 3243 
2334 4280 3753 267 2579 2897 181 1958 2600 
3040 3793 2517 4810 2875 367 2454 1024 2751 
357 258 863 2116 1679 254 478 387 31 
895 809 756 194 2161 1538 1514 766 940 
279 729 826 3396 1010 1226 1005 1969 1536 
298 2830 295 1749 2411 1693 2475 9 3099 
1414 1168 1896 3218 2776 3689 476 672 2629 
343 433 2633 3595 742 2081 4227 2999 575 
1855 4154 3101 2709 2324 3851 3993 3432 4035 
1711 2290 4032 1906 1146 417 2256 1520 4264 
1662 3762 2064 1136 828 524 853 1162 620 
1069 961 1028 15 546 229 1118 175 2515 
1390 1077 806 2403 1325 1818 674 1017 189 
530 3058 446 2182 2996 1762 2111 1306 611 
2940 636 1907 2955 2635 2731 1970 2844 2393 
3466 1733 315 42 1360 429 767 294 998 
978 1990 2206 1371 1393 2684 2049 1277 101 
2353 2451 3856 2495 2809 234 2192 2513 969 
2380 2457 3953 3363 3941 3902 2586 135 2856 
4073 3968 3827 3208 3730 3458 5236 3839 4569 
2920 3453 4232 4768 4718 4942 5760 5124 4365 
500 850 2327 1261 1294 358 948 1181 1492 
960 543 1827 1947 1926 700 1004 570 897 
1193 2070 584 1204 1245 2346 2617 2435 1748 
1971 1735 1899 3137 2614 3011 2772 3132 2791 
2502 802 2681 2627 2085 3227 2848 3861 2065 
3122 2992 3724 3492 1775 1787 3315 4831 3741 
3655 3834 4746 2850 3397 4122 5194 4605 4777 
3935 4556 4985 4202 4080 5181 4649 5363 4602 
5049 5691 5846 4434 3933 4026 738 3455 4284 
3216 4982 1240 930 1588 691 1445 2094 1345 
608 2478 336 2477 2173 2428 2491 2000 1163 
1235 1254 1366 711 1810 965 1911 1409 1383 
1387 1086 300 2272 929 2003 1994 6 1839 
1929 1963 753 448 1283 1699 2086 2291 2214 
1483 3105 1594 1811 1166 2648 1678 3439 2247 
2123 3073 1788 3663 2892 3079 772 2323 3493 
3508 5345 3465 3372 3770 3964 2997 3982 4598 
4263 2969 4430 4530 4518 4088 3841 3059 3710 
5384 3688 4638 4496 5043 2008 3313 3702 3576 
473 3387 4353 5663 3913 3075 3039 3212 3421 
2097 2104 1757 2059 3353 1934 2432 2490 2023 
885 1641 2459 2423 1872 1021 1770 1694 2512 
2050 1953 2340 2028 369 1616 972 1068 1161 
1927 1476 193 167 898 891 2259 1375 1133 
595 1696 1489 1435 1981 566 2298 1537 1635 
1936 2504 2407 2540 1894 1979 1338 1003 1408 
1580 1842 696 2125 2783 2194 2773 2741 1517 
2449 2494 3003 3577 3965 3727 1198 3591 3379 
4285 3147 3213 1995 4083 3729 3611 2322 3914 
2930 1915 3618 3732 190 3230 3666 4355 2711 
2147 1630 2602 4405 2135 3032 3414 3311 3443 
1707 3006 3549 1837 2746 2222 3984 2569 4000 
3324 1659 1859 2389 2113 1768 1959 2687 1505 
2118 2990 1722 1450 3005 2606 2015 1551 833 
2099 1448 1734 1051 505 1273 503 1147 486 
1202 84 95 2083 1335 1822 624 495 192 
693 1125 1116 533 750 1549 1974 1319 1355 
1823 2082 378 1485 1080 406 931 2058 212 
977 1543 454 240 1153 1940 1035 458 150 
712 884 509 1720 2010 2230 1137 1895 1685 
1692 1639 416 1928 1170 1298 604 3033 2640 
2506 2747 1688 1633 2703 2587 2953 3580 2080 
2912 3295 2770 3219 3035 876 2108 3807 3381 
3373 4478 2020 1939 2612 1331 2623 2358 3102 
3013 3335 2310 2453 1052 3246 3201 2900 3093 
2105 2385 2974 2691 3189 3305 3393 1782 3915 
3153 1703 1578 2265 2696 1124 1620 87 800 
1795 1122 1496 1524 1942 163 225 722 1250 
556 1728 877 436 322 807 760 237 355 
1264 90 197 1278 475 115 260 686 1233 
119 317 777 1084 1997 293 1425 744 272 
642 1405 1242 1312 224 733 723 820 1443 
58 1935 428 2025 1506 2376 2355 2767 1434 
2174 1838 102 2531 1655 2480 1871 1670 1909 
2245 2503 3192 2959 1686 3297 1751 1767 426 
1154 2114 1437 2603 2843 3459 639 1098 2998 
1461 2896 3662 1225 1420 1816 55 2302 2748 
2577 3210 2686 2807 2987 3209 3177 1603 2928 
3501 1898 651 1432 273 2273 318 1723 1395 
1577 137 246 462 817 1150 832 159 1484 
1952 1310 1229 1040 457 668 424 199 1796 
901 1007 422 16 120 946 409 856 544 
880 5 205 617 180 1217 407 846 334 
1059 389 186 289 510 255 875 1224 1230 
787 939 1813 2219 2051 2643 1081 947 1374 
1592 39 1503 1596 1289 2343 3012 1315 904 
1799 2156 2666 3136 2861 2202 3494 3103 1563 
2227 1905 1063 1474 1721 986 2750 563 2130 
1531 2258 3089 2642 2447 3444 3406 2242 2190 
2924 3262 2781 1803 3540 2983 2052 3165 3806 
3340 1556 2032 1843 3094 482 2821 1012 1858 
3173 2373 1653 1329 110 1389 506 1835 386 
655 593 1554 1700 1530 342 2484 1478 1014 
923 2795 1106 1328 834 799 615 259 414 
1567 1868 776 1050 443 1119 928 1187 1327 
1314 1033 1455 1854 2518 24 1500 1464 2384 
1100 3215 2440 1669 4205 569 1114 2304 3413 
2960 5110 1754 2653 2488 2805 2754 3726 2392 
2739 4139 4837 3529 4668 2842 3681 2650 3022 
2420 2560 2013 2129 3185 4276 3087 3427 3399 
2895 2462 2789 3815 3661 2944 2404 4184 2545 
2311 3868 1932 1991 3398 2814 4334 5185 924 
518 2073 2120 1941 2144 2306 3581 3095 2535 
1719 1481 1260 2941 1783 2294 2395 2826 2985 
1904 3430 2048 1173 2177 2441 2619 2497 823 
3256 3117 1933 2455 889 2544 2354 3909 233 
3163 2572 1615 2238 1821 3106 3755 2656 3389 
4070 4065 2849 4650 4452 1487 2436 4403 5135 
4377 4346 4872 5090 4883 4909 4592 4159 5040 
3855 3010 3900 5495 4857 5007 4789 3857 2257 
2352 412 3514 2593 2676 3322 903 3107 1851 
1673 2708 3809 3719 3843 1916 2519 4268 2799 
4135 2117 2622 3675 2962 4995 3038 2151 2972 
2527 1497 521 1299 1718 2299 2980 2315 2210 
3929 2142 3206 3597 3625 3816 4001 2424 2526 
2364 2530 2396 2588 2067 3590 3563 3436 3488 
2220 3822 3859 3757 2975 4482 4252 2646 4020 
4711 4459 3321 3245 4188 5726 4867 4616 3585 
3988 4678 5200 5422 1791 2103 3805 3367 1399 
2794 3463 1121 1535 3517 1047 1807 3405 2283 
2589 2825 1627 2499 2077 4360 2289 3491 3409 
1579 3028 3615 2325 3747 2514 2695 3316 4865 
3967 536 2737 1317 3052 413 3226 3082 4105 
3408 1750 3420 3126 3017 3368 3369 3166 3530 
4138 1801 1451 2458 2605 2891 2134 114 2096 
871 3509 497 3451 3794 3475 2698 2846 3773 
3374 1998 3975 4400 4111 4033 4133 5178 2216 
3129 2639 2749 4303 3449 3464 3883 3223 5804 
5539 5515 4017 3124 4272 3653 4466 4544 4006 
5406 3347 4060 3882 3668 4447 3949 5808 4853 
4128 5504 5645 4388 4600 4740 4174 4371 4249 
2149 1739 971 2237 2175 1647 2277 1840 1869 
1924 2336 2971 2538 3944 1705 1479 1498 1367 
2069 2112 1695 3733 2485 3767 2882 2596 2811 
3424 4063 4663 2823 3141 4890 3009 4187 3361 
3769 2787 3920 4179 1664 4167 2303 4700 5282 
4229 4846 5163 5833 3699 4469 4956 6045 5106 
3961 3723 5557 6007 5536 5500 4304 5265 5684 
4892 3791 5297 5224 5346 5097 4267 6012 6037 
6059 5420 3586 2212 2481 1716 1482 657 2297 
3520 1574 2877 1624 1809 3607 481 1160 2038 
2248 2127 1586 4237 2036 2716 1873 1447 2093 
1996 2847 1931 1676 2309 1772 2332 2652 2119 
2320 2604 2039 3684 625 1111 3016 1870 2254 
2859 3634 3116 4918 3555 3351 3748 3337 3349 
4029 5446 3516 4540 4131 5858 3867 3772 5723 
5128 5840 4930 5235 4747 4874 4800 4646 5483 
5206 5205 5775 4290 5935 5290 5498 5451 5913 
4689 4888 5705 4712 5105 4682 4703 4741 5304 
3714 5348 5134 5943 5936 4308 5962 1650 5514 
2387 2338 3939 2510 4046 2469 2410 2611 3254 
1945 2363 2062 1710 1356 3066 2620 2233 3473 
3231 3229 1658 1559 1876 586 838 2106 1786 
3100 1984 2417 2004 1486 1604 1384 2196 2482 
757 2072 2743 1880 2207 1834 2176 1701 1889 
2382 1657 2414 2651 3280 1808 1660 2409 2682 
4384 3506 2496 1113 741 2362 3225 2260 765 
3564 3270 4260 3392 3217 3781 3346 3994 3435 
3538 2694 4219 4003 4243 4367 4292 5317 3672 
4257 4211 5412 5513 3828 3160 4457 5223 3826 
4101 5281 4511 3872 5915 5716 4095 5586 5423 
5188 3479 5014 4782 5680 3069 3954 4610 4357 
5665 4567 3588 3446 2738 4002 4254 3128 2870 
3048 4940 3745 2181 2446 3065 2561 3257 1239 
2881 1878 2616 1082 692 36 771 1104 491 
1364 2226 1892 644 1468 151 511 10 1815 
966 1326 1575 218 1900 1190 1836 1470 1780 
2948 228 1992 249 1875 2087 943 361 287 
1826 2198 1431 3026 1663 1547 1656 1977 1062 
1256 2115 1251 2128 2672 3620 3860 1313 1967 
2461 1759 2609 4350 2189 1382 3550 2927 2951 
3084 3019 2800 3057 3375 4212 4389 5131 3454 
5478 3957 3709 2536 4013 4376 4309 4828 5700 
4412 4240 4454 4248 5730 3184 3544 4608 3641 
3542 2356 3583 3366 3999 3685 4507 3020 3169 
2744 3083 2932 3157 2442 3613 2945 2865 3062 
1391 1908 2002 2317 1179 2139 1769 2141 2040 
2215 739 996 108 356 1064 1529 736 1690 
571 1582 813 1248 1006 872 1330 1087 1920 
1295 790 1617 1760 1674 239 1467 794 2034 
1597 1207 1353 573 1591 131 1771 866 1386 
1363 1697 485 72 1241 1212 2089 113 2284 
2166 2054 2431 2250 1972 1845 3472 3342 3478 
2982 2419 3784 2107 1041 2688 2943 3548 2337 
3359 2732 3777 3682 4382 4784 3260 3362 4192 
2933 2837 3546 2965 3837 3511 3599 3410 3579 
3652 4473 4418 3667 3707 2977 3240 3895 2076 
3248 2993 3858 3193 3276 2610 2006 1729 1413 
2057 2756 2164 1018 1877 1460 2295 68 2035 
643 1595 1545 1569 335 1130 967 1518 1291 
1812 140 1344 1752 621 157 1220 562 243 
321 1112 494 52 527 79 913 1613 89 
1297 1469 77 1275 554 1089 1943 746 1753 
1096 1377 158 1755 1825 1983 1794 878 22 
1418 2755 2369 1708 1296 2312 2813 2162 1978 
1566 3852 2910 1249 2958 2365 4055 3220 2379 
3296 4448 2486 2860 1571 2613 3829 2251 2796 
3388 1587 1610 1946 2719 4341 3162 5637 4555 
3910 4999 4603 4907 5809 3434 3934 3279 2760 
3450 5386 3146 4152 3897 4655 3400 3037 2465 
2833 3334 4613 4351 2766 2516 5066 631 792 
922 1599 1814 1973 2641 1618 2090 1519 888 
770 854 2126 1127 2053 1199 2991 3811 2657 
1265 1407 1852 1951 816 264 2152 1303 2509 
954 1351 1475 941 1602 2725 1083 1176 2903 
2817 2063 1442 743 1985 226 2370 2163 3649 
4094 2406 3452 2753 4239 2908 3570 2229 4745 
3323 3798 3238 4298 5050 4114 4842 3518 3677 
2184 1394 4707 2780 3481 3765 2505 2758 2835 
4251 3433 4933 3775 2729 4526 4293 4270 4277 
3679 3898 5543 3041 3304 4549 4453 5575 4701 
2727 4798 4077 2798 3442 2868 4126 3489 4698 
3678 2995 3885 4584 4693 2218 2467 2570 2828 
3168 3339 3646 4520 3705 2221 3070 1844 4395 
3457 3526 2634 2027 3031 2707 2500 2140 2904 
2952 3916 4882 2923 3232 3239 3476 5537 4964 
5476 4314 5764 3903 2692 2568 4932 5577 5155 
3317 5566 4920 5084 5006 5991 5560 4685 4692 
4901 4948 5524 5487 4714 4680 5380 3071 4004 
4630 2797 4352 4317 4634 4158 4190 4635 4748 
4098 4164 6063 4965 5758 3290 4474 5819 5615 
4082 3779 4583 4738 4115 4664 4108 3036 4504 
5296 4617 3904 3614 4043 2720 5231 3810 3584 
4953 3505 2690 3002 4348 3780 2854 1964 4069 
4100 2546 2618 4045 3510 4390 2978 2592 5431 
4606 3704 3951 5226 5259 4543 4438 5600 5218 
3996 5176 4197 2888 5664 4791 2950 5815 5583 
4536 4881 6006 4815 5541 4885 4258 4531 5074 
3512 3411 3288 1308 5180 4019 5473 2193 2788 
3551 2869 3356 2665 5982 2884 3963 4381 4690 
5621 5419 2549 4391 3647 4345 4176 2699 3908 
4057 2463 5184 4926 4591 3364 3310 3536 4571 
3186 4671 3291 4012 4392 4573 4224 3950 4335 
3980 3545 5989 5150 3327 5009 4699 5460 2543 
3552 5542 4477 1365 4440 3671 3329 1743 3138 
4500 5316 4022 2782 4756 6058 3308 3844 5366 
5202 4582 6017 5292 5957 5216 5409 4562 4683 
4153 4464 3947 5849 5368 3415 5377 5350 3849 
3869 4484 5706 4086 6040 5695 3531 5314 5929 
5302 4761 3285 5402 3892 5739 3922 5358 5318 
1849 2598 868 1917 2556 2967 2567 2644 2721 
3195 4704 3154 3945 4331 4052 4025 3412 4143 
4271 5256 5712 3673 3670 3708 5039 5522 5736 
2520 4847 5388 5389 2131 5359 4103 5964 4099 
5219 5048 5026 2874 5795 4989 4657 4943 6011 
5421 3804 4427 3578 6001 5673 3521 4604 5521 
4140 4709 3558 4553 5875 5794 5811 5424 6027 
5372 6043 2427 6053 5052 2984 5260 5529 5299 
5904 5573 5229 5227 6048 4456 3336 1800 2963 
2412 2658 3085 3025 2680 3893 2200 2700 2145 
2558 2994 2647 2578 3358 1881 3778 4241 3401 
3983 2831 2925 3524 2871 2818 3130 2282 2668 
3029 2079 3191 3621 4036 4156 3907 3927 4437 
3931 5341 4527 4378 5035 4383 2443 3833 5805 
3717 3277 2956 5909 4659 3738 3426 5867 4433 
5199 3114 3785 4625 6029 3403 5127 5390 6032 
5170 3587 5997 4928 3731 5059 5266 5220 2916 
5426 5728 3030 5718 5081 5711 5303 5238 4737 
4719 4465 4509 4954 4534 5740 5701 4439 5255 
6010 5672 6016 3251 2552 3293 4178 2836 2762 
3905 4374 2228 2018 3309 3265 3462 2801 3272 
3139 1866 1746 2171 2745 2557 1675 1222 2667 
2377 2372 2468 2576 2470 2321 2421 2061 2075 
3224 1623 2466 2763 2779 2792 2168 1209 2594 
3532 3202 2873 3422 3987 2489 3196 2638 2413 
2939 1042 2815 3286 4302 4595 4984 3306 4499 
5682 2014 3553 5767 4903 3203 4461 5065 4189 
5069 3761 4493 5261 5948 5531 5826 2649 4220 
4826 2301 5340 4935 3692 4910 5848 5278 3932 
4123 4196 5322 5553 3737 5526 5710 4821 6068 
4005 3659 3838 3635 3617 4053 3992 4559 4246 
3636 3680 4498 4089 2724 1893 2761 3977 3151 
2966 4804 3470 899 990 1349 2899 2399 1513 
2554 1902 2307 1789 905 1144 1110 1346 2137 
2098 2005 2564 2240 1950 2042 1247 1636 2351 
1860 2344 2188 1109 1477 2017 1966 1557 1589 
2624 1622 1025 1856 1439 1128 1912 1488 2033 
1704 1473 2170 2146 4021 3268 1982 3846 1183 
4796 2429 2330 1417 2949 3486 5489 3390 4102 
2450 1285 4358 3236 5085 4446 4674 4359 3948 
4147 3629 4347 3131 3911 4279 5864 5484 5080 
5474 3873 4372 5908 4130 4587 5053 4618 4155 
4091 4658 4946 4691 4528 4922 4064 4696 3743 
3292 4708 4062 4558 3573 4731 3111 2143 2314 
2851 1784 1680 2548 1268 2669 1986 2375 2898 
1227 1142 1495 1921 2209 788 1609 796 2571 
1764 745 1533 1736 2110 1649 1350 1672 2246 
2599 155 2068 1493 1210 1020 920 1396 1309 
2253 2313 702 1544 1756 855 709 994 1441 
1847 579 1540 956 1975 1777 1773 1501 2157 
768 2276 1507 3606 2664 2582 4107 2786 2316 
3330 2437 4320 2822 3572 3055 4166 3669 5681 
4539 4924 3127 3874 3204 2350 3706 4854 3627 
5993 4717 3698 4753 4519 3768 5269 5559 5018 
4593 3622 4755 5264 3495 4316 5060 4492 3142 
1361 2701 3357 1102 3468 2914 3123 2204 1076 
1279 1008 1293 2661 1504 1370 1324 1960 74 
2016 1201 1552 174 183 2084 1463 331 232 
599 1255 93 1410 1105 2333 12 195 2045 
1993 1030 718 1026 1263 1009 2525 504 1079 
2397 3693 470 594 1980 2553 3593 2030 4226 
1411 3764 2866 2964 3650 2456 3567 4597 4078 
2968 3161 4436 3632 5315 4722 3782 3744 3394 
2954 3469 5370 4014 3448 4330 5310 5725 5222 
4145 5562 3608 5671 4566 5207 5786 5549 5777 
4662 6002 5973 3891 4962 3258 5847 4844 4379 
3721 3318 4961 2973 4955 2902 2305 4213 3278 
4327 3958 1454 2986 3145 2133 2124 2889 2021 
2816 3197 4490 2360 1120 3190 932 3135 1522 
1402 1343 690 2359 704 2348 1049 2929 2832 
1508 2679 1019 2374 1987 3537 1415 2275 1830 
1702 4343 2342 2279 2031 3263 2901 4385 4204 
3644 4727 3282 4913 4081 3503 4824 5802 5027 
4614 2615 4515 4306 3328 5968 4517 3064 5070 
4370 5300 4851 3626 1884 4512 4807 4450 3289 
4375 4679 3594 5343 5056 5766 5780 3696 4432 
5984 4533 5602 4937 4354 5881 5986 4200 5890 
5119 5855 4294 5525 4169 5721 4724 3619 4915 
4508 3156 2765 5099 4118 4852 4793 4673 4429 
5321 4157 2660 4113 1682 3480 3865 4230 4435 
3686 2957 3700 3376 5172 4661 4117 4387 2713 
4772 3275 3946 4715 3817 4895 4916 5270 6062 
4783 5092 4445 4072 4269 4622 5658 5678 5162 
4816 5083 5465 5952 5878 4876 4599 4781 5781 
5143 5251 5075 5004 4557 4632 4725 4244 5447 
3383 5201 5394 5116 5082 4765 5139 5234 5713 
5471 5550 5814 5342 5720 4651 5743 4629 4971 
5032 5969 4503 5897 4535 5096 4198 4394 5812 
5916 5919 5644 4199 2820 3749 4119 5454 2947 
5785 4911 4487 4414 4887 5954 4181 5981 2946 
2893 3307 5925 5519 5033 4653 4620 4506 4990 