# vtk DataFile Version 4.2
Generated by LIGGGHTS
ASCII
DATASET POLYDATA
POINTS 6000 float
0.00459208 -0.0426956 0.00892988 0.010958 -0.0427266 0.00914258 0.00459685 -0.0352422 0.00941668 
-0.0425441 -0.0131244 0.00863498 -0.0445652 -0.00237879 0.00879412 -0.0403182 0.00179414 0.00925406 
-0.0211714 -0.0396456 0.0121835 -0.0246992 -0.0375565 0.0108248 -0.0235989 -0.0380638 0.0150638 
-0.0206233 -0.0399159 0.017235 -0.014467 -0.0424933 0.0124752 -0.0150171 -0.0371589 0.0135564 
-0.0174926 -0.0411085 0.0149947 -0.0152362 -0.0382326 0.0175028 -0.0140903 -0.0422409 0.0171224 
-0.0101388 -0.0436445 0.0110725 -0.00846328 -0.0403556 0.0139327 -0.0110748 -0.0374052 0.0121977 
-0.0068301 -0.0444692 0.0131963 -0.00479207 -0.0413275 0.0154184 -0.0104451 -0.0437336 0.0154807 
-0.0045233 -0.0371869 0.0174114 -0.00694677 -0.0444405 0.0174172 -0.00283779 -0.0448134 0.0127185 
-0.00222355 -0.0392644 0.0129059 0.00214568 -0.0395401 0.0147132 0.00368627 -0.0445449 0.0127445 
0.000377103 -0.0449133 0.0155155 -0.00295192 -0.0447181 0.0180328 -0.000871357 -0.0409106 0.0171726 
0.00618745 -0.0401157 0.0162325 0.0116607 -0.0418979 0.0151981 0.00446553 -0.0447368 0.0169243 
0.00941867 -0.0439071 0.0178374 0.0123651 -0.0373575 0.0126115 0.0148523 -0.0420581 0.0126469 
0.0202039 -0.0398505 0.0114307 0.0145215 -0.0387847 0.0160546 0.0178978 -0.0408948 0.0154028 
0.0224374 -0.0385493 0.0152438 -0.0293642 -0.0338335 0.0114048 -0.029631 -0.0296721 0.0128201 
-0.0297643 -0.0331139 0.0162511 -0.0331936 -0.0298155 0.0154467 -0.0292022 -0.0291439 0.0167984 
-0.0234704 -0.0337236 0.012077 -0.0256489 -0.0306857 0.0137186 -0.0270162 -0.0359379 0.0149143 
-0.0236526 -0.031873 0.017074 -0.0196051 -0.0349128 0.01215 -0.0161251 -0.0329858 0.0130794 
-0.0185715 -0.0369193 0.0155357 -0.0138118 -0.034134 0.0161635 -0.0153643 -0.0302524 0.016107 
-0.019733 -0.0303839 0.0170357 -0.0120399 -0.0328098 0.0127619 -0.00958528 -0.0288159 0.0116666 
-0.00429056 -0.0308051 0.0135376 -0.00804415 -0.0328888 0.0121684 -0.00615178 -0.0338177 0.0155989 
-0.0101081 -0.0359791 0.0159976 -0.0111061 -0.0300559 0.015618 -0.00634064 -0.0297226 0.01724 
0.00200615 -0.0353981 0.0137565 -0.00274848 -0.0352467 0.013636 0.00375651 -0.0291159 0.0146788 
-0.000234641 -0.0296344 0.0147424 -0.000408889 -0.0348836 0.0169068 -0.00268315 -0.031351 0.0175009 
0.00642345 -0.0364347 0.013197 0.0102164 -0.0338199 0.0131855 0.00707194 -0.0314236 0.0152033 
0.0110014 -0.0308526 0.0169525 0.0169701 -0.0363859 0.0123532 0.0129146 -0.0292809 0.01372 
0.017308 -0.0319303 0.0130413 0.013655 -0.0340198 0.0162037 0.0179596 -0.0355207 0.0163973 
0.0206425 -0.0288626 0.0159134 0.0173507 -0.0308256 0.0173934 0.0238196 -0.0369513 0.0116408 
0.0273425 -0.0311818 0.0121841 0.0210777 -0.0333041 0.0143501 0.0282553 -0.0348624 0.013976 
0.0244526 -0.031298 0.016028 0.0260254 -0.0363672 0.0171983 0.0282201 -0.0294488 0.0174888 
0.0331153 -0.0293568 0.0126206 0.031563 -0.0318062 0.0156054 -0.0372452 -0.0249857 0.00962312 
-0.0393217 -0.021386 0.0112186 -0.0384254 -0.0215236 0.0152239 -0.0331985 -0.0280426 0.0114069 
-0.0328998 -0.0230112 0.0120253 -0.029222 -0.0255205 0.0141279 -0.0360297 -0.0251179 0.0143046 
-0.0324121 -0.0238484 0.0161234 -0.0256478 -0.0263502 0.0113984 -0.0206384 -0.0248612 0.012509 
-0.0216647 -0.0206448 0.0119397 -0.0249553 -0.0237214 0.0149093 -0.0250086 -0.0276864 0.0165479 
-0.0209117 -0.0263954 0.0163676 -0.0270091 -0.0207577 0.0172934 -0.0281195 -0.0248053 0.0180706 
-0.0224287 -0.0210044 0.0170669 -0.0186598 -0.028476 0.0135734 -0.0135703 -0.0282097 0.0129501 
-0.0151473 -0.0235713 0.0130238 -0.0185834 -0.021942 0.0150076 -0.0129204 -0.0255038 0.015831 
-0.0167756 -0.0263063 0.0167993 -0.0151406 -0.0224158 0.0171083 -0.0118894 -0.0205055 0.0117979 
-0.0057165 -0.0267718 0.0126285 -0.00712006 -0.0204335 0.0134987 -0.009927 -0.0237582 0.0135212 
-0.00638271 -0.0239983 0.0154983 -0.00949939 -0.0265964 0.0179286 -0.00821404 -0.0207829 0.017367 
-0.00333163 -0.0221609 0.0135949 -0.00102968 -0.0255202 0.013431 0.00250093 -0.0240918 0.0120204 
0.00180556 -0.0203978 0.0138027 0.00188422 -0.025643 0.0169172 -0.000587346 -0.0220547 0.0166129 
-0.00293197 -0.0262868 0.0169006 0.012279 -0.0248055 0.0131733 0.00914777 -0.0275729 0.0142563 
0.0062065 -0.0247967 0.0149662 0.00941798 -0.0223354 0.0147025 0.00434798 -0.0224531 0.0177502 
0.00610287 -0.0280733 0.0179694 0.0157902 -0.0268446 0.0113131 0.020019 -0.0219173 0.0144224 
0.0130735 -0.0209302 0.0159515 0.0164246 -0.0236038 0.0163361 0.0143109 -0.0269969 0.0171241 
0.0274397 -0.0211405 0.0131167 0.0266572 -0.0263961 0.0146779 0.0226304 -0.0252203 0.0145026 
0.0255618 -0.0226191 0.0168971 0.024364 -0.0274763 0.0179872 0.028733 -0.0248911 0.0180508 
0.0330875 -0.0233274 0.0134663 0.0369201 -0.0249899 0.0129235 0.030756 -0.0267436 0.0151271 
0.0305632 -0.0210911 0.0160974 0.0354851 -0.0271361 0.016143 0.03444 -0.0221616 0.0175278 
0.0390852 -0.0212705 0.0137062 0.0385127 -0.0224495 0.018052 -0.0413432 -0.0176865 0.0124017 
-0.038682 -0.0135768 0.0115084 -0.042719 -0.0134349 0.0133389 -0.0383211 -0.01511 0.0152121 
-0.0409607 -0.0182268 0.0165124 -0.0426062 -0.0141305 0.0176127 -0.035333 -0.0160854 0.0121861 
-0.030201 -0.0187227 0.0134106 -0.0346746 -0.0196414 0.0141888 -0.0314493 -0.0133257 0.0155715 
-0.0339415 -0.0166277 0.0169892 -0.0302803 -0.0183014 0.0175253 -0.0281908 -0.0145727 0.0127767 
-0.0228571 -0.0161004 0.0118456 -0.0261628 -0.0183449 0.0141312 -0.0245942 -0.0130583 0.0141842 
-0.0275253 -0.014359 0.0168938 -0.023685 -0.0166207 0.0169246 -0.022756 -0.0125338 0.0179912 
-0.020185 -0.0182783 0.0148895 -0.0128593 -0.0159952 0.0125971 -0.0169043 -0.0151696 0.0132345 
-0.0131337 -0.0120915 0.0137783 -0.015422 -0.0188741 0.0142062 -0.0191942 -0.0127195 0.0156843 
-0.0174555 -0.0191446 0.0177127 -0.0157259 -0.0140709 0.017364 -0.0121502 -0.0198391 0.0163292 
-0.00723567 -0.0133352 0.0133384 -0.00947289 -0.0173125 0.0143849 -0.0119096 -0.015167 0.0168654 
-0.00553641 -0.0167122 0.0151159 -0.00413153 -0.020042 0.0171451 -0.00170812 -0.0183159 0.0136703 
-0.00214146 -0.0130421 0.0127042 0.00203458 -0.0161193 0.0136528 -0.00333536 -0.0121857 0.0164657 
-0.00103875 -0.0155752 0.0165898 0.00190351 -0.0190087 0.017592 0.00586505 -0.0202125 0.0141029 
0.00495334 -0.0129952 0.0135103 0.0114431 -0.0177003 0.0131977 0.00861164 -0.0150783 0.0144944 
0.0119901 -0.0128918 0.0139047 0.00881751 -0.0185607 0.0165561 0.00513749 -0.0166075 0.0161471 
0.00446181 -0.0123037 0.0176054 0.0113138 -0.0153326 0.0174561 0.0167638 -0.0192506 0.0148589 
0.0149596 -0.0156474 0.014398 0.0202709 -0.0170039 0.0139576 0.0178613 -0.0128216 0.0140967 
0.0179804 -0.0156149 0.0170268 0.0145763 -0.0175824 0.0180158 0.0147002 -0.0131619 0.0177361 
0.021969 -0.0123616 0.0138191 0.0235351 -0.01941 0.0132119 0.0262226 -0.0148084 0.0137717 
0.0259217 -0.0179761 0.0162197 0.0224655 -0.0200106 0.0171623 0.0235586 -0.0139778 0.0172454 
0.0307503 -0.0157797 0.0130459 0.0367461 -0.0155996 0.013758 0.0338033 -0.0186513 0.0148688 
0.0342802 -0.0124892 0.0149777 0.0292112 -0.0151764 0.0167417 0.0390849 -0.0122241 0.0130307 
0.04085 -0.0157868 0.011307 0.0375318 -0.0188552 0.0165407 0.0413557 -0.0169793 0.015549 
0.0385839 -0.0136534 0.0168155 0.0427677 -0.0138599 0.0176929 -0.037867 -0.00968441 0.0119921 
-0.0443451 -0.00631126 0.011594 -0.0405167 -0.0057228 0.00954772 -0.0410871 -0.00467896 0.0135818 
-0.0437653 -0.0095349 0.0139607 -0.0445558 -0.00527068 0.0155199 -0.0393522 -0.0117417 0.017337 
-0.034904 -0.0119724 0.0140727 -0.0298374 -0.0104723 0.013044 -0.0357206 -0.00606409 0.0100839 
-0.0334458 -0.00861671 0.0122829 -0.0318383 -0.00517301 0.0140691 -0.0359214 -0.00576639 0.0144836 
-0.0317252 -0.00744732 0.017476 -0.0363143 -0.00834567 0.0175709 -0.0210988 -0.0104236 0.0129729 
-0.0257294 -0.00899189 0.0128237 -0.0223825 -0.00583385 0.0138991 -0.0270288 -0.00588814 0.0150241 
-0.0276999 -0.00973521 0.0166441 -0.0236267 -0.00899703 0.0163377 -0.0239936 -0.00503179 0.0176035 
-0.0171646 -0.0111544 0.0125841 -0.0191991 -0.00659569 0.0113233 -0.0132432 -0.00816954 0.0151142 
-0.0137847 -0.00420181 0.0150711 -0.0174696 -0.00697174 0.0150654 -0.0198679 -0.00932821 0.0178424 
-0.0157984 -0.0099577 0.0177808 -0.00991154 -0.00964341 0.0134097 -0.0057127 -0.00960233 0.0136712 
-0.0102024 -0.00555356 0.0138832 -0.00618481 -0.00559773 0.0137689 -0.00797094 -0.0110864 0.0166948 
-0.011939 -0.0111509 0.0175345 -0.00448049 -0.00820776 0.0175221 -0.0082822 -0.00697591 0.0173673 
0.00125882 -0.0117271 0.0144997 -0.00171842 -0.00901092 0.0144883 -0.00210935 -0.0049929 0.0148064 
0.00106922 -0.00672421 0.0165918 0.000295152 -0.0103338 0.0181535 0.00433064 -0.00920077 0.0150107 
0.00434948 -0.00500433 0.0145956 0.00857525 -0.0107345 0.0137738 0.0116233 -0.00815022 0.0143276 
0.00825014 -0.00593884 0.0142156 0.0117839 -0.00442746 0.0159433 0.0112188 -0.01092 0.0174869 
0.00759721 -0.00913727 0.0173219 0.0149868 -0.0101817 0.0150781 0.0157474 -0.00622694 0.0149364 
0.018893 -0.00889948 0.0148243 0.0193435 -0.00443 0.0154908 0.0136654 -0.00764527 0.0180617 
0.0256819 -0.0108083 0.0142545 0.0285931 -0.00812346 0.0132894 0.0227901 -0.00582156 0.0139456 
0.0262988 -0.00390346 0.0142077 0.0225185 -0.00908563 0.0165777 0.0261503 -0.00715552 0.0167975 
0.0275186 -0.0109249 0.017922 0.0296168 -0.0119278 0.0144152 0.036635 -0.00907816 0.0143094 
0.0325885 -0.00880178 0.0145348 0.0343022 -0.00525544 0.0136425 0.0304604 -0.00479574 0.0149324 
0.0335298 -0.00616528 0.0176556 0.0432506 -0.0118961 0.0136697 0.0382945 -0.00539536 0.0142456 
0.0443409 -0.00766469 0.0140698 0.0421293 -0.00427548 0.0145769 0.0403381 -0.00841136 0.0159178 
0.0438975 -0.00973172 0.0176507 0.0446164 -0.0055191 0.0175448 -0.0446328 0.00195665 0.0100972 
-0.0374695 -0.00209253 0.0137598 -0.0448994 -0.0012652 0.0128601 -0.0446388 0.00283126 0.0144825 
-0.0411406 0.000373565 0.0149046 -0.0406576 0.00413899 0.0171342 -0.0361507 -0.000199623 0.00999844 
[...]
POINT_DATA 6000
FIELD FieldData 7
id 1 6000 int
2609 4782 5605 4371 1376 537 5932 5943 5639 
5904 1128 4744 4682 5081 5827 5227 2569 5662 
3325 4896 3326 4206 3974 5093 2066 1154 2014 
302 4000 5005 5672 1874 3335 5514 2037 1558 
4357 3069 5364 5166 5739 5052 1333 5573 3586 
313 3313 6059 3212 3421 3039 6027 5724 3387 
4106 2984 18 34 5545 374 2878 4703 2261 
2536 1659 3324 4737 3714 4123 6010 1650 5325 
5423 5740 4359 3479 5730 4412 2905 3954 2666 
2227 2453 1098 3709 3948 2922 2013 2129 5420 
4853 5346 143 5363 4006 6037 4321 1152 3702 
5229 679 5875 5318 5929 473 5794 4456 3032 
3984 5529 3731 3833 5977 5728 4439 4405 2020 
3120 5701 2148 1088 4465 3373 5962 5665 4821 
1891 403 2222 4935 3040 3102 1439 1397 1721 
5680 5478 3013 2392 4610 3359 2337 4013 2229 
3726 1687 2136 1563 5890 2505 2560 2257 4388 
2122 5684 3455 3521 3382 4026 4649 525 4128 
4365 3710 5402 4088 3 3558 1962 5097 3923 
3216 4570 5856 3549 2623 6043 3006 985 5303 
2626 1013 747 2358 5281 1939 1354 2310 257 
3075 3375 5322 426 1347 1767 1228 2612 2843 
209 1352 3753 1236 4382 1885 1905 609 2754 
2768 2251 78 3777 3260 3459 2379 2650 4867 
44 3161 181 5040 2968 1901 4616 4276 4074 
1546 2418 1691 2586 1449 471 4249 5106 3534 
4060 268 3471 4087 1903 5304 3416 5298 4362 
710 5557 988 774 3961 2339 5500 5451 4553 
6053 396 1732 1630 274 178 2135 81 3933 
5586 1584 432 1372 1600 1129 582 664 1576 
408 575 1730 1045 576 2704 639 208 1886 
2114 4139 1698 496 2517 3758 3071 2331 4159 
4837 3010 1305 72 4722 4789 3101 5524 1612 
2875 4450 1078 3938 117 252 4569 278 4600 
4777 1371 502 1093 3968 1715 316 5846 1741 
402 720 5265 4080 38 4202 3791 4284 364 
165 435 5224 2810 640 1440 247 2329 858 
377 1189 440 214 616 864 301 565 1362 
1046 211 1637 341 383 381 2659 3595 2555 
2844 459 2961 2857 267 1374 2629 4810 4032 
2290 3900 4114 4668 3585 4883 2731 3855 3017 
4678 2327 1240 1445 500 976 1074 638 3098 
62 1523 63 48 1401 935 529 1307 468 
870 397 3453 517 660 2867 1108 840 550 
1011 171 758 1180 153 368 1171 508 164 
1645 266 560 306 890 390 513 1272 61 
851 1749 2879 3245 2403 1325 2915 1168 2523 
2709 3408 399 5815 1526 258 4391 6006 4592 
5495 5050 5583 3166 3793 1961 4667 3988 3530 
4258 175 3432 3552 292 2113 2990 1934 2059 
2423 2118 2863 421 1060 234 107 2292 2094 
88 2452 330 762 906 1770 30 1628 441 
1424 952 857 45 1177 1246 1534 236 590 
1420 1267 1642 420 133 3662 1215 100 1913 
418 853 1034 1490 200 1378 572 1069 2400 
3396 127 31 2077 3665 4690 2289 1136 3028 
2515 417 1627 5982 60 4591 2111 546 2699 
4791 3369 2510 1859 1311 1419 2326 1606 2636 
2478 2022 2385 427 647 1039 1426 1570 2366 
2071 1944 1037 1421 680 2311 2778 3068 2686 
1300 993 1304 2120 656 4965 1816 1164 687 
132 2117 2501 2161 4264 194 2064 1320 1679 
863 1689 1399 2151 2283 1211 5742 3566 4307 
4360 2869 5896 5367 3327 1047 229 1269 1757 
2097 3110 549 1648 2687 3162 893 3093 2302 
1713 887 3600 55 3005 2383 1528 3089 2642 
2583 900 3431 1805 1932 2987 1673 2814 2895 
2352 2462 3023 2852 540 367 2258 819 895 
3367 1520 2799 637 3107 3919 4019 910 1121 
357 1146 3087 483 4526 3322 2266 3427 4635 
4334 3189 2655 242 92 3512 2789 2676 4158 
412 2249 4474 5868 2708 2593 4034 5032 2962 
5260 3922 4501 4315 3616 5416 1396 5759 2645 
3568 4312 6014 3054 2522 932 4984 1680 3390 
3306 6023 4134 4986 5592 4534 1540 4586 3737 
5841 5565 1771 3152 3986 4322 5949 5085 5385 
2864 5944 4326 6016 4422 5526 3706 4743 3873 
5203 4347 3553 4567 3507 4373 3285 5732 5358 
4752 4411 4775 4209 5768 5302 6040 5424 4464 
5073 5828 4809 4928 2625 5957 4969 5822 3847 
4361 1020 4723 5156 5584 5848 3587 5328 2784 
745 1417 2638 5481 4297 5241 4446 2939 3801 
4195 4042 4136 2886 3994 1774 1601 1777 3081 
3350 4399 2159 5588 5813 2732 1293 4212 1690 
4240 3022 5373 4309 5634 4086 3882 4447 3223 
2427 5663 5706 3725 3825 4761 6007 2008 6032 
6029 4153 3531 4140 5026 5167 5186 4939 4762 
4509 5255 3021 3539 6047 4919 1123 5014 1837 
5189 2078 4308 3447 4151 4805 361 3991 5915 
2422 5696 3378 2434 3414 470 5956 3957 5499 
3781 4565 2316 5563 4461 4674 1087 5024 2840 
4147 3362 5061 2688 4363 3776 855 2822 3185 
2553 2860 1820 5886 4924 796 2362 4590 20 
3668 5124 4466 5297 4970 5217 5691 4484 5808 
4768 3347 3730 4272 3949 4304 3892 3418 4719 
4982 4267 4174 5372 4122 4427 4353 3576 5059 
5852 4689 5718 5536 5290 3690 126 4954 3230 
3692 4888 654 350 5711 5936 5134 5913 3030 
5299 5238 2524 5348 628 1539 2746 3932 4910 
4095 1955 241 2603 1607 1331 4376 3872 1707 
1982 2998 3478 5700 4320 2896 2107 5864 1437 
5278 4828 1686 2982 1636 4350 2420 3136 3632 
2431 1751 3494 1242 485 986 1845 3712 3548 
2958 2369 4879 4628 3388 5147 994 4849 2934 
5445 3839 2206 3208 2513 1846 850 4124 135 
5236 4073 2677 281 4718 2920 2101 3827 969 
270 2346 6045 531 5194 5645 139 4434 1668 
5504 4605 5695 4892 1145 606 3492 5043 3059 
738 706 216 917 1914 3913 248 1065 876 
2542 371 938 3311 1512 477 1930 401 629 
4511 1184 520 3443 1631 682 1632 1221 1027 
726 1828 1015 1633 3220 881 4478 1063 1568 
3045 904 3682 2236 1466 2959 1670 3323 26 
2130 997 2861 2842 2999 4685 3103 2156 2202 
2480 4205 3297 5393 2739 3681 4448 4893 3798 
4298 4727 2365 3238 5182 2780 3626 4078 3677 
2579 3481 3235 4512 5070 1031 574 1277 358 
452 32 902 1294 1776 1588 336 649 49 
499 3269 842 71 2036 948 244 4602 3008 
789 2850 1619 2444 810 1883 251 528 522 
2775 329 235 2460 123 843 5181 118 507 
694 98 987 2 3298 1684 1472 217 4741 
282 392 91 659 275 1232 964 188 951 
558 886 338 1257 173 2793 1446 1182 3851 
641 2960 1738 1829 1259 2654 1043 2897 1711 
4191 245 5135 551 797 2600 1855 2217 149 
4280 742 4872 4452 2633 5090 1958 658 3649 
1799 3321 3317 1949 4745 4909 4857 3518 3570 
4403 2753 3469 4188 4436 4630 4306 4517 5007 
4807 3391 4170 4004 1261 2363 2338 2432 869 
2477 1345 4002 1021 4046 1706 1115 1456 474 
608 66 2512 684 1336 2428 2537 552 1 
822 622 75 773 1044 297 170 2109 434 
145 136 1458 1141 221 1071 1139 812 1066 
444 1709 311 538 748 380 1436 673 1491 
1369 1339 2631 1070 1000 490 1103 867 348 
1471 983 1010 1792 524 1969 1118 2776 1005 
2911 1514 1195 2635 2182 2325 874 530 4711 
3126 2081 3993 5664 2705 4392 5084 4035 2955 
5566 3243 446 3859 1907 160 3747 3466 2393 
5560 4599 5541 4714 4138 4948 636 4876 2950 
5200 3328 5422 4680 3588 2883 2490 3305 3544 
2387 3184 3446 1722 1505 1790 2263 1782 2356 
691 3366 3641 466 678 1072 353 2105 1872 
984 2099 17 885 1218 740 1462 2015 162 
1531 1095 2459 2591 2577 1223 1016 2095 849 
1850 859 2167 3581 366 1556 896 1243 328 
129 1887 559 2398 1798 1817 431 122 27 
121 279 795 766 1724 385 663 4245 1864 
1991 305 2511 456 23 620 298 3551 940 
4057 3780 4345 2543 1317 4926 40 4513 15 
3409 674 828 1750 3082 1306 2940 2514 3226 
4381 3615 611 1308 3368 413 3545 4781 5781 
3967 1017 2737 5863 5934 3210 3153 484 3353 
3579 2264 1768 2748 3393 3915 3434 3246 2663 
2781 2104 916 3201 1959 1052 3340 3020 3546 
2821 1525 3399 1667 2328 3406 2691 1126 3815 
3262 4126 3540 1831 67 5066 2995 518 4798 
3304 5575 4135 2262 1923 4098 5082 4190 676 
2868 4583 2345 2519 1188 2235 2197 4664 811 
826 927 1028 1791 3463 3038 2299 299 2825 
2463 3405 3963 4573 4176 2256 5419 601 387 
1807 5184 2884 961 1535 3186 4865 5272 5430 
3950 5821 4470 5009 2549 3908 5989 1611 2447 
583 2974 3661 2944 4270 4352 4293 3594 2835 
4655 2076 5549 5496 5780 2900 3249 2760 3433 
3897 3357 4184 4169 5185 4453 3041 5973 5543 
5881 4261 4118 950 2729 2727 5855 3868 4701 
2683 5758 2889 2751 3514 3809 2341 478 6021 
5538 4108 3843 254 4082 13 4639 903 5835 
1851 4651 5621 5287 5126 5743 2116 1906 3762 
5296 5417 2726 5180 4705 4480 3998 3889 5460 
3888 4256 146 2902 5847 3775 1614 6046 4933 
4277 5984 3450 5119 4317 3444 3850 2797 5139 
5550 5104 4432 2979 3333 1024 4748 5193 6063 
6000 5986 3290 4077 3898 5234 4596 3719 4629 
1225 3411 2103 3805 5615 5819 3288 5342 4164 
4489 4899 2794 2454 3517 5374 4983 3656 1662 
5491 6017 3849 4022 4756 5685 5213 2714 5458 
5359 4687 4826 1521 3713 5051 5347 3736 3112 
5556 3575 5063 2890 5527 1110 5607 2508 2386 
3559 4578 5350 3338 5410 5152 6013 5792 3820 
1363 5610 5710 4829 4127 3795 5668 5561 709 
1999 2970 2226 4581 2416 4238 2300 1030 3703 
4502 2430 1937 5202 5804 3464 5314 4471 4103 
4562 4582 2520 3947 2782 2158 5178 3180 2344 
6020 4406 4875 5552 5045 2595 3603 5972 4749 
4340 6004 5215 2702 4803 1183 4766 5528 1565 
3785 2268 5244 5442 5013 1977 4183 5744 2137 
3345 1323 5222 2581 4880 4451 4031 3461 4836 
2874 113 6064 4424 4380 4561 5138 131 5391 
5486 5951 5891 2943 2649 3425 3881 4695 504 
4988 1764 2042 5327 1825 5760 4017 3124 3773 
5515 3869 4683 4303 3308 5368 5409 3981 4541 
3671 3415 5823 5483 3699 5539 4544 5421 4295 
5048 5316 4973 4500 3281 5811 5127 4943 5243 
4700 5377 2853 2639 6001 2195 6008 5055 2433 
2301 4721 5461 5382 5564 5903 5959 1392 5448 
5659 5440 2988 4977 5223 3803 1062 5390 5708 
1199 788 1847 6065 5489 3997 1737 5192 3672 
5908 1646 6048 5209 5555 2024 4165 2284 4021 
4904 2767 5650 3942 2184 4627 5294 2496 3435 
2613 4228 2026 4226 4546 4636 1736 2954 3449 
2216 4400 3329 3941 2451 3475 4554 4740 2787 
3935 2749 4133 2187 4709 5282 3723 4746 3653 
5406 3129 4229 3883 4232 4179 4131 3741 3738 
5105 5521 3655 3804 4469 4433 512 4956 5426 
5719 4697 4747 708 4638 5163 5910 4220 3172 
5948 5775 3160 3295 3454 3846 5531 1965 5188 
4339 4389 3381 3807 4818 3826 3219 2245 3019 
1871 2770 2355 2711 3084 2912 1655 1697 3035 
723 321 2054 3852 5707 1493 1935 5995 4759 
4486 718 2231 3026 2376 317 108 77 1760 
4784 2758 579 5918 1084 4305 1890 429 2019 
542 3458 2479 1625 2846 3856 1926 2192 4942 
3902 632 2698 3724 3363 3132 3733 2811 1479 
1998 2353 2049 2992 2809 3834 1787 652 3769 
2378 2347 3861 2001 35 339 4556 2916 835 
2303 4111 2856 5049 5261 73 1318 1765 4712 
6012 732 5935 5716 2550 781 2585 1853 515 
1802 2930 400 2602 2800 2147 1550 1403 324 
3342 2108 3192 3057 3529 3012 1867 1909 2503 
2051 5110 1249 2406 1315 272 2640 3296 5968 
2910 4055 1312 4780 3857 2719 4330 4049 4259 
2150 2005 1830 1990 767 1922 1053 2491 2149 
2000 294 1827 960 2237 1733 2277 1492 2457 
1181 1947 570 1810 1193 1393 543 1245 1383 
791 918 3137 2894 979 172 493 1735 2038 
1652 7 626 69 265 825 204 2681 314 
1055 223 848 614 1861 1542 365 410 411 
568 333 28 455 308 2580 238 352 725 
548 801 1038 29 737 47 734 210 76 
1284 1092 580 569 1832 379 1766 612 1056 
2280 1910 666 3413 2436 4932 19 4252 2334 
2488 4239 5006 2568 5027 4816 4094 4913 4398 
4081 3064 4597 5965 4269 4458 5802 4944 3824 
5641 6050 4342 5315 4614 4375 4851 3962 4931 
1275 5769 1574 2410 4254 2173 3229 3251 657 
2877 971 2233 1163 1710 498 3066 707 1254 
2018 2340 3473 1197 519 2062 957 128 56 
1366 755 1172 1135 1191 646 713 1022 479 
1562 926 1334 1340 393 897 1002 942 184 
96 1560 635 1216 307 130 1561 1214 177 
532 667 1398 619 1271 354 634 1287 1438 
1192 545 1747 2574 1536 323 3099 1693 124 
4571 4459 4020 4227 1487 3436 2220 2975 2692 
2132 5991 4842 3822 4901 2324 5226 2615 5487 
5678 343 5577 5488 5176 3503 4679 4289 4692 
4370 5300 4632 5162 5251 5465 4702 5380 5788 
930 3128 2738 4940 2870 2881 3745 2469 1945 
4155 3939 1953 2606 2744 4528 3685 3065 2620 
1641 1694 1450 2807 2924 2977 2389 1288 721 
963 166 865 701 3094 1605 196 388 43 
1400 1167 1527 2073 514 310 1385 1654 250 
937 1186 319 924 4268 2404 521 461 231 
603 688 3356 4606 2972 2622 4100 809 729 
433 3625 373 862 2475 5454 3491 5752 1564 
362 3058 1762 2665 1970 1621 189 2588 5218 
5658 1390 5503 5726 970 3364 4482 3420 4881 
4197 5542 5878 4675 4885 5075 4815 2618 5074 
4531 5652 3542 3583 3659 4507 2965 3410 3837 
4152 3599 3165 3511 4608 3910 2052 3209 3177 
3501 3173 1803 4351 4613 3806 3895 4755 2190 
2032 516 2545 4549 1653 3398 2608 3678 2110 
3721 1941 3334 2144 3400 3675 4584 3442 3502 
2535 1538 3779 4738 5558 5911 3584 5231 4198 
2777 3036 86 4394 3810 4115 4069 4953 3647 
5674 2589 4199 3052 2499 3848 5133 4173 3590 
4348 1818 3316 2788 6025 5158 5404 4180 5042 
5834 3980 5150 3623 5463 5174 5285 4671 5140 
5267 5787 4477 3536 5831 4699 4341 2242 4037 
3279 4492 3292 3037 4603 6002 5091 5637 4555 
3934 5264 1018 1545 1877 4891 2057 386 4844 
4217 5173 4213 4485 5930 1049 5351 5937 5569 
4529 4915 5094 4056 3460 5969 5485 1473 5130 
5916 4503 2976 5987 5919 1763 2907 4861 4157 
5698 4641 288 4203 4300 3266 5999 3865 2367 
5731 4850 4487 4908 5095 4221 5860 5640 4163 
4224 5312 3133 5931 6030 5786 2044 1569 3234 
5725 3679 5447 4273 5357 4670 6044 5657 4354 
2276 3788 5248 3383 5428 5249 4677 5276 6052 
1857 3612 4839 5392 1609 2880 5473 5113 3562 
5148 5252 4813 5897 5757 2723 4349 5331 5079 
5843 3643 5994 4995 5921 2193 4806 4617 2402 
4978 3651 5773 3759 3138 3840 5361 4869 5436 
4223 3814 3523 3844 1882 2786 4116 1773 642 
1042 4595 5482 3332 5246 3633 2313 3148 1692 
5801 2160 2742 3506 6035 5016 5452 4090 5415 
5340 1640 1484 2981 3144 3217 3319 1954 2413 
5365 3515 3799 4624 2792 3485 2199 1656 1743 
3604 5279 3569 4409 2601 757 1557 4776 5399 
1230 4918 967 3242 5653 2866 5626 4366 3224 
2472 5432 4647 3628 3691 3194 3783 3320 5767 
2307 2287 5072 3864 2178 195 3236 5003 1007 
1256 5741 5618 4104 1940 4790 4296 3018 5686 
4716 2285 4966 2763 744 3771 3970 226 2128 
159 3255 5762 4010 4454 5702 813 199 5770 
5912 4877 3203 2813 4189 3374 4440 5208 4968 
3134 5927 1865 5859 5142 3930 1365 2470 4510 
3819 2693 5914 5441 1826 1001 2208 5366 3412 
5712 3250 5851 5307 3386 4811 5839 5902 5849 
2131 3072 4271 5356 4099 5170 137 4462 3955 
5873 4858 3927 5964 1808 3009 5867 3965 5395 
3456 5953 4726 3385 4563 3417 3426 4585 5979 
2728 3874 2443 1506 3717 2043 3606 4302 571 
2450 5336 2466 1474 3832 1035 5295 1346 5250 
1755 3543 594 2498 2632 3774 5080 1610 1361 
5990 4609 3720 2380 2919 497 3794 3346 5516 
3258 6058 5938 3975 5333 2834 1179 3354 4704 
4706 2652 2594 4033 2270 5795 2827 5853 5523 
5763 5449 3300 5115 5736 3315 2112 3227 2485 
4364 5146 2882 4222 3361 5705 5833 3397 3841 
3403 4187 3141 2969 3122 4831 1775 4156 4358 
5266 5220 3982 4604 5909 4496 5782 4257 4493 
3828 4101 4211 4457 4367 5205 1992 2506 3580 
3611 39 5128 2587 3729 3270 3147 4917 6060 
58 4792 4014 777 4003 1813 820 703 5068 
4819 5332 5398 6066 3610 1900 884 3111 4023 
3482 2163 2384 3445 2621 1938 5838 158 5088 
1784 5976 3953 1204 101 2401 978 2134 998 
5450 114 5292 2967 3509 3283 2617 2891 3451 
1695 2644 4331 2293 3944 3602 5154 1705 4025 
1806 3670 1498 4734 4143 4463 2567 4963 2772 
3767 2394 1971 685 1748 1873 2106 2495 2070 
3639 4598 5384 2740 3688 215 2232 735 51 
5498 3732 303 5412 437 909 3379 1148 111 
4263 581 3666 296 2785 2438 1651 1194 1968 
4355 3618 1915 2747 2531 2703 577 1838 1585 
102 4518 1434 1503 5008 2063 2080 1708 24 
1100 3452 4243 2817 1983 941 93 2343 4767 
1415 4841 334 2230 1377 1176 4208 4472 407 
3931 1461 1702 3972 5309 2684 315 1647 1160 
1924 2538 1360 1801 2556 2336 2069 700 711 
2721 481 5876 3195 3154 589 2435 1004 1870 
1869 4052 1911 5078 1367 2213 415 3011 804 
152 829 670 584 179 2003 561 662 852 
291 1406 727 337 1203 1452 46 1280 64 
85 1138 602 818 841 104 156 677 698 
645 83 384 598 207 630 1200 1671 1114 
2274 309 1322 1819 2888 981 2656 2805 395 
463 2534 2653 1754 5537 4923 5121 5753 4920 
3263 6024 2964 1079 2935 3282 5651 1943 4515 
2926 4338 3247 3541 794 5630 3377 3890 1794 
42 3607 1746 1482 2700 1739 3085 2971 2658 
4374 1809 2175 2127 3231 2335 1448 2228 2181 
2578 2716 2761 2680 3272 965 14 883 752 
1559 3100 2050 2248 1356 3119 1090 1157 1358 
671 262 404 2060 206 1626 1235 989 1097 
2439 1219 1727 591 105 1480 555 280 724 
564 1516 1465 605 286 523 370 2241 798 
3597 142 453 1511 198 3218 3106 325 9 
1075 592 672 3389 2646 50 476 2530 5600 
4105 4390 5270 4204 220 4314 5633 5259 5764 
5952 5155 5582 1753 3440 3903 5362 5612 4329 
5242 4622 2722 5830 4497 4193 2563 5756 3477 
4244 6018 5022 4536 4725 5806 5551 5722 5729 
3870 2829 3956 2297 1716 4005 3048 4053 2836 
2611 2790 2493 4125 3838 2696 3652 4691 3309 
3257 3999 2145 1703 1124 1598 1551 1258 1723 
2023 800 2391 567 651 2983 769 1876 763 
2265 482 1590 2273 1843 347 442 2928 771 
451 2527 1916 715 1099 587 2497 1643 907 
1481 472 2142 1388 681 3614 1510 756 3457 
1579 806 1162 4045 2820 2764 4119 1957 5925 
3310 5981 5572 1429 5103 1077 4620 536 4543 
3985 3996 4993 4843 5512 4990 3046 4934 4234 
4763 5011 5323 5083 3906 4068 5703 3015 6038 
5501 5850 2938 4868 5649 5403 5143 4694 4557 
3617 3636 4559 2481 4999 4418 4946 3240 4091 
3151 2865 3193 3470 4754 273 1395 1012 2993 
5386 3380 1603 2006 1422 4698 3489 2610 4508 
3885 2798 4793 2766 6034 1432 1299 2306 3076 
4200 4693 5721 5195 3646 2467 5576 21 2828 
5283 1226 5099 4673 2720 3505 3979 5096 5033 
3749 5884 4460 5785 4652 3740 5275 4141 5922 
5631 1956 4445 5381 4335 5616 4012 5604 4247 
5254 3096 5284 4615 5892 3990 4870 4619 5023 
4431 5214 4730 5749 5574 4854 4519 3667 1247 
3811 4658 4717 817 3680 4120 2552 4566 4146 
6069 3135 5738 5598 5383 3014 1856 2295 5945 
1552 5745 2016 5212 544 5253 4739 5812 5321 
3164 5877 4327 4676 4379 5771 3924 3918 3925 
4275 5648 2047 3582 3060 2092 5585 4442 5123 
4959 5590 5832 5942 2507 3711 3063 5334 4757 
5625 4402 5438 5054 2942 5239 4654 4075 5100 
5161 3291 6036 5464 5825 4112 5201 1202 5151 
4998 1795 4473 5117 3875 4728 5620 5394 4796 
3694 5021 3145 4886 562 2211 3000 2541 2084 
4799 4160 4548 3884 5879 5793 4838 5171 4414 
4937 2674 5694 5444 5961 5747 3474 5401 4788 
4054 3007 4011 4175 3952 4266 4423 1504 4579 
5225 4736 5116 3490 249 443 3280 1699 4397 
2399 4532 2308 1660 5874 5490 5207 1972 2360 
4778 1815 335 5599 5145 5681 2554 4825 966 
5723 1006 237 5497 3538 1251 119 5777 3547 
5667 4862 5258 5755 5462 3905 2168 3237 3560 
1950 4130 4929 5293 5 6009 3355 4889 218 
943 5046 1351 2162 2823 621 5237 1761 1836 
3259 2012 1594 5484 5036 2929 2566 4007 5993 
4873 741 2590 68 2381 1586 2102 1279 1507 
4827 4319 3880 2390 4662 5579 4063 3751 5673 
4437 2715 3592 5118 730 2669 1759 3784 1410 
878 1120 3786 4642 1411 4729 872 5870 2278 
4192 3867 4733 1681 5845 4572 4794 4524 6003 
1946 3550 1296 2312 4957 3835 4255 5232 1547 
5885 2468 1391 1281 1485 944 3130 1435 5177 
5699 457 4855 5034 1059 2504 5898 3878 4410 
5352 778 1104 753 2791 1349 1701 5219 5389 
3983 4663 3561 5689 2183 5971 1664 3684 5522 
2079 4059 5345 2945 2408 4420 1489 2921 5494 
4499 2872 4378 5692 4527 4426 1919 3596 3159 
5675 1431 2033 2072 1375 5233 1740 4684 4372 
1217 5015 5872 5313 3438 2743 5077 2855 5191 
1725 2605 5676 2458 2225 5772 5715 5268 1143 
4048 1580 1812 25 4029 1338 4551 1418 2253 
683 5388 1058 5256 3424 838 1929 5928 5611 
786 1931 802 2848 4847 772 3920 4846 973 
3578 4800 4874 4646 4530 4430 2487 5235 5513 
4292 5858 4930 1265 4285 2198 4659 5682 5206 
3213 4083 4383 2021 416 4540 4219 4253 1248 
2953 3284 1314 832 939 736 3188 787 2056 
5814 2196 5434 2139 1350 222 3565 776 5262 
5829 3821 2598 1785 871 3222 5799 1283 120 
4612 977 5459 1370 4214 3735 4248 1583 4900 
5646 3056 1086 1917 5354 3608 233 5865 4148 
1137 4237 1676 1387 1839 2847 743 1238 4985 
1379 1899 2074 991 176 784 4290 945 2547 
3964 284 94 1061 230 600 1678 3914 894 
3591 3027 1548 261 968 3621 1555 1928 70 
190 1404 2322 1213 2532 980 627 1289 1443 
1669 2219 33 2678 1224 4274 5647 1720 4196 
5101 5190 1220 3663 115 4089 3631 1132 4538 
2582 3143 1618 1644 554 239 5031 1778 868 
3520 4633 5153 1948 2712 1451 1675 2628 4860 
1677 5245 4927 6057 2529 696 5578 1165 3660 
5655 1467 4770 2647 3778 2093 5824 2717 2887 
6041 320 1409 1342 3083 808 2801 716 588 
761 351 839 161 793 1134 382 689 1091 
921 256 109 445 219 1094 201 974 1032 
805 669 492 936 2521 675 1638 1029 277 
3757 447 2518 1592 1797 4346 618 4377 4144 
3215 2304 1153 4343 4824 3476 2440 140 875 
3746 3171 604 3467 3696 3921 5411 5263 2209 
4751 4428 2675 1384 4523 5280 1572 1019 4344 
4771 4241 2372 2200 3428 1624 6 2667 3800 
2838 4804 3265 1878 4132 5602 5546 5029 1616 
1658 1786 1161 2028 5734 112 103 1085 1444 
1175 1620 1348 185 1156 1067 1206 764 578 
779 879 1048 959 785 359 134 57 227 
1888 3206 2396 3510 480 438 2100 557 3909 