# vtk DataFile Version 4.2
Generated by LIGGGHTS
ASCII
DATASET POLYDATA
POINTS 6000 float
-0.0253873 -0.0371018 0.0176238 -0.0209033 -0.0384491 0.0162676 -0.0180863 -0.0411758 0.0174339 
-0.0182249 -0.0376527 0.0195173 -0.0142382 -0.0399273 0.0178998 -0.0116081 -0.0429348 0.0157867 
-0.00806071 -0.0408732 0.0172399 -0.0103386 -0.0366402 0.0181032 -0.00602917 -0.0445919 0.0173159 
4.64262e-05 -0.0407185 0.0170084 -0.00408066 -0.0407219 0.0178921 0.00358907 -0.0442927 0.0170036 
-0.0014647 -0.0441948 0.0184556 0.00640288 -0.0372744 0.0183281 0.0106496 -0.0386278 0.0194648 
0.00976801 -0.04374 0.0168181 0.00694223 -0.0412979 0.0194638 0.0141861 -0.0381069 0.0173037 
0.0146485 -0.042185 0.016907 0.019959 -0.039817 0.0180433 0.0238802 -0.0380965 0.0183109 
-0.0314156 -0.0319816 0.016533 -0.0349893 -0.0281917 0.0172572 -0.0286706 -0.0346463 0.017965 
-0.0274782 -0.0307603 0.0172419 -0.0240301 -0.0328395 0.0174698 -0.0238702 -0.028859 0.0170615 
-0.0211725 -0.0307679 0.0194714 -0.0161107 -0.0361608 0.0163238 -0.0198036 -0.034178 0.0171269 
-0.0175821 -0.0293616 0.0172214 -0.0128938 -0.0331959 0.0165431 -0.00566549 -0.0360718 0.0166145 
-0.0122601 -0.0290467 0.0178666 -0.00829185 -0.0282477 0.0174616 -0.00898054 -0.0322207 0.0184328 
-0.00138096 -0.0366924 0.0162642 0.00279651 -0.0356795 0.0172249 -0.00350935 -0.0326395 0.015811 
0.00124713 -0.0310862 0.0167742 0.0084481 -0.0338864 0.0172825 0.0088096 -0.0298408 0.017859 
0.00491471 -0.0322174 0.018227 0.0124355 -0.0327228 0.0173837 0.0169364 -0.0320905 0.017609 
0.0196954 -0.035369 0.0172171 0.0239585 -0.0340236 0.0169346 0.0208513 -0.0312822 0.0181543 
0.02784 -0.0350201 0.0171698 0.0257145 -0.0304137 0.018147 0.0320571 -0.0313438 0.018176 
-0.0394139 -0.0214912 0.0177114 -0.0306083 -0.0272867 0.0164577 -0.0374138 -0.0249662 0.0175179 
-0.0334137 -0.0242643 0.0170597 -0.0309558 -0.0210971 0.0170269 -0.0281713 -0.0240608 0.0172014 
-0.0244935 -0.0200796 0.0175573 -0.0244925 -0.0249895 0.0185406 -0.0212601 -0.0225827 0.0175141 
-0.0206927 -0.0267116 0.0194464 -0.0153732 -0.0268993 0.0196797 -0.0178073 -0.024754 0.0173203 
-0.0148219 -0.0228185 0.0191889 -0.0177219 -0.0206517 0.0172672 -0.011487 -0.0250355 0.0186384 
-0.00970972 -0.0200824 0.0170371 -0.00773116 -0.0238639 0.016962 -0.00590858 -0.0204912 0.0184145 
-0.00261791 -0.027673 0.0174681 0.00165789 -0.0277511 0.0190595 -0.00361805 -0.0238141 0.0169502 
0.000566321 -0.0238951 0.0168839 0.00171476 -0.0198205 0.0173085 -0.00206048 -0.0210322 0.0193834 
0.00597895 -0.0269533 0.0171134 0.0068292 -0.02295 0.0177597 0.0104322 -0.0248426 0.0174739 
0.0125048 -0.0282583 0.0172956 0.0181111 -0.0277221 0.0179855 0.0144155 -0.0245827 0.0181017 
0.0180471 -0.0228786 0.0177249 0.0227144 -0.0274854 0.0179948 0.0260596 -0.0256251 0.0165165 
0.0220273 -0.0232344 0.0189619 0.0349174 -0.0281538 0.019003 0.030186 -0.0269576 0.017706 
0.0295671 -0.0217123 0.0184608 0.0356507 -0.0206737 0.0169852 0.0328584 -0.0240606 0.0188705 
0.0371862 -0.0251237 0.0172105 0.0396526 -0.0208024 0.0176739 -0.0427214 -0.0139585 0.0169751 
-0.041288 -0.0178641 0.0178091 -0.0388442 -0.0131586 0.0175838 -0.0347379 -0.0197492 0.0169326 
-0.0358201 -0.015862 0.0174651 -0.0312019 -0.0171762 0.0178183 -0.0327529 -0.0135057 0.0185029 
-0.029055 -0.0144513 0.0198661 -0.0271785 -0.0171098 0.0175375 -0.0242766 -0.0135799 0.0176769 
-0.0207007 -0.0189937 0.0193785 -0.0206481 -0.0153173 0.0177594 -0.0168578 -0.0165102 0.0172957 
-0.0141757 -0.0138692 0.0187655 -0.0179544 -0.0129571 0.0197154 -0.013132 -0.0181296 0.0177528 
-0.00671349 -0.0166594 0.0174984 -0.0104438 -0.0151758 0.0179895 -0.00598613 -0.0127116 0.0178127 
-0.00283764 -0.0177096 0.0167586 0.00115175 -0.0158049 0.0174177 -0.00239495 -0.0138247 0.0193626 
0.00936047 -0.0197302 0.0172792 0.00562807 -0.0183398 0.017744 0.00491666 -0.01439 0.0178742 
0.00885295 -0.0151373 0.0176443 0.0118827 -0.0131809 0.0195465 0.016128 -0.0191408 0.0178988 
0.0123894 -0.0170093 0.0177554 0.0179926 -0.0156421 0.0173514 0.015306 -0.0120427 0.0178171 
0.0202781 -0.0193798 0.0185396 0.0242646 -0.0194375 0.0181011 0.0267523 -0.0134744 0.0187036 
0.0222301 -0.0151097 0.0189604 0.0283681 -0.017774 0.0178499 0.0351672 -0.0164432 0.0176045 
0.0310643 -0.0137796 0.0188692 0.0319468 -0.0175967 0.0197343 0.0392347 -0.0165535 0.0174413 
0.0425129 -0.0138804 0.0174039 -0.0438182 -0.0098345 0.0173524 -0.0383377 -0.00706502 0.0179602 
-0.0445609 -0.0059006 0.0171703 -0.0409985 -0.00405005 0.0175296 -0.036019 -0.0103882 0.0183075 
-0.0341045 -0.00700914 0.0172675 -0.0312871 -0.00977023 0.0180539 -0.030989 -0.0050104 0.0192217 
-0.0276616 -0.0114769 0.01722 -0.0240331 -0.00950784 0.017478 -0.0244168 -0.00551196 0.0177647 
-0.0280172 -0.00743166 0.0180044 -0.020119 -0.0104858 0.0174309 -0.0205735 -0.00613434 0.018716 
-0.0169157 -0.00826259 0.0186221 -0.0170016 -0.00428953 0.019092 -0.0133275 -0.00997292 0.0190908 
-0.0134131 -0.00599555 0.0185566 -0.00975292 -0.0112056 0.0177808 -0.00589096 -0.00872532 0.018138 
-0.00963247 -0.0073007 0.0186706 -0.00996608 -0.00352414 0.0199833 -0.00665399 -0.00469966 0.0180642 
0.00125449 -0.0114517 0.0178951 -0.00191279 -0.00897934 0.0177918 0.000721076 -0.0039112 0.0179471 
0.00743985 -0.0112415 0.0176715 0.0108934 -0.00936726 0.0186695 0.00417394 -0.00808284 0.017598 
0.00871342 -0.00516978 0.0176896 0.00485135 -0.00408336 0.0178923 0.0193393 -0.0117711 0.017604 
0.0129553 -0.00601611 0.0178173 0.0164215 -0.00801435 0.0175985 0.0192591 -0.00448077 0.0178195 
0.0208836 -0.00818671 0.0185207 0.0241664 -0.00610636 0.0195601 0.0280612 -0.00720077 0.0195635 
0.0347614 -0.0109902 0.0186889 0.0309879 -0.00959717 0.0180178 0.0340512 -0.00693405 0.0189872 
0.03072 -0.00461759 0.0178962 0.0382737 -0.00919653 0.0179276 0.0417025 -0.00668072 0.0172968 
0.0368478 -0.00436432 0.0175043 -0.0414776 0.00227631 0.0173661 -0.0443129 -0.00158464 0.0177071 
-0.0448282 0.00237544 0.0196205 -0.0388068 -0.000746699 0.01812 -0.0360507 -0.00350687 0.0172116 
-0.0315862 0.00192262 0.0201245 -0.0325807 -0.00157326 0.0179372 -0.0348296 0.0018992 0.0177243 
-0.0220844 -0.00241807 0.0188982 -0.0263221 -0.00197765 0.017655 -0.0276595 0.00177937 0.0186077 
-0.0237685 0.00109899 0.0178972 -0.0135256 -0.00200435 0.0183179 -0.0180294 -0.000574185 0.0180168 
-0.0201527 0.00282103 0.0180664 -0.0145523 0.00194868 0.0180853 -0.00674084 -0.000698312 0.0184477 
-0.00984347 0.00463637 0.0183106 -0.0105492 0.000690741 0.0182522 -0.00584495 0.00318694 0.0188999 
-0.00314131 -0.00277055 0.0181114 -0.000203797 -9.58595e-06 0.0181662 -0.00199354 0.00387741 0.0177302 
0.00225364 0.00316943 0.0186485 0.00358394 -0.000547502 0.0193544 0.00743945 -0.00165552 0.0198276 
0.0100828 0.00366991 0.0187403 0.0106317 -0.00030668 0.0178246 0.00646029 0.00226448 0.0199355 
0.0158784 -0.00220707 0.0176239 0.0155569 0.00187261 0.01809 0.019182 2.22434e-05 0.0180501 
0.0266412 -0.00349691 0.0175211 0.0227058 -0.00232547 0.0179941 0.0248818 0.00107478 0.0177387 
0.0215719 0.00324939 0.0186614 0.0291972 -0.000314828 0.0178918 0.0336121 -0.00173012 0.0178969 
0.0314411 0.00302142 0.0183393 0.036185 0.00363598 0.0187334 0.0373252 -0.000148894 0.0178112 
0.0407215 -0.00313806 0.0193233 0.0412681 0.000851298 0.0186278 0.0445643 0.00383961 0.01775 
-0.0380192 0.00437009 0.0178434 -0.0442827 0.00569669 0.0174534 -0.0439211 0.00969139 0.0169078 
-0.0405306 0.00764097 0.0175371 -0.0405228 0.0118708 0.0171511 -0.0320168 0.00947445 0.0178331 
-0.0334654 0.00566468 0.0178358 -0.0359065 0.00889972 0.0188157 -0.0295984 0.00525204 0.0191063 
-0.0241053 0.00933854 0.0181727 -0.0280858 0.00893289 0.0183453 -0.0147379 0.00579989 0.0193363 
-0.020194 0.0101117 0.0178494 -0.0186079 0.00649571 0.0185516 -0.0165505 0.00966664 0.0199883 
-0.0133457 0.0112814 0.0182156 -0.00630044 0.00713696 0.0183932 -0.010045 0.00862973 0.0184764 
-0.00979407 0.0123583 0.0199141 -0.00595937 0.011132 0.0184445 0.00171021 0.00712747 0.0181875 
-0.00227271 0.00782095 0.0183702 0.000360877 0.0108928 0.018243 0.00551508 0.00563754 0.0179859 
0.00900036 0.00772287 0.0181359 0.00412294 0.0122957 0.0179587 0.0105264 0.0114268 0.0184106 
0.00533098 0.00906488 0.0201025 0.0137138 0.00544589 0.0183145 0.0180322 0.00513074 0.0181273 
0.0159831 0.00906205 0.0180738 0.0142125 0.0122399 0.0199038 0.0248165 0.00557978 0.0182167 
0.0214149 0.0115033 0.0180754 0.0214361 0.00752878 0.0191831 0.025061 0.00969148 0.0185389 
0.0315231 0.00730524 0.0182041 0.0335364 0.0108271 0.0183864 0.0294931 0.0110043 0.0188168 
0.0370114 0.00780679 0.019018 0.0400449 0.00468359 0.0184535 0.0439955 0.00839389 0.0185328 
0.0400323 0.0103141 0.0174665 -0.0420851 0.0156967 0.0171475 -0.0383584 0.016303 0.0184708 
-0.0373857 0.0125466 0.019562 -0.0331403 0.0188558 0.018531 -0.0347746 0.0155558 0.0201002 
-0.031237 0.0144941 0.0183189 -0.0291639 0.0193638 0.0186129 -0.0368573 0.0199065 0.0174265 
-0.0275341 0.0128982 0.0183423 -0.0235685 0.0134221 0.0180901 -0.0263576 0.0166576 0.0176001 
-0.0248602 0.0203495 0.0189237 -0.0223019 0.0172907 0.0175827 -0.0208302 0.0204027 0.0196479 
-0.0195946 0.0140616 0.017615 -0.0183233 0.0178691 0.0178261 -0.01596 0.0149654 0.019282 
-0.0140982 0.0184913 0.0196691 -0.00773103 0.0154734 0.0184695 -0.0120825 0.0152186 0.0183053 
-0.0103164 0.0188207 0.0182893 -0.00626808 0.0190794 0.0175053 -0.00358787 0.0143429 0.0180692 
0.000343962 0.0148702 0.0186645 -0.00123276 0.0206835 0.0180537 0.00238357 0.0184578 0.0184841 
0.00718821 0.0148635 0.0181498 0.00877209 0.0207087 0.0180512 0.0061792 0.018266 0.0200155 
0.0111543 0.0153883 0.0183569 0.0176411 0.014061 0.0187461 0.0133306 0.0187855 0.0184399 
0.0252125 0.0136971 0.0182703 0.0217371 0.0156728 0.0186982 0.024972 0.0189804 0.0176984 
0.0214632 0.0194781 0.0199367 0.0284241 0.0166275 0.0187335 0.0328351 0.0149422 0.0185889 
0.031706 0.0188607 0.0193008 0.035479 0.017925 0.0180063 0.042947 0.0129131 0.01845 
0.0381091 0.0148257 0.0181131 0.0415286 0.0172935 0.017692 -0.0381613 0.0236591 0.0178798 
[...]
POINT_DATA 6000
FIELD FieldData 7
id 1 6000 int
179 517 552 172 755 902 244 632 316 
1 69 452 71 51 38 135 139 600 
123 291 471 265 1060 684 561 1139 1097 
145 1044 441 307 784 588 276 839 989 
670 568 1301 28 176 80 329 339 522 
215 118 435 3 274 917 1449 547 1078 
822 499 648 749 1290 812 1157 393 112 
1436 673 1001 185 444 949 337 1061 377 
780 782 607 109 445 214 85 402 282 
455 111 350 440 606 178 91 324 396 
18 34 421 1269 427 1336 646 926 404 
1090 991 1244 898 1156 1067 1101 982 184 
1861 526 182 410 995 831 841 725 285 
161 951 616 256 277 987 548 29 1404 
858 558 308 964 261 432 401 638 56 
1022 1072 278 713 944 1023 1452 380 759 
221 803 623 535 327 650 1665 1171 750 
974 1380 1684 469 830 633 818 346 758 
222 1208 301 1036 217 1321 1232 405 70 
379 8 1257 76 211 682 580 128 474 
957 103 1561 721 808 1234 450 349 366 
1369 564 1131 1560 1266 1206 436 764 779 
555 760 65 475 317 1453 1143 188 777 
1286 908 290 565 1205 785 653 805 627 
1214 341 384 545 400 496 262 434 45 
171 168 153 1216 310 105 196 283 1357 
1002 731 1494 815 1634 163 610 376 368 
975 322 98 724 508 41 269 942 354 
422 409 523 613 381 390 47 59 344 
551 338 480 124 206 865 1340 166 1124 
538 250 353 715 591 1287 306 1066 1480 
836 326 1573 667 605 451 465 532 122 
37 487 359 115 286 873 202 104 1169 
82 846 53 541 164 874 453 343 149 
742 797 1426 1177 483 916 1180 887 701 
937 311 1070 266 859 578 587 879 280 
130 177 253 419 106 1094 391 553 1339 
340 1117 275 1118 352 50 323 61 9 
92 129 100 795 420 927 456 13 559 
637 1654 1185 347 27 490 634 288 513 
689 1048 1000 890 501 914 620 60 298 
325 1306 175 295 40 603 133 258 663 
418 357 1164 254 370 348 1211 601 31 
819 127 200 57 160 142 446 979 810 
315 48 1053 978 14 998 2346 767 114 
30 804 493 825 842 320 63 1706 66 
2213 2537 1625 117 468 574 252 589 626 
1379 62 2101 1546 955 270 537 292 791 
1031 251 660 20 720 204 835 281 248 
1903 870 35 1093 466 1074 1197 762 429 
570 773 550 584 294 88 948 1181 1055 
498 415 297 425 2070 148 1971 929 1193 
1542 789 507 1011 1203 351 1191 1238 1141 
622 365 519 852 382 46 1166 460 1699 
685 772 1406 727 411 235 363 284 640 
1091 201 909 230 165 732 708 64 801 
894 1148 694 935 706 988 296 371 314 
1123 49 437 257 364 1318 528 1354 1294 
1419 500 7 752 1456 1492 1647 170 711 
543 960 1383 850 336 2327 716 2109 1776 
1135 1366 761 1163 1387 2003 897 1086 448 
300 1375 753 1489 6 778 333 1626 304 
1368 911 786 2439 1231 1283 167 1761 1381 
1151 138 1408 116 219 1583 848 1270 464 
1435 1274 2 398 677 821 1138 11 1440 
962 712 458 1038 515 392 669 581 1253 
827 1170 247 73 614 83 630 1213 1189 
781 1092 512 737 313 654 629 81 477 
2148 1512 1184 1129 576 374 302 32 75 
358 869 1311 1401 608 1115 976 1071 649 
1445 1172 1523 1810 1134 1562 479 891 793 
2272 1342 1276 595 1068 1235 1476 2259 1222 
919 2083 624 193 25 757 1133 1486 192 
1537 1219 2056 2298 1824 533 1823 1549 1981 
2207 566 1355 1470 1714 931 1153 1319 454 
2058 218 1635 1057 1155 125 925 212 847 
1281 228 1425 1431 1997 602 675 187 783 
723 169 642 150 999 1403 1968 58 734 
1548 1550 698 1585 1838 216 864 309 520 
1362 1065 1466 1600 1434 1730 1891 1732 383 
886 210 1930 609 1397 1607 1584 529 707 
1039 549 1421 691 678 330 1358 2292 2883 
2023 885 1085 369 972 263 1734 883 1258 
1616 1953 1872 1161 1252 1430 586 84 505 
1335 486 491 1876 1273 644 1058 693 495 
151 1815 1326 1384 511 1346 1468 1974 378 
1485 1575 1080 2042 1144 237 807 240 406 
872 1247 1190 2110 2068 2087 345 686 119 
1760 744 249 1035 1674 1020 1591 699 733 
97 1405 1242 428 1506 33 1629 213 1230 
787 2025 1032 2051 1353 2532 238 645 582 
1322 981 1651 1027 1056 1372 1015 1284 408 
459 403 726 1228 1886 1631 78 26 397 
2326 136 829 647 906 17 984 1458 1727 
1713 2060 1108 1412 671 1444 1551 1348 1450 
1822 769 1147 503 1364 692 1179 771 1125 
905 95 1116 10 356 1690 1513 1349 996 
2209 813 225 1337 571 1529 1142 745 1350 
1278 1264 1920 1248 1087 155 1780 1533 1683 
1084 260 1617 1467 2034 1493 1597 866 141 
1233 272 1212 407 573 224 1771 1312 2313 
255 1443 1217 775 703 1804 875 2643 2219 
939 1224 198 395 1592 447 641 39 173 
1114 1374 209 997 19 1766 1045 664 241 
1046 938 1236 1637 1491 1243 590 236 1628 
635 484 1016 1667 1570 1052 840 388 1175 
1590 43 952 1051 1578 1288 96 963 1223 
1122 1524 87 1620 1496 36 1082 2139 1728 
1250 108 2002 739 736 1064 556 1582 1295 
796 1227 355 197 877 1006 1330 1649 790 
1207 794 5 16 239 1210 1993 527 1613 
617 1297 293 289 1275 510 554 423 89 
271 99 1081 1059 24 158 1813 1100 2343 
936 814 245 980 1671 1471 208 598 1272 
463 44 1499 1687 1576 1901 1632 740 1304 
162 1095 1424 1462 1709 2022 748 857 1598 
900 1850 1420 567 472 1422 1795 1603 1908 
800 1158 1769 722 1391 462 1400 1484 1942 
1729 967 318 1150 1040 90 643 137 335 
1812 1595 1130 68 2035 457 424 856 140 
1752 1796 1007 243 1291 901 79 1459 913 
494 1165 4 1112 321 1344 232 205 882 
334 389 880 1469 186 1033 77 180 659 
1050 332 443 1073 1854 1314 1438 928 154 
433 665 362 1029 596 1797 1532 1182 1192 
2217 2100 1043 181 207 575 672 2523 1910 
1711 1525 1614 55 849 2167 851 1218 2328 
680 1645 1528 893 1385 1037 442 1605 1246 
2296 651 1723 514 1527 1643 896 1427 705 
430 273 1541 1577 1898 2190 2032 892 246 
817 506 386 1329 832 714 1310 695 697 
668 1952 621 199 854 1229 488 1465 1054 
372 120 544 946 157 1014 414 1265 489 
134 834 585 776 52 1567 557 1159 1075 
1536 1429 1119 191 889 1107 666 1414 23 
2132 618 189 1862 1693 658 1168 1738 1648 
993 656 811 1215 299 146 1864 687 385 
1267 2262 1188 1398 132 516 67 540 1432 
950 1167 1126 763 144 21 915 328 518 
1835 1099 907 360 619 439 922 798 534 
159 1389 539 923 867 615 1359 845 1271 
279 1530 933 1481 342 147 1149 1237 1969 
1226 1173 1581 1316 1621 2528 688 1332 959 
611 530 1792 1390 1907 1564 1762 536 399 
863 1024 2454 412 1320 676 121 1817 194 
1679 1490 895 231 387 1378 461 367 924 
1146 940 756 809 86 983 319 417 1510 
2256 1916 826 1888 572 560 828 862 373 
1103 524 853 1010 1136 729 1747 1047 681 
1077 1069 227 970 15 1195 592 674 1017 
42 1840 1801 1733 1990 1204 1360 1705 2096 
2605 2444 1735 1393 2206 2617 101 2772 2049 
1277 1846 234 1371 735 1280 802 1376 1890 
3471 2677 2380 2378 2347 2513 2681 1307 542 
1741 1775 2867 2394 2586 3492 1691 662 918 
1619 2460 973 2479 843 1883 502 652 525 
738 1922 1261 2149 1849 1739 1827 1926 1947 
700 971 1160 1924 1624 2277 1869 1748 1245 
1929 2134 2435 1479 1367 1870 1498 1715 2214 
1899 2894 1594 2614 2627 1483 2074 152 449 
1678 2502 2123 2085 2648 2247 223 1652 156 
1841 992 696 2773 2547 1781 2001 303 492 
710 2008 945 94 2232 416 968 509 2785 
985 1145 268 774 143 1853 473 679 1765 
531 747 126 1088 2329 1345 1809 2173 1482 
2000 2237 657 2412 2200 3520 2877 2477 481 
1004 2038 965 1676 2036 1873 1447 2248 2716 
2578 1881 1996 1409 1994 1839 2309 2039 1880 
2075 1931 1936 1963 2407 2086 1111 1811 625 
3105 1660 2414 1003 1826 1979 2291 1580 2540 
1940 1842 2682 977 921 2055 1338 1894 2102 
1977 1895 1897 860 820 1198 1292 1194 861 
1298 604 1928 577 1915 1802 1867 3027 2550 
190 2953 2438 1633 1539 1955 1472 1767 2261 
1939 2612 1914 2020 426 628 1013 2114 1588 
1240 930 2387 1716 2212 1574 1790 1641 1694 
1254 2094 2340 2478 2127 2423 2667 2428 3231 
3066 2491 2028 2004 1586 1911 2106 2171 1863 
3100 1746 2417 1604 2482 1772 838 1696 2196 
2321 2421 1675 2372 2779 1623 2504 2082 1834 
2072 1701 2176 1657 1836 2743 2098 2651 2061 
1543 1875 2948 2194 1992 2344 2188 943 1557 
2361 2624 2287 1477 884 1656 1547 1137 1113 
361 1589 1128 1062 1109 1759 1685 1935 1663 
1720 1241 72 1967 113 1382 1688 2587 2174 
1871 1655 2531 2355 2480 1686 2054 3035 2982 
1670 1909 1828 904 3192 2245 1751 639 1874 
1221 1698 1905 1885 2227 2636 1021 2097 1934 
2459 2297 2432 2338 3353 2510 3251 1710 2490 
1770 1559 1927 1786 2050 1356 1945 2062 2363 
2145 3473 1984 1104 899 2745 2377 2228 2018 
1866 2576 2399 966 1110 2005 1515 2470 2243 
1954 2563 1785 1900 1742 1950 1725 2240 1636 
1860 1601 2205 1919 1439 1341 2408 1622 1856 
2158 1565 1726 2224 131 287 1025 1386 1488 
1417 1756 855 1473 1540 1879 1697 702 1773 
1777 1363 1847 2089 2166 1972 956 768 1507 
102 2376 2767 1845 2250 1296 2664 612 1200 
2236 1503 2156 2202 2162 2503 3103 1721 1352 
1063 1305 1474 986 1563 3494 2130 2184 107 
2452 2263 1606 1334 2663 1768 1757 2104 2512 
1505 2059 3939 1448 2015 2606 1239 2113 2620 
2181 2881 2561 2761 990 2226 1902 2307 2790 
1893 1658 2318 2616 2759 2137 2554 1789 2571 
1988 1282 2898 1937 2041 2573 1736 1495 1764 
1196 1857 1677 2183 2026 1763 2246 1502 2507 
719 1392 2047 2170 2319 2078 1309 920 1544 
1820 1396 1712 1079 994 2632 2253 2252 1140 
2448 1666 1753 709 1794 470 2157 1975 2030 
1980 485 1377 1096 947 1566 1755 2379 1418 
2755 1708 2312 2369 1596 3012 1315 1289 1799 
2861 3136 2488 2910 1832 881 1612 1568 2013 
2666 2420 2560 3022 1949 3185 2129 2739 2264 
1300 2366 1859 2863 1959 2389 3110 1722 2990 
1202 833 2105 1703 2446 2099 1782 3257 2215 
1892 2143 3083 2314 2899 2724 1878 2851 2669 
1680 1921 1569 1268 1784 1609 2375 2037 3140 
2208 3302 1262 788 2024 2043 1423 824 751 
1504 1865 2009 2203 183 331 174 1918 1661 
1672 2029 2599 2471 754 1030 1441 1105 1255 
93 579 1938 1572 1009 683 1026 1089 22 
195 878 594 718 504 1830 2525 226 746 
1825 2063 1983 2817 1978 1442 2653 2163 1985 
1446 2274 2304 2392 2768 1754 569 3413 2334 
3758 1511 1259 2857 3045 2654 2136 2905 3753 
2875 2265 3201 1611 2900 2687 2118 2691 3246 
1944 3177 2696 3005 3169 2744 3020 2577 3240 
2317 2932 2141 2057 3062 2865 2076 1018 1986 
1361 2164 2040 1008 1102 3142 2548 2295 3350 
2204 1545 1293 1076 1279 2012 1370 2133 2661 
312 2160 3123 74 1324 1201 1220 2223 1960 
2084 1552 1463 932 2270 2348 2016 12 1407 
599 1410 1049 704 2333 220 2275 1019 1943 
1083 1455 1176 1263 2045 1508 2374 1702 941 
1187 1464 1669 1500 2384 1351 2518 2440 743 
2534 2704 2280 2911 1829 1487 2960 2961 1819 
2436 4154 2793 2709 2659 1855 2331 2629 2999 
2555 2290 2517 267 4035 2071 3093 583 1816 
1225 2778 2591 1531 2249 2987 2807 2258 2095 
2391 2273 1798 2341 2928 3068 3209 2610 3023 
1395 1012 1923 1556 2006 1413 1460 2052 2756 
1858 2516 1814 1877 593 482 1518 2090 2465 
1973 2124 2701 1454 1199 1599 631 1519 562 
2360 1343 2021 2053 1120 816 1522 888 1852 
1868 1402 2152 690 264 1303 233 1602 954 
799 1951 1475 1933 2509 2177 2140 1327 1516 
2354 2631 2426 2551 1615 2879 2238 2656 3099 
2475 438 1638 2182 2776 2153 1526 3436 2633 
1961 3101 1887 1534 305 2398 242 2447 1642 
2266 1724 2383 1034 1805 1689 2400 2852 2501 
2345 2751 1831 478 2197 1913 1843 2404 1991 
3431 655 1653 2120 2306 2545 2373 792 1932 
2795 3095 1554 1700 2126 110 1719 2484 1618 
2073 2985 1478 1328 1260 770 2527 1783 1106 
1005 259 2411 823 2862 2441 2497 2619 2048 
1162 636 1957 476 2574 2325 2996 2530 2940 
1896 2705 1821 3058 1317 2116 2352 903 431 
1791 3107 2235 1851 1673 2103 1906 3762 1941 
2161 2764 2519 2794 1662 4264 3805 1186 910 
1538 1121 1514 1520 2064 766 2799 1388 1308 
1399 961 546 1028 1627 1535 1818 1718 2289 
1497 1807 1299 229 1749 806 2515 1325 2142 
2403 1579 413 1970 2737 1451 2971 1365 2353 
2891 871 2458 3509 1743 2846 497 3475 3137 
2684 2192 2451 3363 3374 3794 2698 2639 3122 
969 2809 2216 3861 3124 2457 3902 3953 4006 
3941 2856 4272 3653 3269 3227 1787 2122 3315 
3827 3453 2019 3397 3098 1668 3382 2920 3418 
3639 3923 1152 3298 2810 868 2598 3104 3830 
3195 2175 2336 2644 2556 2538 1917 2967 2721 
4039 3154 3944 2119 1695 2652 2069 2112 2567 
3424 2811 3011 2495 1998 2848 3079 3132 2791 
2992 2823 2882 1788 3073 3663 2065 3129 3016 
3555 2892 3439 2323 2487 2741 2449 2969 3493 
3372 3724 2850 2997 3591 3077 2580 2752 3534 
2322 2418 1555 2775 2740 4074 2542 1630 1962 
3549 3212 3914 4405 1333 2339 2626 3006 2746 
2135 2481 3025 2963 3899 3628 2658 3085 2680 
2159 3893 2994 2558 2700 2936 3796 2093 2647 
3119 2847 2483 4241 3360 3401 2320 2529 3358 
2557 2925 2604 2763 3224 3181 4237 3778 3524 
2831 2332 1808 2382 2496 2596 1889 2466 2254 
2594 2792 2168 3422 2010 2125 3280 2198 2409 
2783 2413 765 741 2489 3196 3225 2260 1517 
1639 2230 3003 2494 3508 3564 3026 1251 1692 
1995 2640 2128 3213 2711 2506 3033 3219 2930 
2703 2108 2080 3618 2147 2602 3580 3295 3381 
1347 2585 2358 3013 2222 1837 1154 3102 1659 
2310 2843 1098 2623 2453 1948 3336 3229 3344 
2670 3905 3607 2493 3265 3407 3754 2802 4318 
3462 3007 2468 2917 2285 2607 3139 2473 2662 
2918 1433 2981 2834 2092 3507 3283 2562 3001 
3199 2091 2351 953 2873 2564 2733 3014 2734 
2637 1209 1704 2199 2362 2017 3286 3346 2689 
1256 1982 1912 2033 3392 2115 1966 2429 3030 
1313 1965 2284 2672 1183 2461 2609 2450 2927 
2189 2431 2770 3478 3342 3084 2912 1041 2800 
4478 1331 2750 2419 2603 2896 1437 3260 2998 
4382 563 2613 1461 1610 2732 2251 1587 2933 
3127 2410 2836 2611 2552 4178 3917 4182 4217 
4053 4580 2335 3115 1833 1800 2988 3565 2774 
3377 2723 3090 3211 2801 2757 2702 3504 3042 
3072 3092 2710 2628 2674 3355 2934 3247 2942 
2288 2913 3000 730 2608 1608 2381 2131 2234 
1731 2464 2201 2239 2498 2187 2225 2625 3205 
2357 2146 2330 2371 1740 1640 2231 2268 3021 
2575 2301 1501 2211 3390 2316 1558 2786 2693 
3081 3172 2524 2456 2107 3606 2951 2437 3131 
3055 3161 3297 3472 2958 2959 3784 2365 3220 
3388 2943 3782 2486 1571 1249 2860 3829 2796 
1884 1394 1946 2719 3394 2469 4046 4005 2762 
3254 4691 3992 3293 4328 4468 3680 3065 2233 
3272 3470 4374 3636 4804 3750 4062 2425 3151 
2430 1416 2685 2769 3386 3823 3402 2907 3884 
3076 2559 2044 2819 3365 2179 3490 3164 3242 
2388 2970 1302 1521 1178 2533 2827 2937 2300 
2422 2433 2180 2155 1793 2191 1778 3437 1323 
2178 2269 2675 2390 2244 2308 3004 2416 2712 
2011 3326 2601 2088 2286 1999 2855 2949 1848 
2007 2397 2866 2813 2964 3650 1411 3852 3693 
4283 2165 3632 2229 2406 4055 3323 3570 4298 
3296 3798 4436 4448 4276 3238 3481 2780 3681 
2758 4707 4004 2505 4745 3765 4114 2738 2385 
3588 4254 4002 3048 3309 3446 3184 3745 3617 
3635 4419 4246 3128 2945 3613 4498 3838 4559 
4089 3977 4064 3111 4091 2966 3074 3148 3743 
2717 3261 3924 1774 2472 3158 3370 2522 2735 
3989 2921 3056 3499 2584 2808 2195 2492 1681 
2840 3487 3018 2876 3091 2581 3294 1956 2935 
3096 3331 3664 3187 1717 2742 2718 2434 1882 
2630 1285 2839 3601 2714 3739 2278 1745 2553 
2276 1758 1737 2046 1132 1646 1644 3603 3609 
2342 3593 3282 3604 4078 3567 3974 4081 2754 
3529 3649 2842 2753 4837 4159 3518 4909 3857 
3726 2257 4139 4810 2650 3793 3071 4668 5040 
3305 3600 2974 3393 2870 3366 3542 3641 3915 
3662 2356 2965 3685 4558 2442 3999 3189 3157 
3895 2977 2914 3468 3707 3858 3292 3622 2979 
3276 2349 3214 2271 3034 1989 2902 1553 2973 
3788 3352 3528 3143 3198 3047 3299 3024 3156 
3571 3135 2281 2185 2728 2445 2683 3380 3786 
3171 3159 3200 3054 1415 2829 2845 3253 3500 
2841 3440 3312 4247 4204 1987 2679 2279 2031 
2678 3376 2901 4134 3263 4385 5027 2370 3215 
3452 2908 3317 4239 2568 4072 3389 3106 2805 
2897 2220 4191 4094 2923 4280 4205 3851 3243 
4403 3993 2600 2579 1958 4867 3040 4032 4592 
3210 2302 3544 3089 2748 2686 3162 2642 3406 
3599 3546 3153 2924 3501 3934 2993 3248 3262 
2983 1803 3450 3318 3193 3165 3094 3173 3357 
3037 2833 3041 2305 3334 3885 2766 3678 2986 
2889 3958 3145 3489 3721 4490 3255 4118 2541 
2508 2991 1127 2816 3190 3266 3134 2765 2832 
2947 4230 1682 2657 2885 2359 2929 2713 4395 
2660 3537 2904 3916 2903 1844 2572 2952 2725 
3031 2500 2978 2544 3163 3239 3755 3909 3859 
3232 2849 4070 3476 2915 3595 2521 2393 2955 
2324 3432 3822 2975 4227 3530 3466 3166 3087 
4341 2242 2655 2583 3399 2789 2781 3427 3340 
3444 3540 2835 3815 2311 2821 3400 2144 3398 
4126 4184 3806 3868 3581 2727 2462 3197 2798 
2535 4135 2641 3442 3675 2868 2995 2218 3811 
2828 2294 2241 3339 2826 2467 2941 3168 3457 
3646 3705 4043 2570 1904 2395 2634 3430 3070 
2980 3002 3597 3526 2221 2690 3117 2455 2210 
3256 2364 2592 2707 2546 2526 2396 3218 2588 
4105 2424 3689 2635 2067 2618 3420 1750 3082 
2844 2511 2081 2731 2895 3661 2944 2593 2814 
2708 2676 3809 3514 2797 3775 3843 2117 3512 
4268 3517 2962 3038 4082 4164 2880 2622 3411 
3396 2788 2972 521 3367 3405 2726 3463 4019 
3963 2151 2077 2589 2283 2299 2665 3028 2869 
2825 3647 2699 3491 2514 2830 2695 3409 2315 
3052 3206 3615 3816 3226 3017 2111 3625 3138 
3574 4056 2782 3329 3840 3451 4133 3795 3975 
3943 4683 3856 1664 3141 3773 3308 4400 3844 
4084 3464 3183 2787 3730 3449 3223 4017 4229 
3748 3883 3882 4303 4484 3458 2749 4600 3208 
4122 3655 3839 3968 3935 5194 3834 4777 4073 
4569 4232 4362 4124 4768 4746 5124 5217 3008 
3416 3710 3455 2474 2906 3456 2803 3598 2838 
1509 2293 2804 3940 3736 3630 2485 3684 4704 
4052 3733 4136 3670 2859 3361 3708 3767 3029 
3621 4663 4918 3191 2079 3634 3465 3009 3116 
3349 4063 3920 2303 4540 4285 3729 4831 3351 
3770 3741 3867 4530 2694 3379 3059 3964 3688 
4083 3938 4263 3841 4496 5384 3933 4088 3702 
3576 3313 4353 5181 3039 3075 2569 3421 4000 
1650 4397 3252 3970 2186 3973 4340 2402 5276 
3067 3751 3942 3983 3978 3763 3820 3513 3799 
4521 4356 4025 2919 2818 3483 3385 4172 3894 
4407 2871 2668 2282 2590 3130 3207 3907 4156 
3532 3547 3202 3506 3516 2638 3337 1042 4384 
2815 3717 3461 4378 4021 3577 3994 3965 3553 
4219 3781 3727 4243 2747 3147 3160 4350 4355 
3230 3611 3620 4518 4101 4457 3666 3375 3032 
3019 3807 3732 3311 4257 3872 876 3957 1707 
3414 3709 3373 3069 3984 4013 4828 2536 3335 
4372 1806 4578 3438 4406 3955 4766 4016 4479 
4195 3113 3657 3648 3046 4018 3812 3990 4326 
3498 4125 4413 2931 3995 3787 4550 4313 5136 
3569 3447 3144 3484 3760 3182 3319 4809 3713 
4165 3800 3086 2926 2730 3523 3945 3412 3175 
3738 3120 2939 3237 4038 3785 3429 4042 3180 
3277 3869 3270 3217 3435 3053 3203 2014 3403 
2872 3415 4903 3268 3860 3486 3826 3846 4102 
4509 3057 3550 4212 3572 4095 4085 4376 3777 
4240 3873 3682 3362 4454 4389 4196 4192 3881 
3459 3204 3706 3359 2350 4309 2715 4784 5474 
4014 4880 3176 4451 4729 5456 4424 6041 4075 
4950 3152 3814 3419 3690 4648 4494 4421 4007 
4364 4373 4472 4037 3645 3354 4576 3776 4121 
3676 4173 3716 3345 4588 4818 3178 2890 837 
3078 3167 3556 3267 3341 2864 2595 2520 2566 
4041 2368 3728 2697 3467 3417 3050 3931 3879 
2956 3250 3044 2649 2367 3756 3703 3271 3803 
4267 2401 3284 3801 2874 4255 3587 3114 3642 
4427 3586 3236 3692 3629 3932 3188 2427 2386 
2621 3911 3744 3371 2582 2822 2688 4320 4107 
3948 4329 4722 4539 2837 2337 3548 3626 3874 
4924 4497 4870 3515 3835 3328 3289 2954 4183 
3273 4742 4375 3469 3962 4586 4542 5114 4186 
4779 4443 5335 5852 4618 4416 4945 4150 4009 
4066 4420 4568 4577 5850 4751 3343 4708 3234 
3125 3121 3522 4642 4031 4238 5983 3097 3441 
2886 3043 3831 2984 3428 2853 3608 3221 3735 
2138 3833 3222 3460 3891 3740 2565 3109 2976 
2671 3174 3060 4047 3531 3774 3384 2916 3616 
3496 3612 3228 3179 3926 4332 3333 4295 4166 
2066 3330 3332 3836 3080 2878 4339 2784 4467 
3477 2169 3764 4417 3448 3742 4324 3669 4312 
5315 4780 2968 4597 4517 4760 4884 4781 4925 
5924 5013 4807 4512 4714 4450 4170 4851 4306 
4244 4599 4370 4028 4802 4155 4946 4286 4886 
4548 4528 5360 3485 4193 5068 5442 4723 3790 
4731 3959 3573 3783 4261 5060 4310 3928 3568 
4636 2938 3314 3631 3602 3133 3281 3391 3633 
3718 3683 3258 3325 3832 3194 3378 3694 3404 
3482 2645 3445 3824 3541 4129 2777 2706 3875 
3918 3560 3425 4175 3991 3521 3722 3956 3845 
4414 3502 3866 2415 2922 4226 4301 3543 5209 
3118 4287 3644 4845 2722 4614 5555 4702 4906 
4842 4727 5075 4685 3064 4944 5007 4876 4824 
4296 5300 4948 3677 3855 4630 5050 4632 4725 
5524 4789 5143 4692 4868 4940 5053 3659 3698 
4507 5960 4922 4593 4753 3837 4473 5117 3627 
4999 4866 4449 5269 4491 4898 4058 4696 3495 
4142 4492 5725 3734 4717 4316 4152 4008 3880 
3897 4282 3474 4262 4368 5549 5066 4213 3966 
3691 3150 3015 3278 3937 3320 4327 3170 4584 
4097 3535 3112 2806 3656 2858 3301 3912 2989 
4054 4396 4485 3876 3700 4090 3674 4266 4735 
4151 4093 3817 3890 4916 4343 3946 4442 4323 
5616 4314 4377 4872 4816 3903 2615 4615 5831 
5110 4346 5135 3900 4883 4680 4857 4920 4289 
4885 5662 5487 5678 4452 4678 4616 3988 3010 
3585 5495 5422 5074 4529 3583 3511 3652 3910 