# vtk DataFile Version 4.2
Generated by LIGGGHTS
ASCII
DATASET POLYDATA
POINTS 6000 float
-0.0233788 -0.0384252 0.0140797 -0.0209674 -0.0394599 0.0173227 -0.0247652 -0.0375442 0.0187485 
-0.0220161 -0.0392226 0.0211869 -0.0161365 -0.0419445 0.0139693 -0.0133341 -0.0390214 0.0140394 
-0.0176133 -0.0384567 0.0152611 -0.0135519 -0.0428189 0.016904 -0.0171637 -0.0414081 0.017946 
-0.0138171 -0.0401375 0.0198947 -0.0165556 -0.0372514 0.0204544 -0.0105092 -0.0430762 0.013984 
-0.00827763 -0.0396581 0.0141102 -0.00419654 -0.0405689 0.0137622 -0.00674137 -0.0444878 0.0146735 
-0.00416879 -0.0380631 0.0169322 -0.0108983 -0.0398228 0.0171378 -0.009792 -0.0437994 0.0179011 
-0.00700426 -0.0408641 0.0178601 -0.00540186 -0.0445199 0.0193877 -0.00599055 -0.0374964 0.0204478 
-0.00975558 -0.0403275 0.0209628 -0.0042873 -0.0413924 0.0216449 -0.00274013 -0.0443479 0.0143157 
-0.00123622 -0.0375044 0.0139977 -0.000134192 -0.0413586 0.0137928 0.00340878 -0.0391212 0.0145846 
0.00182148 -0.0448789 0.0138532 -0.00287874 -0.0417967 0.0176128 0.0003178 -0.0393042 0.01733 
0.00267225 -0.0425536 0.0170531 -0.000290295 -0.04499 0.0181877 0.00376187 -0.0395701 0.0196179 
-0.00206034 -0.0382818 0.0203825 -2.9992e-05 -0.041748 0.0205204 0.0037673 -0.044235 0.0206903 
0.00592184 -0.0445486 0.0140915 0.00702179 -0.0406818 0.0138376 0.00993938 -0.043631 0.0162876 
0.0111393 -0.0404184 0.0138325 0.00655836 -0.0420748 0.0179256 0.00645617 -0.0380296 0.017021 
0.0105309 -0.0372621 0.0163367 0.00932155 -0.044022 0.020265 0.0101846 -0.0403624 0.0188974 
0.0150587 -0.0386295 0.0136359 0.0183643 -0.0410611 0.0140636 0.0145098 -0.0425179 0.015018 
0.013393 -0.0429089 0.0190312 0.0177273 -0.038092 0.0167103 0.0139062 -0.0391249 0.0175227 
0.0175934 -0.0411945 0.0193085 0.0194025 -0.0369917 0.0209911 0.0218034 -0.0389987 0.0144088 
0.0212633 -0.0396373 0.0184536 0.0249728 -0.0374115 0.0166502 0.0241907 -0.0378892 0.020605 
-0.032843 -0.0306807 0.0141507 -0.0297098 -0.0331618 0.0138419 -0.0325508 -0.0292618 0.017889 
-0.0304616 -0.0325935 0.0189669 -0.0266977 -0.0361982 0.0139581 -0.0246236 -0.0312727 0.0146275 
-0.0235018 -0.0349055 0.0160207 -0.0285809 -0.0297846 0.0166252 -0.0207963 -0.0320413 0.0167472 
-0.0271472 -0.0335117 0.016899 -0.0240206 -0.0322389 0.019119 -0.0277959 -0.035382 0.0203794 
-0.0273536 -0.0313195 0.0211404 -0.0214999 -0.0291965 0.0201112 -0.0201507 -0.0293207 0.0138846 
-0.0202462 -0.0357898 0.0138302 -0.0176901 -0.0326227 0.0140745 -0.0141411 -0.0350583 0.0138081 
-0.0124268 -0.031402 0.0139862 -0.016438 -0.0350922 0.0170866 -0.0151957 -0.0312635 0.0169363 
-0.018376 -0.0289083 0.0176082 -0.020829 -0.035406 0.0193881 -0.0180055 -0.0324031 0.0196027 
-0.0141786 -0.0334349 0.0201401 -0.00585679 -0.0359977 0.0138347 -0.0102811 -0.0361499 0.0138324 
-0.00891353 -0.0294586 0.0138458 -0.00492198 -0.0314302 0.0139192 -0.00824652 -0.0330804 0.0154247 
-0.0118394 -0.0340481 0.0169536 -0.00813306 -0.036925 0.017118 -0.00625523 -0.0294568 0.0171533 
-0.00487655 -0.0341129 0.0173167 -0.0115379 -0.0368462 0.0197994 -0.00856494 -0.0341749 0.0200339 
-0.00986558 -0.0307539 0.0183689 -0.0054866 -0.0316393 0.0204172 0.00228346 -0.035253 0.0138435 
-0.00143468 -0.0334693 0.0140686 0.00388117 -0.0304007 0.0139188 -0.00209445 -0.0291363 0.0163164 
0.00283234 -0.036142 0.01773 0.00148979 -0.0322918 0.0165341 -0.00112174 -0.035532 0.0175791 
-0.00163665 -0.0318731 0.0192354 0.00204182 -0.0332746 0.0204095 0.00150191 -0.0292216 0.0190998 
0.00767899 -0.0360115 0.0137544 0.011197 -0.0340329 0.0137704 0.0053078 -0.033561 0.0159129 
0.00763882 -0.028919 0.0139728 0.0112118 -0.0303294 0.0152917 0.0088277 -0.0338755 0.0179836 
0.00593636 -0.0356478 0.0202032 0.0051436 -0.0310191 0.0189991 0.0114327 -0.031515 0.0201138 
0.0123596 -0.0355513 0.0194558 0.0159203 -0.0324131 0.0137583 0.0191357 -0.0354955 0.0139227 
0.0208132 -0.0318339 0.0137418 0.0143714 -0.0354408 0.0159597 0.0143867 -0.0316822 0.0173978 
0.0184186 -0.0314561 0.016971 0.021169 -0.0356827 0.0175005 0.0169094 -0.0345885 0.0189542 
0.0152809 -0.0297634 0.0209533 0.0191227 -0.0289444 0.0201607 0.027782 -0.0318773 0.0138027 
0.0231428 -0.0352558 0.0137765 0.024377 -0.0320899 0.0158892 0.0272095 -0.0358501 0.0136406 
0.021195 -0.0323359 0.0197196 0.0247963 -0.0341075 0.0194017 0.0226991 -0.0290282 0.0180185 
0.0276469 -0.0314529 0.0208381 0.0286597 -0.0340924 0.0179376 0.0347402 -0.0285214 0.0137976 
0.0319042 -0.0316729 0.0142278 0.0294867 -0.03017 0.0170415 0.033595 -0.0295237 0.0175742 
0.0315035 -0.0320926 0.0199212 0.030176 -0.0283629 0.0206204 -0.0375551 -0.0246888 0.0138637 
-0.0396425 -0.0212745 0.0139953 -0.0387814 -0.0227713 0.0190391 -0.0303159 -0.0275576 0.0137904 
-0.0330905 -0.0246528 0.0139514 -0.0346085 -0.0209027 0.0138016 -0.0300252 -0.0220443 0.0143546 
-0.0353808 -0.0277646 0.0152868 -0.035402 -0.023591 0.0170607 -0.032529 -0.0207912 0.0172313 
-0.0319163 -0.02443 0.0188443 -0.0357863 -0.0272714 0.0192502 -0.0292469 -0.027946 0.020118 
-0.0349898 -0.023088 0.0210446 -0.0257732 -0.0274241 0.0149789 -0.0262807 -0.0233843 0.0138349 
-0.0222587 -0.0236811 0.0140976 -0.0241313 -0.020823 0.01618 -0.028702 -0.025115 0.0165499 
-0.022102 -0.0272208 0.0166819 -0.0279438 -0.0209274 0.0176289 -0.0211132 -0.0228276 0.0179727 
-0.0249289 -0.0245488 0.0178557 -0.0254749 -0.0284616 0.0188713 -0.0282398 -0.024058 0.020385 
-0.0223568 -0.0253609 0.0208715 -0.0247119 -0.0212474 0.0201211 -0.0161763 -0.028726 0.0139826 
-0.018749 -0.0255921 0.0143747 -0.0174268 -0.0223448 0.0163038 -0.0122715 -0.0271811 0.0149469 
-0.0156676 -0.0258865 0.0169217 -0.0132519 -0.0210156 0.0164053 -0.0185389 -0.0254205 0.0196666 
-0.0153019 -0.0220339 0.0196963 -0.0130513 -0.0283376 0.0187002 -0.0189724 -0.0207654 0.0206683 
-0.00667118 -0.02303 0.0138491 -0.00509915 -0.0273226 0.0139473 -0.0107299 -0.0232465 0.0142442 
-0.00836209 -0.0260613 0.0158973 -0.0121824 -0.0244161 0.0182465 -0.00519174 -0.0210139 0.016972 
-0.0114834 -0.0211316 0.0205665 -0.00843909 -0.022951 0.0184901 -0.00942315 -0.0269562 0.0196751 
-0.0056265 -0.0259054 0.0188944 -0.00564564 -0.0214363 0.0209277 0.000503632 -0.0234706 0.0142315 
-0.00270801 -0.021107 0.0138386 0.00146217 -0.0273305 0.0148337 -0.00307548 -0.0245262 0.0161319 
0.00442584 -0.024428 0.0141795 0.000176268 -0.0202657 0.0166201 0.00332464 -0.0230114 0.0177829 
-0.00235074 -0.0279549 0.0201313 0.000204473 -0.0255187 0.0182096 -0.00201784 -0.0223094 0.0193252 
0.00146793 -0.0205955 0.0203919 0.0126448 -0.0239237 0.0141078 0.00900962 -0.0252568 0.0152014 
0.00744713 -0.0215779 0.0138799 0.00875642 -0.028365 0.0177828 0.00483487 -0.027131 0.0171333 
0.01199 -0.0214592 0.0175399 0.00731111 -0.022663 0.0177511 0.0104563 -0.0248915 0.0189122 
0.00613709 -0.0254174 0.0205184 0.0189111 -0.0279802 0.0138665 0.0141304 -0.027671 0.0140229 
0.0154829 -0.0207829 0.0138796 0.0171594 -0.0243972 0.0144435 0.0196812 -0.0210174 0.013981 
0.0127211 -0.0281356 0.018281 0.0165979 -0.0279021 0.0172083 0.0146913 -0.0244085 0.0176038 
0.0174867 -0.0207108 0.0173561 0.0202131 -0.0260056 0.0171146 0.0180299 -0.0238967 0.0197661 
0.014883 -0.0214617 0.0203025 0.0195581 -0.0203557 0.02085 0.0229054 -0.0283392 0.0140708 
0.0268699 -0.0280203 0.0149064 0.0218998 -0.0243842 0.0138486 0.0264339 -0.0238739 0.0139939 
0.0276258 -0.0200487 0.0139815 0.0236623 -0.0208459 0.0145225 0.0265501 -0.0281267 0.0188919 
0.0212551 -0.0220499 0.0175233 0.0242158 -0.0254764 0.0169246 0.0281211 -0.0222507 0.0173352 
0.0279947 -0.0244118 0.0207185 0.0246396 -0.0225312 0.019604 0.0276782 -0.0202341 0.0208265 
0.0308249 -0.02771 0.0139513 0.0304826 -0.0228668 0.0141561 0.0359214 -0.0213286 0.0138854 
0.0373008 -0.025093 0.0138786 0.033519 -0.0250667 0.0156332 0.0298161 -0.0259768 0.0174139 
0.0331549 -0.0212476 0.0167765 0.036913 -0.0257486 0.0178378 0.033284 -0.0259984 0.0195159 
0.0314632 -0.0224917 0.0201869 0.0354705 -0.0225598 0.0197848 0.039878 -0.0208632 0.0142636 
0.0389902 -0.0223113 0.0178839 -0.0413555 -0.0176572 0.0138919 -0.0427508 -0.0138992 0.0138781 
-0.0394895 -0.0124295 0.01582 -0.042057 -0.0157234 0.0173712 -0.037124 -0.0199035 0.0167985 
-0.0374952 -0.0159723 0.0174457 -0.0406159 -0.0192131 0.0186955 -0.0431812 -0.0123702 0.0192401 
-0.0398165 -0.0158058 0.020701 -0.0363743 -0.017297 0.0137532 -0.0312321 -0.018179 0.0144029 
-0.0318323 -0.0142413 0.0139582 -0.0355599 -0.0133111 0.0151692 -0.0334502 -0.0169159 0.0177603 
-0.0291618 -0.016922 0.0177331 -0.0332219 -0.012859 0.0186311 -0.0294969 -0.0129674 0.0170256 
-0.0304701 -0.0195708 0.020451 -0.0355562 -0.0191725 0.0204086 -0.0312274 -0.0155842 0.0208971 
-0.0356923 -0.0152073 0.0209369 -0.0279602 -0.0153954 0.0142223 -0.027124 -0.0193063 0.0139986 
-0.0244095 -0.0168249 0.0158965 -0.0228801 -0.0137572 0.0137451 -0.0205183 -0.0156329 0.0163816 
-0.0205812 -0.019446 0.0144938 -0.0220126 -0.0183368 0.0191654 -0.026038 -0.0143056 0.018562 
-0.021894 -0.0143559 0.0199189 -0.0267915 -0.0178986 0.0208242 -0.0160281 -0.0195247 0.0138356 
-0.0174698 -0.0157399 0.0137605 -0.0135185 -0.0166187 0.0150478 -0.0191947 -0.0121955 0.0144617 
-0.0151306 -0.0124655 0.01436 -0.0122749 -0.0134537 0.0174859 -0.0178571 -0.0184325 0.017565 
-0.0168998 -0.0143027 0.0174719 -0.0150214 -0.0168336 0.0199371 -0.014789 -0.01288 0.0205617 
-0.0103588 -0.0192357 0.0142794 -0.00603948 -0.0186162 0.0138217 -0.0105231 -0.0139293 0.0139219 
-0.00623948 -0.0140383 0.0138335 -0.00832397 -0.0164356 0.0162898 -0.00831831 -0.0125055 0.0170366 
-0.0114983 -0.0178217 0.0183015 -0.00439045 -0.0131919 0.017354 -0.00827 -0.0184133 0.0207041 
-0.0097292 -0.0146448 0.0203381 -0.00511013 -0.0172334 0.0185544 -0.00576894 -0.0142221 0.0211386 
0.00297753 -0.0201362 0.013728 0.00106554 -0.0164906 0.0138909 -0.00225302 -0.0137499 0.0139929 
0.00395109 -0.0121132 0.0141133 -0.00246297 -0.0174547 0.0155397 0.000907844 -0.0133433 0.0164294 
0.00178937 -0.0168767 0.018088 -0.00134547 -0.0147353 0.0194587 0.00422532 -0.0130268 0.018654 
[...]
POINT_DATA 6000
FIELD FieldData 7
id 1 6000 int
2479 542 2586 3941 2920 4768 3418 5760 4073 
3839 3208 4777 4602 471 3098 4202 3382 5124 
5217 5363 4122 4718 4740 4590 3008 4362 935 
20 4087 5049 4026 5691 49 4434 5106 4982 
525 2418 435 1145 531 3416 35 3923 4649 
917 606 528 3 1123 1318 1962 2329 1354 
2339 313 1088 1546 292 537 117 1691 1903 
3269 270 3453 1741 1890 2513 1031 2809 1883 
281 720 2122 502 3968 870 918 135 2019 
1668 4074 710 835 3639 652 4232 4124 339 
2775 3834 2001 2850 3397 248 2810 118 64 
268 3298 3938 973 662 291 2740 314 215 
165 274 988 4080 522 111 706 364 396 
654 247 73 257 747 985 371 1472 34 
1765 18 512 216 1539 178 2148 576 886 
609 1584 374 302 1129 316 842 452 62 
574 552 3471 252 2206 1715 2101 902 1846 
767 1307 123 38 519 71 468 2894 670 
632 139 2677 69 1055 2867 622 568 1619 
1652 415 791 2074 2394 1280 329 843 204 
660 51 1406 382 600 685 176 992 251 
640 402 46 732 109 852 230 2752 411 
1061 614 214 392 515 85 29 2580 909 
801 350 440 858 91 308 1189 437 1092 
324 1802 629 1194 734 432 1065 781 1930 
400 401 81 520 1732 582 1891 737 1600 
1372 1045 938 1228 1397 209 1015 403 1221 
1607 459 3045 664 466 1074 88 1060 1456 
1078 30 421 1093 773 2444 810 48 1706 
684 66 1044 493 1181 172 948 63 244 
1 2537 825 626 152 498 561 979 588 
1141 1301 1011 789 955 2213 1191 351 276 
365 727 1542 28 1203 1583 784 337 363 
2648 848 460 223 1440 235 841 1091 1138 
921 398 445 219 492 282 455 616 558 
1038 1257 156 675 548 630 677 669 83 
864 211 580 1362 645 210 238 1403 1200 
338 383 1046 1259 1284 682 726 964 1027 
1730 19 1632 408 1576 2704 241 1637 1886 
1568 1236 2897 44 997 208 78 2560 2136 
2905 2013 1269 170 762 1401 1311 1523 529 
427 638 1419 976 499 517 2109 822 1197 
7 550 755 926 1139 441 145 1135 265 
1452 393 297 1626 761 349 812 307 444 
112 2439 839 1097 1067 989 333 410 1861 
377 1219 185 911 1270 780 555 818 2 
987 725 1151 161 602 138 256 97 1036 
301 1214 1232 76 8 951 405 805 480 
277 783 1804 545 384 1471 379 70 1766 
198 395 47 1032 936 245 1272 1182 1446 
173 2654 1832 598 1511 641 2217 2274 463 
2334 149 1829 551 341 2555 2857 575 2961 
1910 2754 4139 4909 2517 2331 267 1687 1855 
3753 496 4810 181 1901 3040 4159 330 2636 
2663 1713 397 2326 1072 2863 1039 474 2292 
691 647 646 713 678 434 75 128 1491 
1562 1071 1022 957 883 221 1157 840 171 
380 479 404 1561 1085 829 759 168 671 
507 1108 1436 673 650 262 1684 1369 1101 
184 1156 1131 98 1171 508 1206 605 974 
724 4 469 779 873 217 942 758 659 
354 523 1321 633 188 785 104 613 1205 
882 565 344 381 1862 653 423 59 1438 
213 271 1073 390 124 1738 2776 557 438 
1532 1029 814 596 50 1792 666 1797 2426 
1192 2911 2534 2656 2960 207 2635 3595 742 
2793 1043 2915 3851 3243 4191 4280 1958 2709 
2659 2290 2600 1526 4032 4592 2579 2999 3793 
4452 107 916 2452 484 236 857 1525 2263 
1424 1570 984 2113 1421 1606 906 748 1243 
45 1458 1358 17 206 136 153 1016 590 
1340 635 96 366 196 1002 721 1727 1234 
1560 105 1066 667 388 564 1216 591 1287 
1266 451 1480 280 368 286 578 177 130 
532 764 879 359 689 714 340 352 154 
665 1094 253 134 82 1169 53 1159 164 
323 275 1075 2631 541 3689 1117 2544 1332 
2153 2132 362 2879 453 2354 1821 1638 3909 
1107 4070 23 874 672 2629 1693 4154 2100 
2521 1819 3755 3106 4065 658 2324 2633 618 
2955 4711 5541 4459 4377 1711 4035 3988 797 
3993 1961 3101 5495 4188 5135 5560 4867 2022 
483 1462 1426 893 3201 740 1304 1534 1642 
887 2328 2778 1177 1709 1667 353 1267 1095 
538 306 166 1223 865 311 1645 43 122 
1070 937 472 634 1654 907 587 514 513 
1465 560 798 553 534 1271 1888 1103 1048 
501 439 890 57 867 1339 619 2551 142 
1747 1581 914 959 227 325 2528 2574 1429 
1969 1516 3099 1896 295 1957 2048 2572 3563 
2396 2475 1536 1414 3757 3218 476 2364 4650 
2067 1487 2511 4105 433 4227 2220 2081 3436 
3859 2975 2523 2705 343 636 3466 2182 5664 
399 3166 2940 4020 2844 3432 2393 1907 3245 
3017 5726 2731 849 583 1648 680 1215 1246 
2383 2398 687 656 129 2266 2249 1887 2400 
1180 795 851 1724 701 1527 100 896 2167 
420 1831 27 1913 859 266 348 1864 1000 
370 559 1398 1817 1490 319 603 279 490 
681 1099 231 1510 1186 2241 1388 1481 1749 
853 200 2315 983 933 1497 3206 3816 2210 
1226 3929 688 298 1118 2830 806 3625 3597 
2411 2424 592 61 127 1077 1762 9 2978 
1390 2588 611 530 1621 446 2996 1168 2530 
2618 4438 3420 1195 1564 160 60 1750 1970 
3822 2111 3408 3368 3369 3126 2543 3530 305 
811 242 993 2454 418 132 1320 40 133 
456 299 13 121 540 676 601 385 194 
86 1211 663 2519 258 431 1679 4268 461 
2161 756 524 826 3396 729 387 2151 1538 
546 2972 766 2764 1162 2403 2825 1010 2695 
1005 3780 1579 862 373 674 828 2325 3409 
3590 3310 4001 4345 2515 413 3615 4045 189 
4865 4571 536 4012 4606 1017 970 1306 2737 
1317 3058 3536 3980 4543 175 3082 4482 3545 
4699 927 31 367 2116 1164 637 910 1146 
809 3762 357 940 819 1069 417 1514 1028 
288 2256 2589 1520 1047 1662 572 1807 1136 
961 2289 1818 2283 2077 1627 3491 3647 620 
1325 3747 15 3028 4391 3316 2665 2514 4176 
2869 4057 3052 229 2549 3908 3186 3967 3291 
4573 3226 3364 3327 2380 2749 2216 3827 4569 
5236 3730 3124 3449 4272 4017 3668 3935 4942 
4365 4556 4466 5808 4447 4229 5406 3949 5194 
4371 4746 4174 5504 5645 4985 4853 5536 5557 
4388 5224 3534 3933 5265 126 4088 3710 5684 
738 5846 4284 473 774 143 1333 3212 679 
2008 3313 3702 1152 3006 2746 2020 234 1277 
1625 429 2684 101 3953 3724 969 3856 2353 
3363 3902 2457 3475 2451 3458 2347 1787 2992 
3861 3653 3769 3129 4303 3767 2639 3361 2787 
3655 3315 3492 4605 5833 4544 4700 2303 3741 
2460 80 2969 6045 4930 4598 708 1148 2232 
3059 3982 5181 303 3841 694 2626 3549 2542 
2585 1630 2135 2602 1914 2612 2261 2358 1939 
1837 3102 2310 2623 3013 628 1013 2114 1154 
2453 1376 1294 1922 1053 1371 2346 1393 294 
960 1990 1733 1245 1926 589 3137 1735 2378 
2192 1971 2049 1479 2614 2681 735 2856 1379 
2627 3227 2495 3011 3122 2848 772 802 2323 
2065 1775 3439 284 2547 201 2487 2055 968 
2997 3077 2773 3964 581 94 894 3379 945 
3914 1555 3591 3732 2322 4083 296 1853 1968 
1550 1915 2785 2930 2550 2438 1867 577 1184 
1512 1828 1955 876 1633 477 1331 2245 1767 
1874 426 1698 2227 639 1347 3459 2603 1885 
1098 1449 869 358 850 1261 2327 1947 584 
1193 570 543 711 1004 320 804 14 2003 
179 2070 300 425 1238 2038 1086 1994 929 
1231 2502 1290 304 547 1899 1483 1283 1699 
448 2085 449 1166 1338 1678 1788 2123 2247 
2291 1841 962 1781 1897 1198 11 860 2741 
2449 1517 1253 827 1292 509 3027 861 416 
1928 820 261 1548 698 1651 1322 1585 1629 
1213 1838 1503 1466 1670 2236 1434 612 1315 
309 2959 2156 2503 1352 1305 1631 3758 881 
904 1905 1063 1949 2420 2130 3103 3136 1563 
26 2768 1612 3022 2666 3726 2129 2257 278 
32 1445 1628 649 500 2094 1345 336 2428 
2173 2477 1588 2491 1336 1776 752 1163 1090 
1366 1810 2340 1383 1235 991 1252 749 897 
1342 716 778 1244 2028 1381 919 148 786 
1824 25 1368 1001 2056 167 193 1761 782 
949 1274 526 464 607 1003 1979 1435 2102 
925 1057 1281 1155 1425 1894 712 116 285 
169 821 125 346 999 847 699 1170 458 
733 744 1443 1404 33 981 627 447 2532 
187 1592 1224 39 875 1056 2280 569 1374 
3413 1114 3012 2488 1754 4837 2392 3900 2861 
3529 5110 2842 1799 2202 2739 3681 2875 4668 
3855 3071 2650 3857 4114 608 1240 1790 2423 
1115 1021 2338 2478 1172 707 1254 56 1616 
1258 1694 1641 1430 1412 263 103 808 1134 
369 1276 1734 535 793 803 327 982 1058 
944 1665 2083 1974 1357 182 830 995 1208 
1714 975 1380 1319 345 65 1549 202 222 
908 1286 1453 141 1683 422 1233 585 617 
775 99 290 180 703 1187 980 1671 1499 
1854 1500 24 1100 2063 2384 2518 2653 3215 
3452 2304 3649 4239 2163 4205 4883 4403 4094 
4857 4685 5487 2753 5040 3585 3010 5090 5524 
5050 3677 5007 4789 4616 4450 4632 4876 549 
1934 2366 885 2883 3110 1768 2097 1770 2389 
3353 1757 2104 1334 3005 2060 1288 1953 2023 
2459 1450 1444 1590 310 1348 1175 1620 769 
1124 1598 1634 836 731 450 815 1422 283 
697 269 419 106 465 37 1143 326 376 
147 1054 695 1229 1359 488 391 1316 489 
191 1459 1149 372 834 615 332 3163 1119 
889 1050 443 799 233 928 1327 2027 2238 
2849 1669 3031 1464 1314 3239 2440 2805 2923 
4932 4346 2568 4920 3321 2436 4872 4252 4913 
5991 3317 5006 5678 4842 2615 4678 5084 5583 
4948 4138 5200 4714 4901 5781 4885 4680 5422 
4781 5251 2071 1944 1611 3600 1859 2264 2687 
162 1218 3662 1300 1798 900 952 1052 1420 
1037 250 1400 715 1385 1605 1850 442 567 
2391 2296 1185 915 1643 892 1158 516 21 
144 360 1427 430 1329 539 845 110 1700 
1719 1530 1106 2862 2619 3117 1237 2177 2441 
1933 1868 259 2455 1844 2221 2707 1475 4395 
2500 3916 1615 4882 3476 4964 2140 2952 3686 
5476 2957 2692 3488 3389 2888 2646 3232 5764 
5537 5155 5270 4269 4314 5658 4783 5577 5566 
6006 4197 4536 5633 3503 5465 5815 2950 4815 
5503 4667 4258 5074 5162 1614 55 1225 92 
1528 3068 2341 146 3189 3023 3089 1531 2258 
2642 2095 2262 1556 1188 1923 2591 950 2190 
3431 1378 328 347 2404 67 1126 1843 1653 
2120 1167 1260 2527 2497 2142 2073 2941 2395 
1941 518 2294 1173 3256 1718 2690 2826 3430 
3070 1904 4043 2526 3510 3704 2592 2546 2946 
2854 3526 5172 4390 3951 5981 2893 4916 4653 
4387 3307 4715 4506 5259 5218 3996 5600 4990 
5572 4470 4234 4141 5226 4791 4881 5150 5934 
5176 5787 4615 5083 5652 5749 3552 5831 5863 
5649 1805 2751 2501 2895 2655 2197 2852 1689 
863 1024 1034 478 412 2462 2352 2345 2593 
2235 924 903 2622 4184 3809 1991 1673 2117 
4135 1916 2799 521 1299 3038 4115 2720 2980 
4100 3356 3810 3614 3002 3904 4245 4520 5231 
4348 4069 5431 3665 4181 5454 4911 2820 1964 
3848 4119 4335 6025 5512 4671 4652 5133 5519 
5925 4300 3275 5103 5989 5009 5161 4619 4620 
5430 5272 5285 5892 5821 5463 5460 5542 4477 
5174 5574 5183 895 3107 254 1791 1906 3463 
4264 2962 1851 2103 2794 2064 1535 3405 1399 
3367 4082 4995 1121 2299 3517 5180 2499 2463 
4360 2788 1308 2884 4690 5982 3551 5419 2193 
4381 4392 2699 3963 4926 5184 3566 5417 5742 
3889 4705 4591 4224 5367 4850 4480 4513 4180 
5042 5931 3950 5896 3374 4400 3464 3773 3223 
3347 3882 5539 4683 5178 3947 4562 5804 4006 
5282 3723 4128 4484 3869 4970 4086 5706 3521 
3825 5695 3961 4600 5929 4060 3892 5298 4709 
5358 4892 5500 5402 4267 4249 5043 3455 3216 
5297 6012 6037 5346 5451 6059 5105 3421 5663 
4353 5304 3387 3039 4682 4703 2569 4000 998 
978 2891 2605 871 2698 3132 114 2617 2846 
4133 3975 1998 6058 3509 4033 3883 3141 4111 
3308 5409 5048 4469 4187 3009 3699 4427 4179 
5515 3804 5421 3920 5163 5235 5483 5290 4956 
4747 6007 4304 5384 4290 4638 3230 3791 5913 
5498 5705 5935 3576 3032 4405 3311 3075 3913 
4511 3443 4257 5281 3984 2222 1707 3373 3335 
3479 5915 4013 3872 1659 3324 5680 2536 4309 
3069 4412 3709 1492 971 42 315 1204 2277 
1695 1360 1647 2069 2134 2721 1451 2336 2772 
700 2435 1748 2811 1705 1870 1367 2112 2567 
3684 2882 2791 2596 4663 1664 4063 3016 3424 
3708 2823 3116 4831 3555 3663 5345 3349 3351 
4846 5723 4890 3337 3867 3465 3770 4530 4285 
3508 3729 3372 5858 2694 4874 4003 3688 4263 
3147 3618 3580 4496 4355 4430 190 4518 5513 
3611 2711 2147 2703 2108 2912 3666 2080 3807 
3295 3084 3160 3957 1437 3375 3414 1686 4478 
3381 4389 3057 3777 1721 2896 2998 2843 3359 
1751 3260 3682 4240 3362 2837 2732 1474 1461 
2613 2750 1827 2149 2000 3520 1739 1809 2036 
1869 1160 965 4237 2093 2237 2248 1873 1924 
2538 481 3358 2847 2716 1839 6 1676 1931 
1929 1447 2119 1772 2925 2214 1594 1963 1811 
2859 625 2039 2332 4918 1111 3634 3105 1408 
3073 2892 3493 3079 1842 2409 4384 2382 2783 
3003 3577 2125 3213 1720 3727 696 2494 2010 
1639 3965 2682 2230 4219 1298 3033 604 1688 
1995 2747 2506 1506 2587 2953 2531 102 1655 
1871 3219 2640 2770 3035 2355 2054 3192 1249 
1909 2982 3297 3342 3478 2107 2250 3220 3494 
4055 2251 3238 4382 2337 2419 3388 2822 986 
3185 4276 563 2860 2184 3829 2796 930 1482 
657 2297 1574 1716 3229 2611 2836 2877 2127 
1911 2233 3231 1586 1746 3100 1786 3607 2018 
1387 648 1409 898 1927 2272 838 1133 1996 
2106 1604 753 2086 1936 566 2254 1375 2259 
1834 1537 1489 1696 2207 1981 2298 1580 1823 
2504 1635 2540 2407 2082 1997 977 2058 212 
1543 1153 240 1940 884 454 1405 723 150 
272 1685 1035 1935 642 1137 1230 2480 939 
2219 2051 1596 2174 58 947 1377 2025 1296 
2312 1289 1708 3323 2910 2958 2369 2162 1411 
3296 2229 4448 3798 2365 4722 3161 1946 4745 
4004 2505 2780 4707 2719 4512 2968 3481 5393 
2758 2510 2410 3066 2363 2432 2387 3939 4046 
1710 3251 2469 4254 3128 2062 2050 1945 1559 
3473 1356 2181 2620 1068 1161 972 1273 1023 
586 1876 692 1476 505 486 1147 84 436 
891 1337 533 623 95 1335 624 225 1822 
831 760 1355 750 1575 1080 495 807 378 
1264 475 931 1084 686 237 260 41 119 
406 1485 409 317 16 856 787 846 1217 
1059 334 941 777 407 389 255 1312 89 
205 1813 2817 2343 1081 1983 1825 2643 1442 
1978 2406 4081 1830 2964 2813 3282 3567 3570 
4298 3518 4727 4597 5968 4078 5070 5332 4398 
4306 4630 4517 4807 4679 4370 4599 3328 4375 
3469 4436 5315 3391 3626 3962 2990 1505 2059 
2738 2512 3588 1782 2490 4002 3641 3446 2870 
4940 1872 2606 2015 2265 1551 2696 2099 1448 
3065 1703 1051 1578 3083 833 1202 771 1122 
2002 1494 705 163 1573 877 1524 1795 722 
462 322 610 1165 487 1310 1952 115 137 
1040 457 668 159 120 1796 776 946 1567 
52 414 880 544 186 954 1455 1033 510 
1303 2903 494 77 1351 743 4343 1943 226 
2342 2370 2031 4274 1985 2908 3903 3644 4824 
4204 5802 3263 5121 4816 5300 3064 5488 4944 
4458 4614 4515 5965 5362 4329 4244 4692 4851 
5022 5380 4497 5806 4170 3477 4931 4289 3870 
1722 3305 2900 3184 2118 2385 2974 3393 3544 
1959 963 2577 2105 2691 3177 2356 3020 3246 
3501 2807 651 800 2273 2032 1723 2928 3240 
87 1395 1603 1898 763 273 1835 1432 246 
318 1577 593 1389 342 2484 1478 1541 923 
1519 2795 901 1265 1014 823 1328 1407 770 
1852 2053 888 2816 1951 2904 2679 3376 2725 
690 1508 1602 2509 2152 2279 2713 4117 3946 
3976 3700 6062 4144 2275 4404 4162 5027 4895 
4072 5518 3817 5582 4934 3440 4622 4845 5952 
5878 4068 4675 2722 2938 4843 5011 5850 5075 
4531 5143 4702 4725 5551 5004 3093 3546 3210 
1816 2987 2302 3915 2686 3406 3262 2748 3162 
1803 3444 3094 2311 2781 1012 2924 3815 3209 
2821 2983 3173 3041 3540 2545 2144 2373 655 
482 4126 3398 3400 1858 4549 4698 1783 3095 
2306 2535 2828 792 3489 2798 2985 2218 3646 
2570 3339 2634 1127 3168 3705 3190 2765 4673 
4113 5954 4661 1682 4230 3537 5479 2660 2359 
5818 5092 4772 6055 4445 5047 4435 4301 4637 
5164 4442 5585 2845 5810 5604 5108 4763 3985 
5254 3535 5974 6061 3888 4402 3940 5140 5267 
5616 4868 5544 5023 5381 4694 5284 5547 5100 
4730 4557 5683 2583 3427 3087 3399 2242 3661 
2789 3868 3514 2944 4334 3322 3581 1932 3843 
2814 4933 4453 5185 3304 4190 5575 4098 3675 
3779 4583 3584 2868 3290 2467 4738 3442 4693 
3036 5099 4852 3457 4953 3505 4198 4394 3749 
5096 5916 5812 3480 4887 5785 5033 2947 4460 
5752 4173 3740 5674 3133 5631 5884 5731 4978 
5834 3623 4307 6030 3990 4163 5404 5860 4736 
4997 5125 4112 5464 2676 2797 2708 4158 3805 
3719 4635 4164 3512 3411 4748 4474 3288 4019 
5296 4664 4108 3919 4617 5374 5473 3651 2726 
5621 5126 4034 5331 4639 4651 4503 5868 2880 
4983 4199 5919 4256 4487 3998 5835 5694 5757 
4806 4641 3643 6021 5747 5773 5095 5491 4908 
3759 5921 3656 4011 5312 6036 5225 4579 2782 
1743 3138 3671 3844 4756 5368 2520 4022 5316 
5202 4464 5314 3531 4321 5732 5424 3725 4153 
5073 4752 3285 5794 5372 2427 6043 5875 4761 
5739 5052 4373 4209 5318 3558 4762 5529 5097 
5420 5134 5943 5573 4888 3586 6053 4719 5229 
5728 5227 4954 1650 3714 5348 5936 5759 4737 
5255 4465 4782 5514 6010 2096 3944 497 2644 
2458 1365 3794 3329 3733 1806 5927 3451 4734 
4541 4647 5712 2919 4500 5219 3412 5366 5359 
5256 5736 5839 5964 4131 5026 4167 6001 5849 
5673 3578 2853 4943 4099 4604 3738 4646 4140 
5521 6032 5909 3403 4553 5811 5775 4712 5412 
4689 2916 5220 5266 5238 5718 5081 5716 4741 
4095 5014 5586 4457 5261 4308 5188 4910 4509 
3692 3954 5423 5700 5665 4357 5962 4935 5322 
5864 5080 5553 4610 4567 4192 4248 1840 2971 
1849 1801 2967 2647 2556 4052 3154 3945 2598 
2293 3195 2652 1498 4143 2485 4025 3670 6057 
4271 4222 2931 5522 4847 3029 5389 5039 3907 
3621 3927 2871 3748 4989 4029 4437 4527 5388 
2079 3987 4378 2443 3772 4292 4800 3426 5840 
5206 5205 4493 5128 4367 4211 5223 4243 3672 
5278 5531 4461 3828 2800 4350 3826 4101 4212 
3454 4147 3019 4828 3550 4376 5478 5131 3081 
3948 4674 4454 4784 4924 5730 3873 4320 2933 
3911 4130 1587 3127 1624 2658 2412 2175 2200 
3893 2700 2578 2680 1675 1881 3265 2468 2994 
4250 2309 3983 3778 2075 2818 1623 3673 2557 
2529 2576 2320 2604 2668 2831 1889 3524 2763 
2168 3130 3191 3516 3506 741 4036 3280 5035 
1808 3277 3026 3392 4540 4260 1660 3564 2198 
3217 3270 1113 3860 1692 2128 113 5317 1663 
2284 1313 1972 2189 2431 2767 1382 4102 3486 
3606 2927 1501 2688 3784 1041 3572 2951 1737 
3629 5588 5499 4539 3548 3782 2943 4166 3669 
5605 2088 4283 2486 1571 1394 3394 3874 5370 
5941 5744 3085 2212 3254 2558 2481 3407 2145 
2906 2552 2493 3462 1509 3959 4125 2228 2745 
2171 4374 3648 3272 3119 2801 3139 2936 1866 
2417 899 1104 2372 1984 2321 2004 2377 1513 
2482 2196 1880 1384 757 2743 3224 2176 1900 
1326 2194 2414 1657 1701 1836 1470 2651 2072 
1895 2948 218 3532 1992 2496 2362 1875 3196 
249 2672 1242 1697 228 1109 1431 224 1826 
2461 1591 2376 1845 485 1096 1241 2166 72 
1566 1980 3472 2379 5061 3330 2437 2582 3055 
2316 3632 5182 4288 3890 5681 1646 4628 1820 
3543 4061 1610 2954 3765 3448 3744 1884 2855 
5019 4014 6060 4925 5841 3048 2881 3617 2335 
4005 4053 3635 3336 3293 3309 4178 2670 4498 
1239 1658 2761 4804 1893 2769 3750 2898 3151 
2616 491 2226 1878 2966 644 2899 990 192 
503 595 1125 556 1486 36 1116 1082 693 
151 1364 10 1468 813 1278 511 739 197 
1190 1006 5 872 1467 1617 428 746 293 
573 289 1089 2456 158 2045 1755 594 1353 
2755 1297 1410 2901 1418 3852 2415 4769 504 
3650 2806 2922 2157 5502 2678 2553 4342 3896 
4893 4771 4049 2030 2621 5445 4780 5641 4589 
4338 4330 5630 3235 5783 5387 3745 3838 3636 
3659 4155 3992 4559 4246 4691 4946 3685 3257 
2446 2724 4528 2561 3157 4089 3613 2945 2317 
1908 1892 3169 2932 3062 2139 2865 2143 1250 
1150 1942 1496 1769 1728 108 2040 832 424 
355 1179 2035 90 1007 321 1344 1248 1812 
239 356 527 1702 1469 1176 1613 2034 3404 
140 878 4385 2374 3171 754 1019 2885 4494 
1597 2525 3742 220 5753 4538 3467 3253 1132 
5191 2926 3824 4923 6018 5830 4588 2333 2935 
5651 4413 6050 5788 5756 5769 3956 5722 4225 
3533 4523 1975 4974 3542 3366 3153 4507 3583 
4608 5053 4854 4658 2744 3837 2977 2442 4731 
3627 3999 3652 3707 4091 3248 2006 2993 3193 
2141 2076 3858 3276 2610 3142 817 506 1391 
2756 2465 1729 1460 1484 1554 631 922 2641 
2126 199 386 1618 2090 1518 68 1413 157 
854 79 621 1599 2133 1130 1279 1291 1522 
913 554 1343 1112 1220 1415 704 1263 2841 
3593 3200 5866 5323 5807 5587 1026 2829 2180 
3835 5958 5330 3429 5242 5729 3906 5703 5112 
4193 5501 5439 5933 2405 5403 3289 2007 4488 
2165 4542 4856 5017 3579 3511 3667 2965 3410 
3434 3165 4418 3910 4717 4999 3599 4907 3279 
2052 3806 3895 4613 5386 4152 3450 1018 2760 
2766 4351 3037 3334 4584 3934 3721 5066 1814 
1973 3678 3811 3958 4490 1545 3885 4118 2516 
2833 1402 2991 2701 2657 1076 3051 5210 2832 
599 3876 174 4966 816 2092 5427 4552 3716 
3640 4275 2029 232 5520 2281 5443 5798 5257 
4993 3046 5922 5438 4522 1956 5301 4835 3015 
4324 4870 4431 4972 4075 4710 3664 5704 3589 
5836 5089 4524 2447 3340 2835 4603 4341 4555 
4270 2729 3775 3433 4526 5549 3594 4293 4701 
5758 2727 5881 5766 3679 5119 2979 3619 2995 
4798 5615 4504 4169 5082 4200 4508 3691 4724 
5911 5321 5644 4429 4396 5745 3259 5576 4157 
3979 4203 4959 3582 3076 2907 5771 1763 2367 
5123 5999 5158 3952 5698 3266 3865 3063 3925 
2402 5832 4221 5228 5640 5825 5334 5625 4654 
1504 4564 2942 4941 5054 4332 4207 4352 4277 
5543 4965 6063 5819 4077 3898 4317 5447 5984 
4634 5234 5721 5743 3383 5897 5986 4915 5855 
5550 5139 5713 4629 5032 5987 5969 5342 4899 
2889 5558 5249 5538 2683 4273 6000 4054 4813 
5746 5252 2777 4878 5287 5879 2723 4596 5113 
4414 5401 5994 4423 5843 4071 4514 5407 5869 
5247 4361 5213 4582 3840 6017 5828 4409 2645 
4687 4103 4919 6040 5302 4411 3415 5768 5416 
4775 4939 3833 4315 4106 3922 6029 5260 6027 