# vtk DataFile Version 4.2
Generated by LIGGGHTS
ASCII
DATASET POLYDATA
POINTS 6000 float
-0.0236121 -0.038236 0.0177643 -0.0164613 -0.0413388 0.0178989 -0.0202091 -0.0401646 0.0186774 
-0.0173849 -0.0374241 0.0177441 -0.0117465 -0.0399125 0.0176874 -0.0104147 -0.0437711 0.0179247 
-0.00777397 -0.0403906 0.017496 -0.00625811 -0.0444903 0.0177911 -0.00421626 -0.0380848 0.0184909 
-0.000131506 -0.0443686 0.0169879 -0.0031968 -0.0416523 0.0167273 0.000401751 -0.0391371 0.0176374 
0.00383374 -0.0447736 0.0166611 0.010627 -0.0436849 0.0169936 0.00595834 -0.041203 0.0167581 
0.00983141 -0.0389032 0.0166939 0.0051502 -0.0372224 0.0172658 0.00720607 -0.0443326 0.0190138 
0.0148944 -0.0423672 0.0167613 0.0148375 -0.0381713 0.0163721 0.020324 -0.0399584 0.0166996 
-0.0270449 -0.0359324 0.0180759 -0.0285054 -0.0321236 0.0177945 -0.0238873 -0.0331194 0.0180146 
-0.0206365 -0.0307579 0.0182354 -0.0176173 -0.0334752 0.0184458 -0.0168765 -0.0292786 0.0179109 
-0.0133501 -0.0360694 0.0173147 -0.0137236 -0.0319457 0.018013 -0.00923839 -0.0365341 0.0178899 
-0.00916865 -0.0322099 0.0177521 -0.00572913 -0.034292 0.0172311 -0.00651053 -0.0291273 0.0179052 
0.000919676 -0.0318224 0.0172541 -0.00153429 -0.0354772 0.0167931 -0.00297702 -0.0309153 0.0186344 
0.00649304 -0.0328672 0.0179474 0.0106669 -0.0349285 0.0173874 0.0156173 -0.033661 0.0164288 
0.0183879 -0.030272 0.0168672 0.0196351 -0.0342088 0.0165926 0.0123331 -0.0303728 0.0178811 
0.0227785 -0.0306325 0.0181389 0.0232274 -0.0367282 0.0161825 0.0260027 -0.033819 0.0166897 
0.0303088 -0.0320967 0.0161765 -0.0387401 -0.0228191 0.0187182 -0.0347143 -0.0285226 0.0188417 
-0.0307934 -0.0278176 0.0184484 -0.0347109 -0.0231228 0.0184706 -0.0307356 -0.0235926 0.0188091 
-0.0268051 -0.0280847 0.0177844 -0.026172 -0.0242345 0.018763 -0.0243921 -0.0206173 0.0185485 
-0.0216852 -0.0255658 0.0175864 -0.0180036 -0.0240569 0.018688 -0.0143547 -0.025646 0.0177309 
-0.0204078 -0.0209638 0.0176789 -0.0114746 -0.0285209 0.0176896 -0.00691321 -0.0250224 0.0186689 
-0.00856051 -0.0211525 0.0191872 -0.0047446 -0.02072 0.0178125 -0.000185239 -0.02801 0.0183956 
-0.0025957 -0.0241337 0.0178763 0.00140243 -0.0238883 0.0173025 0.00367675 -0.0206305 0.017834 
0.00383858 -0.0282605 0.0169754 0.00783545 -0.0287315 0.0181863 0.010501 -0.025554 0.0169438 
0.00538758 -0.0244749 0.01731 0.0122465 -0.0218331 0.0174032 0.0174413 -0.0230517 0.017573 
0.0192006 -0.0265729 0.0188014 0.0143616 -0.0253508 0.0188783 0.0217734 -0.023501 0.0173642 
0.0244589 -0.0272127 0.0165432 0.0286131 -0.0281034 0.016938 0.0255986 -0.0223926 0.0179019 
0.0292594 -0.0238315 0.0168497 0.0325246 -0.0286205 0.0162543 0.0357911 -0.0207052 0.0179231 
0.036968 -0.0254484 0.016376 0.0334171 -0.024059 0.0181774 -0.0379227 -0.0182446 0.0186013 
-0.0302762 -0.0195729 0.0184717 -0.0319162 -0.0159542 0.0190377 -0.02947 -0.0128147 0.018598 
-0.0257289 -0.0142372 0.0186482 -0.0163308 -0.0204951 0.0179131 -0.0194754 -0.0169962 0.0181905 
-0.016693 -0.013662 0.0183398 -0.0133063 -0.0159426 0.0183938 -0.0122965 -0.0200238 0.0183065 
-0.0096438 -0.0142774 0.0190445 -0.00716224 -0.0173799 0.0178608 -0.000755587 -0.0202871 0.0177439 
-0.00282793 -0.0167816 0.0177704 0.00147716 -0.0168135 0.0177116 0.00301701 -0.0128635 0.0177791 
-0.000984594 -0.0130807 0.0184192 0.00983262 -0.0184869 0.0170974 0.0112862 -0.0134924 0.0174082 
0.00570426 -0.0171005 0.0177231 0.00725492 -0.0130795 0.0179767 0.0192296 -0.018682 0.0177483 
0.019137 -0.01469 0.0173576 0.015385 -0.0124315 0.0179863 0.0142315 -0.0163987 0.0176283 
0.0261873 -0.0142605 0.0175847 0.0227476 -0.0164139 0.0172048 0.0263382 -0.0185116 0.0171963 
0.0318447 -0.0194425 0.0173354 0.0342042 -0.0161153 0.0175014 0.030233 -0.0158228 0.0179967 
0.040025 -0.0202732 0.0166201 0.0376968 -0.0134374 0.0166963 0.0417322 -0.0162226 0.0173329 
0.0379527 -0.017109 0.0184963 -0.0433435 -0.0120338 0.0189399 -0.0393025 -0.0112483 0.0188822 
-0.044202 -0.00808586 0.0186312 -0.044169 -0.00403814 0.0188835 -0.0371501 -0.00739116 0.0184824 
-0.0354242 -0.0122123 0.0184386 -0.033462 -0.00876572 0.0191967 -0.0297086 -0.0075757 0.0183884 
-0.0227411 -0.011502 0.0189497 -0.0234001 -0.00757691 0.0183342 -0.026554 -0.0100383 0.0187959 
-0.0128418 -0.011489 0.0179019 -0.0193021 -0.00962692 0.0178943 -0.0202227 -0.00510453 0.0182241 
-0.0165423 -0.00670082 0.0181788 -0.0125503 -0.00692859 0.0182686 -0.00676743 -0.0107485 0.0177508 
-0.00857639 -0.00715516 0.0178718 -0.00455857 -0.00737255 0.0177872 -0.000819526 -0.00888403 0.0174917 
0.00264211 -0.00638611 0.0173433 0.00977403 -0.00968498 0.017549 0.00718684 -0.0059543 0.0171936 
0.00507606 -0.00947795 0.0183271 0.0111252 -0.00568975 0.0181178 0.0137872 -0.00883395 0.0170559 
0.0176959 -0.00912048 0.0182669 0.0185537 -0.00516255 0.0183774 0.0217702 -0.00841257 0.0184923 
0.0257776 -0.00673054 0.0172243 0.0223601 -0.00458407 0.0172874 0.0252095 -0.0105723 0.019116 
0.0331219 -0.0122559 0.0172462 0.0296449 -0.0101507 0.0171447 0.0362279 -0.0077659 0.0169834 
0.0330196 -0.00499904 0.0172228 0.0294862 -0.00635823 0.0186928 0.043605 -0.0110479 0.0160164 
0.0443997 -0.00674658 0.0173014 0.0405594 -0.00551037 0.017214 0.0402235 -0.00976891 0.0181483 
-0.0382361 -0.00358421 0.0192433 -0.044853 0.00301609 0.0179586 -0.0426455 -0.000338862 0.0188711 
-0.0387002 0.000319613 0.0183668 -0.0298711 -0.00348676 0.0183663 -0.0341539 -0.00343351 0.0185052 
-0.0316868 6.17923e-05 0.0187391 -0.0239139 -0.00268589 0.0184379 -0.0267811 0.00319565 0.0187952 
-0.0160617 -0.000833182 0.0181306 -0.0202713 -0.00111286 0.0179036 -0.0165491 0.00389663 0.0177327 
-0.0204559 0.00289898 0.0179795 -0.0130822 0.00189005 0.0176757 -0.00817994 -0.00313919 0.0177894 
-0.0121129 -0.00211584 0.0175898 -0.00923277 0.000712617 0.0174565 -0.0059848 0.00313994 0.0174202 
-0.0041931 -0.00338754 0.0174946 0.000463613 -0.00169867 0.01766 -0.00298007 0.000447967 0.0174529 
-0.000735802 0.00395216 0.0173402 0.00336928 0.00352758 0.0170524 0.00461562 -0.00288436 0.0180684 
0.00921628 -0.0022093 0.0175414 0.0104113 0.00200846 0.0176008 0.00652803 0.000854117 0.0178078 
0.0147585 -0.00390027 0.0173977 0.0178941 -0.00132686 0.0174479 0.0199309 0.00213149 0.0175276 
0.0160862 0.00191483 0.0189875 0.0274451 -0.00282304 0.0175186 0.0228901 -0.000618416 0.0175658 
0.0244085 0.00291733 0.0187694 0.0286572 0.00411068 0.017972 0.0369868 -0.0037122 0.0170177 
0.0339392 -0.00108275 0.017282 0.0300098 0.000261866 0.0176564 0.033773 0.0027428 0.0191038 
0.0447813 -0.00267389 0.0176871 0.0447834 0.00130419 0.0183452 0.0411871 0.00304402 0.0173964 
0.0407069 -0.00149208 0.0174287 0.0375524 0.000976925 0.0168401 -0.037236 0.00420937 0.0187892 
-0.0400624 0.00712236 0.0186527 -0.0440851 0.00875711 0.0185679 -0.0408516 0.0110986 0.0188505 
-0.0353553 0.0117925 0.0183943 -0.0324335 0.00746807 0.0191212 -0.0313867 0.0112781 0.0183286 
-0.0234451 0.00542923 0.0188487 -0.021776 0.012188 0.0178468 -0.0244087 0.00931494 0.0189222 
-0.0274061 0.0118792 0.0181016 -0.0204993 0.00810247 0.0180729 -0.0148535 0.00809434 0.0183584 
-0.0171079 0.0115689 0.0184013 -0.0128488 0.0122552 0.0186872 -0.00957742 0.00510117 0.0179282 
-0.0106357 0.00895666 0.0180536 -0.0055295 0.00715606 0.0180605 -0.00350578 0.0116261 0.0178791 
-0.0015199 0.00788549 0.0176989 0.00294463 0.0110386 0.017339 0.00752014 0.00469755 0.0190131 
0.0109443 0.00649842 0.0179267 0.00447335 0.00732432 0.0178527 0.00700968 0.0116576 0.0173126 
0.0122893 0.0101997 0.018873 0.0147985 0.00537931 0.0173278 0.0174182 0.00890948 0.0176091 
0.0218553 0.00588212 0.0178236 0.0224759 0.00979892 0.0184034 0.0264252 0.0105855 0.018359 
0.0256045 0.00673684 0.0191938 0.0336619 0.0065273 0.0176808 0.0297145 0.00800387 0.0181764 
0.0315477 0.0122085 0.0182855 0.036954 0.00898389 0.0179095 0.0446079 0.00531346 0.0190047 
0.043966 0.00904529 0.0175344 0.0404869 0.00705587 0.0180556 0.0402835 0.0112155 0.0180885 
-0.0418129 0.0165283 0.0186976 -0.0384441 0.0143346 0.0184959 -0.0401918 0.0200588 0.0177127 
-0.032412 0.0161907 0.0186582 -0.0357992 0.0203677 0.0182569 -0.0318074 0.0201239 0.01819 
-0.028129 0.0158364 0.0181053 -0.0244569 0.0174352 0.0182006 -0.0192427 0.0178541 0.0184153 
-0.0154952 0.0152573 0.0183551 -0.0154718 0.019259 0.0183364 -0.0071885 0.0132594 0.0180444 
-0.010508 0.0156419 0.0184758 -0.00629202 0.0171666 0.0183028 3.67165e-05 0.0137864 0.0178879 
0.00126484 0.0175262 0.0186107 -0.00253818 0.018778 0.0179867 0.00452818 0.019516 0.0174126 
0.00412137 0.0148485 0.0177893 0.00810344 0.017678 0.0181657 0.0100893 0.0142153 0.0178679 
0.0132821 0.0171551 0.0178425 0.0157407 0.0137632 0.0181205 0.0186928 0.0196526 0.0177825 
0.0237499 0.0136265 0.0181232 0.027677 0.0147917 0.0180501 0.0238329 0.0189266 0.0179707 
0.0206093 0.016122 0.0176292 0.0355205 0.0126662 0.018584 0.0344992 0.0165155 0.0181519 
0.0317992 0.0194524 0.0186068 0.0424808 0.0146638 0.0179763 0.0385056 0.0152705 0.017968 
0.0409569 0.0184463 0.0177865 -0.0382275 0.0235496 0.0180514 -0.0351221 0.0280533 0.0178458 
-0.0340368 0.0239674 0.0185917 -0.0300535 0.024217 0.018206 -0.0260689 0.024579 0.0182309 
-0.0277873 0.02086 0.0186523 -0.0237432 0.0213533 0.0187307 -0.0220787 0.024995 0.0185021 
-0.0247463 0.0285855 0.0188569 -0.020735 0.0287954 0.0186016 -0.0196599 0.0218429 0.0191845 
-0.0175623 0.0262566 0.0190005 -0.0131323 0.0248152 0.0181543 -0.0145371 0.028769 0.0181689 
-0.0117909 0.0210433 0.0178106 -0.0070703 0.0213052 0.0179529 -0.0104778 0.0277931 0.0185198 
-0.00710802 0.0258227 0.0175581 -0.00316637 0.0266972 0.0179019 -0.0033306 0.022708 0.0175981 
0.000560708 0.0246622 0.017577 0.0113089 0.0208121 0.0182134 0.00536697 0.0275394 0.0175375 
0.00846443 0.0249791 0.0178534 0.0124815 0.0246294 0.0177875 0.0171174 0.0256503 0.0179051 
0.015273 0.021727 0.0178082 0.0224646 0.0241129 0.0179042 0.0280389 0.0249127 0.018273 
0.0210617 0.0280376 0.0173633 0.0352748 0.0212843 0.0178023 0.02958 0.0286942 0.0176765 
0.0320483 0.0237504 0.018253 0.035957 0.0252395 0.0182117 0.0391762 0.0220109 0.0184343 
[...]
POINT_DATA 6000
FIELD FieldData 7
id 1 6000 int
1093 552 48 684 1044 755 825 316 632 
452 574 62 1 270 139 600 123 791 
1619 230 502 1074 170 550 7 265 547 
441 561 498 415 626 1011 519 69 588 
51 727 660 339 248 80 291 251 870 
35 529 638 1269 75 278 822 1072 1090 
221 991 1097 1452 145 989 444 333 789 
839 28 337 365 176 411 329 109 85 
522 732 402 215 118 435 3 471 917 
364 1318 1039 1022 128 1561 349 812 749 
1156 112 1157 184 1436 377 185 949 410 
1861 235 1061 780 725 677 282 445 214 
440 455 111 274 350 73 606 324 18 
178 957 136 1243 45 168 434 171 262 
380 1131 759 673 327 1266 564 803 526 
1171 1684 182 995 1155 818 161 951 256 
841 987 616 858 277 548 91 614 308 
964 558 34 1732 401 432 1304 1426 1462 
206 1216 310 388 1560 196 764 815 451 
836 779 555 1101 1206 368 830 633 98 
724 942 758 1036 908 188 217 1232 565 
1205 8 301 405 76 383 379 1257 580 
886 1015 682 1372 211 1095 1177 916 887 
306 538 1480 591 937 1287 472 1066 465 
667 578 122 605 508 359 4 286 202 
104 1169 1094 613 354 381 785 523 423 
805 384 1214 47 480 209 400 545 341 
92 795 993 1180 420 456 311 266 859 
879 634 532 177 130 253 372 689 352 
391 340 659 53 82 154 344 59 1029 
665 551 1272 124 44 149 2523 129 133 
100 13 603 1070 27 348 357 370 619 
1185 1048 490 513 534 560 1465 890 1271 
501 1117 914 1339 1075 557 2132 453 2776 
1792 575 874 433 658 797 40 258 637 
121 1164 367 1211 601 867 983 1000 288 
200 681 142 688 57 325 1429 295 1762 
1536 9 399 1168 1043 61 86 910 31 
809 127 572 819 828 592 620 227 160 
970 1621 60 446 530 1564 636 23 1060 
1922 315 517 842 773 1053 1733 172 810 
2537 63 1706 14 493 902 66 2444 1376 
252 71 468 244 1546 1715 589 117 1625 
2101 1307 1890 1379 537 135 1031 1903 1741 
918 735 1691 292 2347 204 652 662 843 
1883 1668 2920 2479 720 3298 525 3008 421 
869 358 1294 500 466 1078 1449 88 499 
1456 960 1492 1926 543 1197 948 294 762 
2109 179 570 1776 297 1193 320 1139 979 
1055 425 1191 2070 1238 1899 351 1141 622 
804 568 670 2213 955 152 772 38 1775 
835 1652 2394 852 2547 1841 992 64 2460 
710 708 284 303 973 2752 2418 3382 20 
281 2810 49 1145 1148 268 738 3534 2008 
473 531 679 1333 1401 1311 32 976 1071 
1419 1445 336 427 646 479 713 926 1336 
711 752 1163 1366 1235 1135 648 761 716 
1387 300 6 897 2003 929 1290 393 307 
448 304 148 1001 778 276 1283 1231 786 
784 507 1301 1203 1542 460 1583 1699 1166 
1408 46 201 363 382 685 848 1091 223 
1406 219 449 1338 640 909 801 156 492 
2232 1781 94 945 1194 165 706 988 894 
371 774 694 1915 935 314 126 296 257 
1123 1853 747 143 985 2329 1354 528 1088 
1765 2261 474 678 397 647 330 549 2292 
707 1115 1790 1562 691 56 1172 649 1421 
103 263 369 404 1252 1523 1342 1276 1085 
972 891 1068 1134 1244 1086 898 919 2272 
193 2259 1375 25 1219 1626 1368 1381 2439 
1761 167 1981 566 911 782 607 1270 1151 
464 1274 1435 398 1138 138 1440 11 962 
1281 921 712 515 669 2 1253 827 581 
458 1292 1198 247 392 1092 83 1189 630 
1213 577 781 437 512 629 396 1472 1802 
1184 737 1539 1512 576 313 654 81 302 
2148 628 590 984 2326 1628 484 17 1713 
1458 2883 829 1234 1491 236 1108 808 883 
1734 906 671 1369 944 1430 623 1412 1023 
1335 505 84 1665 982 793 535 1058 2083 
595 693 95 495 624 533 1067 1824 750 
650 2056 1485 1974 378 1823 469 1549 116 
1153 1714 831 1319 931 2058 119 212 285 
821 1057 925 847 125 1425 744 686 1038 
97 602 675 642 1405 169 999 29 187 
1403 238 1548 58 1585 723 1651 698 2025 
1828 216 261 864 520 734 1891 309 1466 
1362 1600 612 1434 1129 609 210 1065 1397 
374 1584 1730 1607 1874 353 635 1016 748 
740 1709 162 1052 1570 1424 1667 283 1340 
840 721 43 952 1444 96 1590 366 1002 
450 105 731 1494 1822 769 1357 163 436 
556 1337 225 1125 1380 807 65 975 406 
974 355 1278 1264 877 1248 760 1143 1208 
237 345 1683 249 475 317 260 777 872 
1617 222 1453 1286 1233 141 293 1084 1321 
346 290 783 699 213 1230 272 255 407 
939 1404 70 1629 33 447 787 1443 2051 
39 2532 645 1224 981 1027 1032 395 1056 
1322 1221 582 459 1284 1930 403 1228 1886 
726 408 78 2236 1525 2022 483 849 166 
1614 2328 900 857 55 865 1598 153 1578 
2167 250 1124 567 715 1175 1158 705 1524 
87 1250 1422 1400 1942 1634 326 1573 137 
610 722 462 1150 37 376 1040 322 1006 
197 457 90 1796 269 41 873 488 115 
5 16 856 239 1112 1459 882 422 409 
846 205 880 186 289 494 653 390 180 
1217 617 389 271 1059 89 510 1804 775 
814 875 703 99 980 24 936 641 627 
198 1374 463 173 245 338 19 1766 1046 
241 598 997 1045 938 208 664 1648 680 
1218 656 893 1528 442 851 896 701 1605 
1645 1215 1267 1246 1643 1654 1427 559 430 
2296 1898 514 516 763 892 587 697 280 
1541 246 695 419 424 487 714 1359 1310 
832 668 159 1165 1054 321 946 120 544 
1229 1567 1344 1014 414 585 541 489 52 
776 1265 1438 334 1187 1050 443 332 928 
1854 1033 1314 1327 164 1797 1532 1073 596 
1671 1100 2911 1638 2534 2217 1499 1471 1511 
1910 2100 1182 1576 2704 1829 207 496 1901 
1711 1687 181 2659 2857 687 1887 811 927 
299 1864 146 385 1024 1534 2266 1642 1724 
132 2262 418 347 1398 67 1188 1167 915 
144 907 1378 21 817 328 1835 1099 360 
798 845 1952 1888 539 1700 1389 110 923 
1719 342 134 553 106 834 615 147 1530 
1478 1328 1237 1159 1332 1316 1149 259 799 
1868 2441 191 275 1107 323 666 2631 1119 
2551 889 3099 233 1192 1414 1693 1862 618 
1896 1821 2153 1819 362 343 438 1738 742 
1526 2629 1961 2331 672 863 412 2454 663 
676 1320 194 540 1490 1817 2116 478 431 
461 756 231 319 1510 924 518 387 2161 
1916 1186 439 279 826 1103 1388 1538 933 
2073 1747 1481 1173 1226 2527 1260 2241 1904 
1118 175 1581 959 823 2411 1957 2862 1497 
2315 2048 1390 2528 1516 2879 2325 2574 2210 
2364 50 2475 2705 2940 2996 536 2530 611 
476 2182 3058 1907 2633 1317 1679 3107 895 
254 1146 940 1906 1791 862 729 1069 417 
524 853 373 2256 1136 2764 766 546 1047 
961 1969 1010 15 1077 1028 1535 1299 1005 
1807 298 1195 1162 229 1818 2830 1749 2283 
1325 1579 1017 413 2515 1306 2111 806 2737 
3052 189 3082 1970 42 1360 998 429 767 
30 1990 2617 978 2605 101 2353 1371 2206 
1393 2380 1846 234 1277 2192 2378 3471 2513 
802 1787 2681 2809 3941 3827 2856 2457 3724 
2867 2586 542 3492 2122 2019 3453 3418 4232 
3397 4074 3269 3098 3639 4362 4124 3416 3923 
3455 1261 2149 1947 971 1739 1647 1827 700 
2036 2277 1869 1924 1840 2134 1204 1181 2346 
1004 584 1245 1748 2435 1479 1705 2772 1870 
1498 2894 1735 2677 1971 2614 2049 1483 2627 
2848 1280 2648 2502 2074 2085 3227 1788 2323 
3439 2487 2773 3315 2850 2997 3493 2969 2001 
2775 2740 3933 3059 3379 3964 3688 3841 3212 
3313 4088 3549 3702 4353 3421 3576 3984 1630 
1152 1962 2746 1345 1588 2173 1809 2327 1810 
850 2237 657 2094 2478 2000 1482 2477 3520 
481 1383 1409 2038 965 1447 1160 2491 1873 
2716 1996 753 1994 1676 1839 1367 1931 1929 
2309 1880 1594 2214 1963 2086 3105 625 1660 
1111 2332 1678 1580 2291 2123 3073 1842 2125 
2892 2055 696 2247 2449 1517 2741 3003 968 
3591 3077 416 2580 2322 509 1555 1995 3213 
2785 2542 3914 2602 2930 3618 4405 3580 2147 
1914 2339 2626 2585 2135 3006 1837 876 3102 
2222 2020 1358 608 1240 2097 1021 930 1716 
2387 2338 2297 885 1616 1254 1641 1694 2340 
2423 2428 2062 1476 2248 2028 1586 1911 1927 
2004 2127 2106 2417 1133 1486 838 1604 1772 
1696 2196 2321 1222 2743 1811 1537 1489 1936 
2504 2407 1834 1701 2176 1657 2414 2298 1003 
1894 2540 1979 1826 1635 2682 1940 2948 2194 
1992 2188 977 1639 2102 2010 1137 860 1895 
2230 1663 1897 861 1928 1170 1298 604 1720 
3033 1692 3027 1968 190 820 1867 2550 2108 
2703 2355 2953 3035 1633 1686 2080 2438 2358 
477 2612 1331 3013 1437 1955 2623 1939 1013 
2114 1347 1154 1098 2636 107 2060 1934 2263 
2432 1757 3353 2104 2512 2459 1258 2023 1348 
1273 1953 1872 1448 1770 1559 2606 2050 1161 
486 1984 586 491 1876 644 1104 757 192 
1384 2482 1468 1326 1815 511 2072 966 1346 
1355 1575 1080 2207 2082 1190 1470 1900 2042 
454 240 1543 943 228 2087 218 1875 1477 
1557 1025 1997 884 1035 1977 1591 1431 1242 
1656 1674 361 131 287 733 150 1935 1506 
1688 72 1685 1697 1547 1241 1363 2174 2531 
2587 1838 2767 1655 2480 2982 1972 1550 2603 
1670 2245 1871 1909 3192 2503 1751 1698 426 
1767 1905 1885 904 2750 2227 639 1721 1474 
2959 1300 1727 2264 2366 1859 1334 2452 1606 
2105 2663 2863 1768 2389 1505 2118 1551 1051 
1450 1288 2015 833 2113 1202 503 1620 1116 
1147 692 36 771 1364 2226 996 739 1728 
905 151 356 10 1529 571 1690 1349 1142 
813 1087 1295 2110 745 1533 1736 1350 794 
1920 1247 1467 1780 2068 1493 155 2246 1760 
573 224 702 1386 1771 1597 866 1020 920 
1544 1309 2313 428 1353 1312 2166 2089 485 
1212 1753 1794 470 1418 709 2219 102 2643 
1096 2376 1596 1377 1296 1845 2312 1708 1200 
1592 1503 1315 2156 3012 2861 2202 1305 1631 
1832 26 1063 1352 1563 2420 2666 2129 3103 
986 1223 2265 3201 1944 1611 1420 2071 3246 
2900 3005 2696 2687 963 1122 1850 2932 1496 
1795 800 2215 1723 2002 1391 1908 1082 1769 
2139 1569 1484 643 108 736 1227 1064 335 
1649 1330 1582 1752 140 243 790 174 527 
913 1210 1207 79 2034 331 74 1030 1469 
1275 1613 1993 554 12 1026 1813 158 195 
1297 746 22 1089 1825 1943 878 2343 1081 
947 1755 2063 2369 1754 1983 2653 1985 1114 
2654 881 2274 1259 3136 1799 1289 2392 3758 
3529 3413 2488 1236 1637 1568 1612 2013 2560 
1949 3022 2739 3185 3857 1225 1037 1816 2778 
2249 1531 3093 2987 2302 651 1603 583 1385 
1798 2391 2591 3177 2928 318 2032 273 967 
1729 1527 2273 2190 1395 2057 2164 1595 386 
1577 68 506 2035 1130 1877 1814 199 1599 
1812 901 922 1007 854 621 1291 1201 1199 
562 1279 2360 1407 1220 157 232 2016 1522 
1552 77 1303 816 1019 1083 2509 704 690 
1508 1464 1455 2384 954 941 1351 1602 1176 
743 2280 2304 2817 1500 1669 2518 2440 2960 
2436 3215 1632 2961 569 1446 2754 2768 1487 
2555 2334 4154 2897 3726 267 2905 3045 1855 
2136 3753 2875 2517 2600 305 2398 2447 2383 
2341 1805 3068 242 2095 2400 2258 3023 1831 
1012 1432 950 1913 1556 1923 3431 2852 1843 
1329 1413 1653 631 593 1126 2373 482 2465 
2545 2798 655 1554 2484 1519 1618 2126 2795 
2828 888 1852 2053 264 770 2985 3168 1127 
2657 3339 1475 1951 1933 2152 1844 2221 2140 
2354 2177 2238 1615 3163 2572 3031 4070 2707 
3239 2426 3436 2544 3689 2656 3106 3755 3859 
3822 3389 2521 2915 2793 3101 2709 3595 4191 
2220 2324 3466 2999 2290 2579 4035 2751 1689 
2501 2583 2655 903 2197 2352 2404 1034 2235 
2345 2593 2814 2462 2311 1941 1851 2120 1514 
2306 2519 1991 1932 4268 4184 3843 4135 3396 
3095 2622 2294 2535 2972 3675 1106 1783 2395 
2941 2570 2826 3430 3457 2142 2619 3117 2497 
2546 3597 3256 2526 3070 2690 4001 3909 2455 
2588 2396 2424 3929 2618 3590 2067 3757 3980 
3218 2975 2635 1750 4105 2081 3420 3408 2731 
4227 2511 2955 2393 2844 3530 1673 2708 3762 
4264 2103 2794 2117 3805 3512 1520 1662 2799 
2064 1399 1121 521 1308 3517 3367 3463 3411 
2788 1718 2151 2589 2289 1627 3405 2299 2825 
2665 4360 2077 2980 2403 2695 3780 3028 3409 
3816 3491 2514 3316 3747 4865 3206 674 3226 
3615 3625 3291 3310 3364 3017 3536 1801 2096 
1451 2458 114 2451 2891 3475 871 2846 3374 
1998 497 969 2684 3861 2216 3363 3902 2698 
3856 2639 2749 2787 3449 3124 4272 3953 3208 
3653 4006 3655 3839 3730 3968 3129 3458 4229 
4060 4466 4073 4768 3834 4746 4569 5124 4777 
3935 4080 4447 4605 5181 5217 3710 3938 5363 
4087 4590 4026 4649 3039 3387 3216 2175 1849 
2598 3195 868 2336 1695 2971 2556 2069 2538 
2967 1917 4039 3944 3154 2495 2652 2112 4237 
3424 2567 3509 2811 4025 3684 3137 2882 2992 
3011 2791 3132 3122 2823 3116 4063 3663 3079 
2065 4831 3009 3555 3351 3465 3349 2303 5345 
4122 3372 4285 5194 3770 3741 2694 3867 4530 
4083 4496 3982 5384 4263 4638 4430 5935 3075 
3714 1650 5014 3913 4703 5663 2569 4782 4000 
5680 3479 3025 1948 2963 2877 1624 2412 2658 
2200 3893 2700 2680 2558 2093 2578 2647 1881 
2721 2847 3119 2483 4241 3778 2039 2119 2320 
2075 3224 2604 3358 2925 3524 2557 2831 2596 
2382 2254 2859 3016 2413 2594 1889 3634 2168 
2496 2783 2409 3506 3225 4540 741 3270 2494 
3508 3577 3965 4384 3729 4219 3564 3727 3994 
4243 3217 2711 4518 3147 2747 2506 4003 3611 
3230 3160 4355 3666 3414 3381 3032 5281 3732 
3807 4350 4257 3443 3311 3375 3872 1707 3069 
2310 3324 1659 3373 4013 3709 4389 4412 5700 
3335 2536 4372 2510 2212 2410 2481 3229 2611 
3336 3344 1574 3066 3231 3085 3607 2145 1800 
2493 3265 3462 3115 1786 2171 3100 2667 1746 
2994 2607 2468 1863 2473 3139 2917 1623 1675 
2372 2529 2466 2779 2091 1209 3280 2651 1808 
2061 953 2873 2564 2489 2260 3286 2362 1109 
765 2287 2624 3346 1912 1704 2017 3026 2198 
1113 1251 4021 3392 2115 1982 2033 2429 2640 
2128 1313 3219 2672 1382 3860 2461 2609 2927 
2912 3295 2770 3019 2800 2189 3084 3057 2688 
4095 4212 3550 4478 3957 2843 2998 1041 3777 
4376 3682 4454 4309 2453 2732 3459 3260 2933 
4828 3359 2059 2490 1710 2469 2552 3251 3254 
2762 4005 2836 1945 2363 2801 1356 2228 2620 
2881 3473 2018 2233 2761 899 2285 2399 2745 
2377 1658 1893 2576 1866 2723 2554 2421 2137 
2470 1110 2005 2098 1515 2243 2563 2710 1950 
1144 2351 2199 1836 1636 2240 1341 2205 1919 
1601 1860 2344 1589 1439 2361 1856 2158 2408 
1879 1565 1062 1128 1256 1759 1488 1417 2330 
1473 1773 1967 1777 1501 2284 768 1507 1183 
1558 3390 2054 2250 113 2431 2786 2107 3342 
2951 2437 3478 4382 2419 2896 2958 3362 3784 
3388 2837 563 1461 2613 3127 2251 1571 1587 
1610 2486 1884 3394 1959 3110 3939 1722 4046 
3065 2738 2990 3293 4002 4254 3048 3588 3309 
1239 2446 2181 2099 2561 2616 1878 3128 3151 
2899 1513 1179 2790 1892 990 1902 1784 2724 
2318 2307 2759 2209 1789 1495 1282 2898 2571 
2024 1988 1726 1742 719 1725 1764 1262 1392 
1196 1857 1763 1661 1622 1396 1502 1756 2507 
1712 2047 2319 2170 2252 2078 1847 2253 855 
1540 994 1820 1079 956 2448 1666 2632 2157 
1980 1975 1999 2276 2755 1566 3472 2664 2813 
2379 2866 3606 2456 2397 1411 2943 3297 2162 
2910 4055 3220 2365 3296 4448 2130 2184 3494 
2796 1249 3481 2860 1394 3829 1946 2719 3600 
2385 2691 1782 3446 3305 3393 2870 3184 3641 
3542 3257 3083 1703 3020 3169 3062 2744 3915 
2945 3157 2317 2143 2040 2141 1680 2314 3142 
2669 2851 1986 2865 788 1293 1921 824 1609 
1268 1504 1008 2375 2037 2012 1865 1324 796 
183 2084 1672 312 2203 751 2029 2009 1918 
1255 2599 93 1938 754 2223 2718 2471 1441 
1140 1105 1572 579 504 1263 683 1009 2333 
2742 718 1442 2030 594 2553 2525 1830 1745 
3593 1758 1737 1132 1978 3852 2342 2370 2964 
3282 3693 4078 4139 2842 2229 2406 3238 3323 
4298 3798 3570 4668 2753 3518 4707 3681 4276 
2758 2780 4004 2650 3662 3210 2748 3544 2974 
3189 3153 3599 3240 2807 2577 3501 2076 2977 
2686 3895 2965 2993 2006 1460 1361 2548 1018 
2756 3276 2610 2295 1370 2661 1076 2133 1545 
2204 2090 1102 3123 2701 2986 1518 1120 1960 
932 2124 2021 2270 2160 2281 3143 2508 599 
1343 1402 1049 1463 220 2348 2885 3200 1410 
2275 2374 2359 1415 2829 2713 3054 2841 2903 
226 2045 1702 2679 2031 1987 4385 2279 2901 
2163 2805 3452 2923 2908 4094 2568 3317 4205 
4909 1958 4837 3649 4403 3243 4159 5110 4872 
4810 3040 2257 3793 4592 5040 3855 4616 3162 
3546 3579 4341 3089 3087 3399 2924 2642 3406 
1803 3262 2242 3340 3444 3165 3094 1858 3209 
2052 2781 2821 3934 2983 3173 3037 3806 792 
1973 2516 3400 3678 2766 2833 3041 3489 2991 
2889 3197 2641 3811 1454 3266 3958 3255 4118 
2816 2634 2541 2765 2832 3190 2929 3646 3705 
2500 2725 1682 4395 3537 2660 3916 2904 4230 
4247 3051 4113 2952 4650 3376 2978 3686 4117 
2027 3476 2849 4065 3232 4346 2692 4314 3488 
4377 3432 4280 4020 4452 3851 3166 3993 5135 
4252 4711 3321 3988 4678 4867 4032 3585 2895 
3427 3661 2835 3540 2944 3514 2789 3815 3433 
2729 2144 3868 3398 4334 4126 3581 4158 3719 
4549 3304 4098 3038 2467 3442 2218 2720 3779 
2868 4693 2995 3619 4738 2947 4043 3904 3505 
5231 3810 5096 4520 3749 4119 3510 3526 2592 
1964 3002 4100 3704 2854 4348 4069 3307 2646 
4045 5537 3563 5226 4390 4882 3951 5009 5431 
5218 4482 3126 3368 5259 3369 2888 5150 5726 
5542 4138 4188 2543 4459 2950 2676 3322 2962 
3809 4164 2797 3288 3775 4635 4317 4082 2726 
2499 3551 4019 4995 3356 4583 2880 4115 3647 
2869 4176 3908 3614 2699 2463 2884 4381 3566 
4391 4345 2549 4571 4057 4392 2820 3186 4224 
4926 3327 4671 3967 4012 4573 3950 5460 4543 
3545 4699 1365 1743 2644 3138 3794 3329 2782 
3840 3975 4767 3451 3361 3773 4133 3223 3464 
4400 5539 1664 3183 3882 3308 4303 3347 4017 
4930 4600 3883 4179 3769 4484 5236 5804 4544 
4942 4718 4128 4853 3949 3668 4365 4602 4249 
4598 5691 5049 5760 4982 4740 6059 4682 5943 
3104 3830 2803 2838 4521 3598 2474 1509 4052 
4704 2804 2293 3574 4136 3767 2485 3733 3670 
3621 4143 4111 3191 3748 3141 4663 3029 2079 
5341 4527 4700 5446 5723 5163 3920 4187 5858 
5235 5128 3772 4202 5106 5206 5808 4292 4800 
4284 5043 6012 5498 4290 5846 5290 5513 5451 
4741 5514 5348 4737 4689 5105 5936 4719 5716 
5553 4567 6010 4357 4610 6068 4644 3628 3970 
2936 2186 2906 3407 2159 3796 3763 3657 5072 
3513 4413 3401 3983 3360 3942 3978 3820 2931 
3569 4408 2818 2871 3130 3385 3907 4407 3196 
2668 4437 2792 3202 4918 2282 4036 3207 3532 
4156 4050 3516 3337 4378 4029 4099 2638 5035 
4260 5840 3461 5317 3781 5065 3538 5069 4903 
4211 5412 3620 3828 5223 4461 4367 3672 5489 
4101 5915 4457 5423 4511 5705 5586 5188 4279 
5908 3559 3954 5665 5449 5322 5701 5710 5080 
5434 3905 2670 3899 1806 3113 3438 3754 2802 
3007 4195 4318 4121 3787 4007 3995 4037 2918 
1433 2981 2662 4125 3001 3760 2763 2919 3181 
2733 3283 3319 3182 3484 2562 2926 3144 2734 
3422 3014 3547 2637 2590 2730 3086 1042 1966 
3237 2689 3120 2939 2815 4038 4796 3553 3435 
4302 3053 3268 3203 4255 3826 4358 1965 3846 
3486 2450 3236 4102 3932 2386 4359 4446 3873 
3572 4147 4455 4085 4347 3454 4240 5478 5730 
5864 5484 5131 4196 3881 4823 3854 4051 3204 
2350 4248 4784 4975 5474 4363 3992 3470 3814 
4178 3917 4580 4182 4328 3680 4053 4468 4150 
2335 1833 3272 2430 3565 2988 4217 3504 2774 
3152 2757 2702 2425 3042 3645 3090 3211 3092 
3676 3354 1785 2092 1954 2834 2628 3507 2934 
2674 3355 3345 2937 730 3000 2913 2288 1608 
3044 2234 2239 2371 2187 2225 2625 2201 2498 
3437 3801 2231 2575 1640 3030 3081 3021 2268 
2301 2401 2316 2211 2693 3692 3172 3371 3586 
3188 3055 4107 3131 3948 2822 4320 3629 4539 
3548 4192 3161 3874 4924 3835 4870 3706 2715 
4728 4014 2954 4790 3515 3469 3273 4587 4679 
4220 5370 3635 3745 3750 4246 4559 4691 4802 
4443 4618 4419 4946 4374 4498 4089 3636 2769 
3402 4804 4064 4062 3386 1937 2966 3302 1416 
2819 3823 2685 2907 3365 1677 2041 2559 2573 
3076 3247 3242 2472 1423 1302 2026 2183 2608 
2433 1521 2191 2180 1178 2179 2827 2533 2224 
1740 2155 1793 1778 2675 3004 2269 1323 2308 
2146 2244 2390 2011 2416 2286 2712 2916 3326 
3836 2088 3330 4339 2949 2878 5028 2582 4283 
3650 2524 3632 2165 2007 3448 3764 3742 2337 
2968 3782 3626 4517 4722 4497 2169 3765 4742 
3289 4807 4183 4586 3328 4375 4851 4951 3962 
4194 4370 3617 4940 3685 3366 4155 3659 4507 
3999 4091 4922 3698 3613 2356 3838 3743 2442 
3977 4558 4696 3261 3074 2208 3292 3111 2522 
3034 4261 2717 3140 2735 3214 1774 1681 3370 
3989 2921 2043 2808 2195 3018 3056 3499 2584 
2935 3487 2840 3109 1956 3096 2630 2434 3331 
3664 1717 3601 1882 1285 2278 2601 3739 3179 
2714 3991 2855 1848 3080 1646 3974 3609 2046 
1644 2415 3603 3502 3604 4081 3567 4780 4287 
4417 4597 4436 5050 4727 3064 4884 4781 4306 
4745 4114 2505 4599 4512 3677 4450 4714 4632 
4170 4244 4608 3583 3511 5053 4854 4519 3667 
3410 3858 3652 3248 3627 3837 3707 4418 4473 
5993 4717 5725 3357 3450 3193 3622 2914 3495 
4566 3468 4142 4961 2349 2271 4058 3528 3350 
2305 4282 2973 1553 1989 3847 3047 3352 3198 
2445 3156 2728 3024 3061 3966 3170 2989 3500 
2683 2185 2839 3171 3380 3159 3786 3541 3112 
2858 2678 4134 2845 3312 3253 3440 4204 3674 
2806 4090 3263 3817 4343 3543 5027 3866 4323 
4226 3946 4842 4072 4920 3903 4239 3644 4816 
5658 4614 4685 4883 3900 4944 4876 4824 5487 
5007 4680 4289 2615 5006 3071 4789 3010 4630 
5524 4692 4901 4603 5637 3434 3910 3146 4251 
5222 3279 4999 4145 5786 5809 5310 5671 3679 
2760 3318 3334 4701 4152 5386 4655 5549 4662 
5881 3897 3721 4613 4379 4354 5066 4351 4584 
4955 3145 4490 3885 3278 4429 4793 3135 4508 
4242 4787 3480 3134 4157 3715 3660 4673 4396 
4522 3912 3249 3976 4410 4661 5172 4442 4485 
4387 4653 4404 4916 5476 5092 3700 4715 4783 