# vtk DataFile Version 4.2
Generated by LIGGGHTS
ASCII
DATASET POLYDATA
POINTS 6000 float
-0.0209011 -0.0397474 0.0182788 -0.0144102 -0.0421412 0.0193081 -0.0168896 -0.039116 0.0183001 
-0.00659659 -0.0411375 0.0192521 -0.0104232 -0.0422299 0.0187057 -0.00477551 -0.044741 0.0188705 
-0.00854762 -0.0377452 0.0183466 -0.00109599 -0.0431306 0.0184099 -0.00292502 -0.0395182 0.0188663 
0.00364857 -0.0447605 0.0178157 0.00883992 -0.0404813 0.0186393 0.00756357 -0.0443067 0.0185271 
0.0117215 -0.0434098 0.0184422 0.0152867 -0.0415778 0.0183195 0.0191437 -0.0405162 0.0183252 
0.0231985 -0.038438 0.0183161 -0.0333925 -0.0300593 0.0190421 -0.0263345 -0.0363903 0.0181609 
-0.0225217 -0.0349428 0.0186 -0.0255033 -0.0302159 0.018443 -0.0210467 -0.0312148 0.0184323 
-0.0141485 -0.0360435 0.0186044 -0.0182382 -0.0341173 0.0187763 -0.0137846 -0.0320527 0.0184132 
-0.0172437 -0.0300856 0.0189405 -0.00653858 -0.034351 0.0190667 -0.00668917 -0.0303628 0.0187643 
-0.0105475 -0.0293166 0.018628 -0.000262394 -0.036484 0.018526 0.00410717 -0.0296423 0.0192442 
0.0132229 -0.0347757 0.0190958 0.0183253 -0.0322385 0.0190702 0.0145633 -0.0310443 0.0184282 
0.0197526 -0.0363126 0.0183045 0.0224016 -0.0333285 0.018847 0.0234599 -0.0294612 0.0187551 
0.0286736 -0.0343654 0.0187706 0.0329612 -0.0306226 0.0190206 -0.037856 -0.0233352 0.0185401 
-0.0359752 -0.0269872 0.0185325 -0.0296509 -0.0286772 0.0185047 -0.0305435 -0.0246998 0.0179608 
-0.022558 -0.0275035 0.0180599 -0.0264678 -0.0263148 0.0179076 -0.0232417 -0.0235537 0.0180889 
-0.0272963 -0.022512 0.0189351 -0.0187687 -0.0263045 0.0186615 -0.0178333 -0.0216295 0.018611 
-0.014141 -0.0275674 0.0187708 -0.0106465 -0.0236352 0.0185017 -0.00773542 -0.026523 0.0192005 
-0.0066934 -0.0227097 0.0185796 0.000171482 -0.0288353 0.0185754 -0.00382896 -0.0274154 0.0186877 
-0.000938548 -0.0246441 0.0187834 0.0028473 -0.0258423 0.01938 -0.00301873 -0.0211414 0.0188425 
0.00099298 -0.0211257 0.018927 0.00730601 -0.0258372 0.0188455 0.0111069 -0.0284096 0.0190382 
0.00479681 -0.0224669 0.0184563 0.0113772 -0.0243998 0.0186784 0.00866167 -0.021438 0.0186464 
0.0151054 -0.0270806 0.0183918 0.0152245 -0.0230784 0.0187517 0.0195502 -0.0282253 0.0187159 
0.0185003 -0.0207797 0.0186033 0.020524 -0.0242859 0.0184432 0.0245405 -0.0242068 0.0187908 
0.0312771 -0.0269549 0.0193833 0.0314236 -0.0229621 0.0188045 0.0361742 -0.0218875 0.0181634 
0.0367566 -0.0259258 0.0187172 -0.0407734 -0.0189706 0.0182859 -0.0422641 -0.0150941 0.0189242 
-0.0373325 -0.014941 0.0180566 -0.0337886 -0.019295 0.0183559 -0.033288 -0.0153013 0.0183588 
-0.0297336 -0.0193573 0.018561 -0.0252892 -0.0190734 0.0181926 -0.0278695 -0.0137045 0.0187005 
-0.0240963 -0.0152646 0.018588 -0.0214863 -0.0200399 0.0189854 -0.0164881 -0.0177839 0.0187084 
-0.020202 -0.0162339 0.0187521 -0.0170207 -0.0138278 0.0184513 -0.0129476 -0.0159321 0.0184607 
-0.0114328 -0.0196967 0.0184253 -0.00879692 -0.0167023 0.0180541 -0.0102733 -0.0129537 0.0183918 
-0.0054232 -0.0128539 0.0179004 0.00111884 -0.0170963 0.0187692 -0.00201245 -0.0145367 0.0192057 
0.00403629 -0.014428 0.0179844 0.0053558 -0.0185359 0.0190609 0.00794704 -0.0153885 0.018327 
0.0118057 -0.0162235 0.0192485 0.0124644 -0.0201554 0.0188079 0.0156229 -0.0176437 0.0190232 
0.0187277 -0.0137874 0.0189366 0.0147777 -0.0136419 0.0183044 0.0206124 -0.0173829 0.0188256 
0.0245663 -0.0169767 0.0183002 0.0264973 -0.0206973 0.0187313 0.028408 -0.0159562 0.0176732 
0.0227545 -0.013391 0.0185322 0.0329724 -0.0191784 0.0184624 0.0346602 -0.0140416 0.0183861 
0.0368758 -0.0178894 0.0182541 0.0399823 -0.0205072 0.0179628 0.0387644 -0.0143642 0.0183809 
0.042893 -0.0134448 0.0178872 -0.0395905 -0.0115753 0.0183011 -0.0435689 -0.0111451 0.0188749 
-0.0379599 -0.0075516 0.0182938 -0.0444309 -0.00690753 0.0184123 -0.0409802 -0.00495503 0.0178448 
-0.0339448 -0.0109995 0.0187078 -0.0340782 -0.00657254 0.0183594 -0.030185 -0.00721674 0.0190809 
-0.0262438 -0.00790012 0.018463 -0.0223 -0.00854333 0.0181041 -0.0211355 -0.0124187 0.0179919 
-0.0180418 -0.00996544 0.0186687 -0.0153336 -0.00702877 0.0189133 -0.0191429 -0.00604744 0.0181098 
-0.00799567 -0.00965579 0.0183084 -0.0113948 -0.00750528 0.018407 -0.00790574 -0.00554693 0.0181281 
-0.00409785 -0.00889211 0.0177156 0.000230158 -0.0107755 0.0179509 -0.000801582 -0.00661282 0.0176918 
0.00364048 -0.0085325 0.0182787 0.00708856 -0.0106222 0.0182755 0.00949419 -0.00734084 0.018574 
0.0106432 -0.012427 0.0187489 0.00604475 -0.00533993 0.0180553 0.0171308 -0.0100959 0.0184773 
0.0131789 -0.00928366 0.0188146 0.0197849 -0.00685164 0.0186538 0.0266947 -0.0124848 0.0188303 
0.0242773 -0.00908042 0.0182923 0.0268646 -0.00600556 0.0188209 0.0306658 -0.0125123 0.0181722 
0.0327266 -0.00919727 0.0192297 0.036372 -0.0104398 0.017984 0.0308446 -0.00567157 0.0184692 
0.0350896 -0.00577744 0.0186074 0.0402268 -0.0106434 0.0190529 0.0438528 -0.00940146 0.0177925 
0.0388492 -0.00689306 0.0178144 -0.0412714 -0.00103484 0.0187512 -0.0375201 -0.00294972 0.0181355 
-0.0448967 -0.00278204 0.0189821 -0.0334514 2.76801e-05 0.0189422 -0.030208 -0.00280182 0.0190709 
-0.0296378 0.00141735 0.0188479 -0.0227861 -0.0037033 0.0191367 -0.0261204 -0.00051515 0.0189685 
-0.0222416 0.000495283 0.0189278 -0.0263018 0.00362362 0.0189891 -0.0192352 -0.00204438 0.0180528 
-0.0151426 -0.00303795 0.0185469 -0.0165398 0.000902038 0.0176742 -0.0125254 -5.63816e-05 0.0180144 
-0.00596636 -0.00114694 0.0182536 -0.00676912 0.00281515 0.0183158 -0.0108381 0.00356528 0.0183963 
-0.00236331 -0.0029612 0.0182246 0.00131648 -0.00117485 0.0184285 -0.00246749 0.00105946 0.0183272 
0.00112993 0.00283525 0.0183994 0.00533166 -0.00139285 0.0177276 0.00903678 -0.00279254 0.0190434 
0.00863637 0.00103793 0.0179012 0.00508686 0.00231576 0.0192997 0.0131224 -0.00401784 0.0184062 
0.0125292 -2.89328e-05 0.0181746 0.0170252 -0.00275095 0.0190289 0.0151972 0.00309962 0.017684 
0.0252574 -0.00219061 0.0184216 0.0213248 -0.00301334 0.0184818 0.0280082 0.00230089 0.0187371 
0.0228092 0.00216486 0.01843 0.0293689 -0.0017371 0.0182631 0.0334663 -0.00215635 0.017737 
0.036408 0.00209452 0.0187661 0.0374811 -0.00187526 0.0185263 0.0412916 -0.00361173 0.0184818 
0.0449016 -0.00162433 0.0184104 0.0410104 0.000642137 0.0186404 -0.0408563 0.00621526 0.0190332 
-0.0383565 0.00926744 0.0183757 -0.0446804 0.00506374 0.0193847 -0.0434621 0.0110768 0.018879 
-0.0344672 0.00831206 0.0186619 -0.0312876 0.0107125 0.0181694 -0.032587 0.00470719 0.0189489 
-0.0294837 0.00702737 0.0178932 -0.0247947 0.00746286 0.019332 -0.0272886 0.0104196 0.0182544 
-0.0229616 0.0110712 0.0191756 -0.0184261 0.00563427 0.0182345 -0.0147351 0.00411057 0.0192437 
-0.015757 0.00982992 0.0183592 -0.0124775 0.00721944 0.0181046 -0.00817265 0.00657574 0.0184226 
-0.0114439 0.011054 0.0186432 -0.00298219 0.00508256 0.0181312 0.00019621 0.00747405 0.0176924 
-0.00407584 0.00892084 0.0186406 0.00316047 0.0109824 0.0181614 0.00407411 0.00587321 0.0177051 
0.00794192 0.00504188 0.0185477 0.00654327 0.00884368 0.0191281 0.0109592 0.0101392 0.0185278 
0.0181346 0.00865719 0.0174748 0.0139798 0.00735021 0.0190041 0.0189332 0.00427394 0.018541 
0.0239399 0.00792431 0.0189545 0.0275565 0.00637607 0.0180736 0.0225124 0.0117542 0.0186236 
0.0334986 0.00656031 0.0175505 0.0323716 0.0106514 0.0176805 0.0375804 0.00603513 0.0191539 
0.044122 0.00837163 0.0189227 0.0404062 0.0113608 0.0177131 -0.041833 0.0163939 0.0189148 
-0.0397602 0.0129456 0.0191172 -0.0337482 0.0142045 0.0185394 -0.0297541 0.0148237 0.0183888 
-0.0244233 0.0179533 0.0183586 -0.0256656 0.014138 0.0182253 -0.0279902 0.0198979 0.0185581 
-0.0188634 0.0124846 0.0183234 -0.0140829 0.0140573 0.0183042 -0.0194198 0.0194451 0.0180993 
-0.0150303 0.020136 0.0181566 -0.0097462 0.0146699 0.0181443 -0.00644832 0.0170911 0.0181544 
-0.0115906 0.018174 0.0188203 -0.00371342 0.0135034 0.0184829 -0.00204778 0.0173434 0.0182183 
0.000823955 0.0145397 0.0184452 0.00159887 0.0189049 0.0189191 0.00785756 0.0128297 0.0185959 
0.00517938 0.0158661 0.0185396 0.0107645 0.0159296 0.0182566 0.0119057 0.0200603 0.0184947 
0.0139117 0.0132727 0.0186067 0.0157542 0.0191004 0.0175001 0.0264126 0.0139469 0.018017 
0.0228296 0.0157996 0.0182373 0.0257761 0.018964 0.0176204 0.0208362 0.0194917 0.01791 
0.036399 0.0127153 0.0177938 0.0332166 0.0154927 0.0179659 0.0324827 0.019397 0.0188623 
0.0372263 0.0166949 0.0178173 0.041917 0.016103 0.0183673 0.0402478 0.0199325 0.018204 
-0.0383192 0.0234056 0.0188714 -0.0349328 0.0211422 0.0185099 -0.0311781 0.0223433 0.0192555 
-0.0319474 0.0262767 0.0188149 -0.0361394 0.0267961 0.0185532 -0.024217 0.0219678 0.0183429 
-0.0276867 0.0241361 0.018429 -0.0241492 0.0259631 0.0189677 -0.0276295 0.0281562 0.0184145 
-0.0204362 0.0231743 0.019316 -0.0166498 0.0243846 0.0188521 -0.0135581 0.0275967 0.0185423 
-0.0127078 0.0235106 0.0191132 -0.00929681 0.025776 0.0188365 -0.00902003 0.0212443 0.0180231 
-0.00552884 0.0244353 0.0191823 -0.00606224 0.0283049 0.0181444 -0.00126043 0.0217129 0.0175147 
-0.00209116 0.0261286 0.0177935 0.00864481 0.0229614 0.0189891 0.00504965 0.0277801 0.01735 
0.0107829 0.0265701 0.0191249 0.0147132 0.0231189 0.0177581 0.018922 0.0236004 0.0179114 
0.0182161 0.0275441 0.0177441 0.0281851 0.0246333 0.017275 0.0234796 0.0226749 0.0175363 
0.0219475 0.0264014 0.0186384 0.0257411 0.0280492 0.0176338 0.0363535 0.0208343 0.0177635 
0.0367358 0.0248835 0.0172365 0.0334188 0.0273613 0.0189077 -0.0335645 0.0299294 0.018483 
-0.030778 0.0328035 0.0187146 -0.0268394 0.0320784 0.018298 -0.021707 0.0290872 0.0184082 
-0.0261194 0.0366478 0.0182405 -0.0221186 0.0366075 0.0176939 -0.0207151 0.0329376 0.0188915 
-0.0169336 0.0300522 0.0186766 -0.0137029 0.0329886 0.0183679 -0.00812499 0.0333259 0.0181931 
-0.0102695 0.0299328 0.018546 -0.0119413 0.0367213 0.0183854 -0.00413006 0.0351228 0.0179675 
-6.76429e-05 0.0329389 0.0175535 0.00384221 0.0318631 0.0179305 0.00794708 0.0334837 0.017217 
0.0108329 0.030741 0.0189394 0.0119645 0.0345299 0.0179598 0.0201246 0.031284 0.0175479 
[...]
POINT_DATA 6000
FIELD FieldData 7
id 1 6000 int
292 2479 1691 720 281 3418 1883 2920 2122 
4124 4074 4590 4362 49 531 314 316 1546 
270 62 1307 3269 1741 1903 468 870 1619 
1652 502 64 3008 247 118 268 364 350 
606 1354 466 842 574 552 123 3471 244 
2444 38 519 622 415 51 365 843 204 
329 46 727 1406 251 402 640 732 223 
165 214 274 614 440 781 1765 1065 34 
512 1074 170 88 48 762 810 63 517 
1139 1 825 2537 1011 1141 588 1301 789 
1542 1091 28 1440 109 455 1038 392 282 
864 558 858 308 432 401 211 1930 1045 
1372 609 1397 1228 1269 1401 330 1713 2663 
499 1072 646 822 221 145 812 444 1135 
333 507 1219 377 235 1861 2 841 1232 
616 987 580 1257 384 383 1046 173 400 
1259 408 338 1632 938 664 1576 2326 397 
2636 75 713 678 404 171 1561 1491 1157 
1436 380 673 1171 98 1101 410 758 1206 
942 217 301 565 354 76 1214 545 390 
245 1471 1182 1272 1446 1829 341 2704 997 
44 208 984 484 916 1525 2452 1243 434 
906 840 136 590 1108 1369 1560 105 368 
1066 508 286 177 352 659 523 154 164 
50 124 1738 1792 207 666 2961 3595 2659 
2331 1855 1424 857 748 740 1095 1016 1534 
153 388 538 1070 667 513 122 130 1465 
890 867 275 57 2879 227 557 325 672 
1693 2629 874 1958 742 2324 658 2290 1711 
2022 483 887 1215 849 1267 1642 1246 2383 
851 1180 859 266 348 937 370 603 619 
490 2574 298 1969 2528 1536 61 343 2511 
4105 636 2633 2844 3432 583 687 2398 1724 
305 811 418 795 1864 461 385 40 756 
279 853 2764 127 674 530 828 862 1195 
160 970 1564 132 1164 601 86 910 940 
524 417 1069 288 572 1807 1162 620 373 
229 1325 175 117 3856 2586 2513 3941 3953 
2380 3363 3458 135 3453 542 4232 4073 3968 
3839 3208 3827 3834 3382 4777 2001 4768 2775 
5760 4718 3935 4569 5217 4122 710 3098 5363 
4602 4202 5124 5049 471 2418 20 3416 4087 
4026 4649 525 935 435 252 2206 902 1053 
429 1371 537 234 2101 1846 71 1625 1277 
2684 1393 2192 589 1031 1890 139 918 2809 
3724 969 2457 2867 2019 2394 1668 735 2347 
1787 2850 3639 660 652 835 973 3492 339 
3397 2810 3298 215 3938 662 248 708 2460 
5194 4746 80 291 1148 2740 4080 3534 1145 
35 694 706 988 917 528 1318 73 1123 
3 985 1333 2329 1962 257 396 2339 1152 
1088 1060 30 1449 773 452 1706 1093 1715 
767 1456 1376 1181 358 2894 632 1055 2677 
493 1735 684 979 626 670 791 69 1280 
804 2378 3137 2681 2856 1379 568 685 382 
2074 802 2627 1775 2323 600 176 230 411 
772 2547 992 2055 2752 85 852 284 201 
2487 94 801 1189 515 522 111 909 296 
894 371 1092 2580 654 91 437 178 1802 
1472 216 1853 1184 1512 18 747 313 81 
1539 1914 2612 2148 2261 1955 302 576 1078 
1311 421 638 32 869 500 1197 66 427 
948 1336 649 755 850 570 172 1044 498 
297 265 14 179 897 320 2213 152 1191 
561 1231 547 425 276 2502 1290 1203 784 
351 955 1583 363 2648 2085 304 1166 848 
398 219 449 460 1841 1897 1781 1338 156 
921 677 1061 492 962 968 1555 827 1253 
29 630 645 1194 83 581 261 1403 548 
520 324 964 210 629 734 1550 1466 737 
726 582 1732 1584 209 1891 1828 1767 1600 
1607 1015 886 374 1221 403 1129 1874 628 
1698 1885 529 1039 1419 278 2094 1345 1588 
1628 550 976 1523 1071 1776 1163 1445 1790 
7 441 479 2109 128 926 349 991 1090 
1342 752 1452 1085 307 1097 393 989 2439 
761 749 112 148 839 911 1067 1761 1381 
782 786 464 185 1270 919 725 337 1138 
161 1151 780 1274 1057 2102 256 138 818 
949 445 675 602 405 821 277 1281 97 
669 379 238 8 1032 1548 1404 70 395 
682 1362 1766 1284 1832 1200 1027 19 981 
698 1322 2236 1886 1568 1730 1352 1631 1670 
881 3045 1236 78 241 459 1305 1563 26 
2560 1637 2013 2863 107 2292 608 647 1115 
1934 691 2423 1240 549 474 1022 957 1562 
56 1254 707 2023 829 1172 883 759 168 
263 808 103 1134 262 1626 1156 793 1252 
1430 327 1131 1412 184 1684 555 650 724 
974 803 1824 1058 182 830 975 779 633 
188 469 1036 995 222 202 4 344 951 
785 805 1321 1205 925 213 783 423 598 
480 59 1804 198 936 47 814 2274 641 
1511 463 627 1056 2280 569 2334 149 2654 
2897 1910 2754 2217 4837 2392 4139 2517 2136 
3753 2905 2857 2768 1612 3758 1901 3681 496 
2263 2113 2366 1421 2883 1757 1768 3110 3353 
1570 1458 885 2104 1334 206 2459 2389 45 
635 96 1358 671 1727 2060 1444 1590 1175 
366 1216 1234 982 1002 450 1266 731 591 
578 564 764 605 451 269 714 1634 836 
532 359 104 1094 689 873 1169 419 253 
882 340 381 613 82 323 1438 653 541 
1862 1159 2776 438 1532 1797 1029 271 596 
1671 2426 2915 1192 2911 2793 1819 4280 2534 
4205 2656 575 2555 551 1043 1526 3243 4909 
4452 4191 1687 267 4810 4032 181 2600 3040 
3793 4159 4592 1426 3201 1606 1944 1611 1462 
1859 2264 2687 1304 236 17 162 2778 1709 
1300 353 3600 900 1288 865 166 1340 721 
250 1223 1605 442 1645 306 43 196 1480 
715 472 310 1643 798 879 1287 634 280 
587 892 915 534 1048 1185 1271 553 134 
53 1888 501 914 1339 665 1075 142 1117 
1516 1332 2551 2544 23 2132 362 3689 1821 
1638 1414 2631 3909 1107 3218 453 4154 1487 
4711 618 2521 4377 2436 2100 3106 3436 2635 
3993 3851 2999 4459 5495 2955 5541 2579 2709 
4035 3101 1961 3585 3988 893 1614 2328 1667 
1887 2071 680 92 3662 1648 1177 656 701 
1400 896 1218 1528 1831 2095 2167 311 559 
27 1385 1527 514 1556 2262 328 1378 1398 
1654 907 231 347 1099 319 1747 560 1510 
1581 1103 439 933 2241 1481 1497 688 200 
1957 295 3099 2411 959 1896 1118 592 1429 
2996 2475 9 476 2364 2588 2523 2705 433 
2220 2940 2081 4020 1168 3389 3822 4227 2182 
3466 399 1907 3245 2393 5726 2731 5664 3166 
3017 797 4188 2249 1225 3068 146 129 100 
2266 242 2341 2400 2852 1913 1689 1320 420 
456 299 121 676 2197 1188 2235 663 1490 
1817 2519 431 1186 1679 194 1538 1000 766 
681 729 826 1226 2151 3396 1388 1005 1749 
983 1010 2830 2325 2315 1579 3625 611 2515 
806 1077 1390 413 1762 3615 189 3058 1970 
1306 1621 446 60 1317 3126 1750 3408 2111 
2543 993 1805 2454 13 927 133 540 1024 
1034 367 863 895 637 31 258 1211 1146 
357 2116 254 4268 1906 2161 1520 819 1514 
1028 809 2256 387 3762 546 1662 1047 2283 
2589 1136 1818 961 2403 2289 15 2077 3028 
2514 3052 3226 3747 3409 4865 2549 1017 2737 
3364 101 114 2749 3902 3475 4303 2216 3374 
3773 4133 2698 3730 3655 5236 3124 3449 3653 
4272 4544 4017 3464 3347 4466 5406 4556 4942 
3668 4447 4229 5808 3949 4006 5282 4853 3723 
4740 4365 4434 5691 5106 4371 5504 4174 5645 
4388 5224 5557 5265 3923 4982 3933 5684 3455 
4088 3710 126 738 3387 679 3313 1733 998 
1360 1204 315 1990 2353 978 2617 2451 2891 
2846 2605 1705 3861 3129 3132 2495 3767 3975 
2811 4033 2639 2049 2992 3227 2787 2303 3769 
5833 3009 3361 4469 3315 4605 2969 3741 6045 
4700 4187 3699 5163 4846 4985 5846 3841 4598 
3961 4930 5043 4638 5384 303 5181 774 3059 
473 3576 143 3549 2626 2008 3702 1630 4353 
3032 3212 3984 3421 3006 2746 2569 2020 1261 
1294 1827 971 1739 1193 1922 294 960 543 
1926 1492 1647 2538 2277 2346 584 2070 1971 
1479 1245 1869 700 2435 1748 1695 1676 1899 
2614 3011 4663 2772 2596 1929 3439 3122 2065 
2791 2848 2882 4063 3016 3555 1788 4831 3465 
5345 3663 3770 5858 3508 2773 3964 945 3077 
2997 3982 4530 4263 4430 3729 4285 3379 2232 
2785 3732 2930 4083 3688 3618 2147 1915 2542 
2585 477 2602 2135 876 4405 3414 3443 1707 
2108 2358 1939 1837 3102 2310 2222 3373 3335 
3013 2623 1013 2536 1154 336 2327 2149 1482 
3520 1574 1716 1809 1366 711 1383 2000 2036 
1947 965 1160 2237 2093 300 1086 2038 1004 
2003 1839 2248 1873 1238 1283 448 778 1994 
929 6 1931 2214 1963 753 1811 1678 1483 
2291 1699 1594 3073 3079 1111 1842 3105 2123 
2247 3493 2741 2125 2892 1408 3577 1517 3003 
696 1198 860 3591 2449 416 3213 1298 3147 
509 861 3027 3914 577 1213 2322 1928 3033 
2953 2703 1968 2550 1585 1633 2438 1867 1909 
2912 2531 309 1905 1331 2245 2603 1437 3957 
3192 1751 2998 1347 2843 426 2227 2114 3459 
2453 2732 639 2173 2477 1021 930 2491 657 
2297 2387 3229 2611 3251 1810 2340 2428 2127 
2877 3231 2233 3473 716 2028 1244 1235 1911 
1387 1409 1586 2272 838 1927 1368 25 648 
167 193 1375 1936 1537 898 2086 2259 607 
1001 526 1003 2298 1981 1435 566 1823 1155 
1894 116 1979 1580 977 2058 212 712 125 
11 847 999 458 1170 733 1720 150 1425 
1405 1292 169 1651 1629 187 2532 820 2587 
604 102 723 1838 1592 612 1315 1434 1503 
2503 1871 2480 904 1063 2959 2156 2896 3103 
3297 1249 3136 1949 2420 1098 2129 1721 2130 
986 1474 3185 2666 2510 2338 1770 2097 2410 
2432 3066 4046 3939 2990 2469 2738 2363 1710 
2512 4002 1641 2478 1694 1953 2062 1945 1559 
2050 1356 2181 1616 1734 1258 369 1161 1068 
486 692 1273 1876 505 972 1551 944 1276 
535 2056 2083 891 623 1476 95 1337 533 
1665 1380 1319 436 1974 1549 831 750 65 
1208 1714 345 1453 931 285 1683 686 760 
1286 346 908 141 699 617 744 290 1233 
1997 1217 703 33 447 775 1224 875 1443 
2219 2051 787 24 980 1114 3413 39 2488 
1289 1596 1708 2343 3012 1754 1374 2861 4668 
3529 1799 2229 2202 3323 2842 2875 3022 2739 
3726 2257 3857 4114 2650 2059 1505 1722 2490 
3588 3446 2870 3641 3184 1782 3685 3005 2015 
2606 1872 2105 2099 3065 1448 1703 2265 1450 
1348 1620 1051 1124 833 771 1202 1578 815 
1357 769 1422 1494 1023 283 1524 1573 163 
465 376 695 326 610 322 877 1310 487 
37 488 391 106 1054 1143 1165 1459 41 
372 120 1229 585 1073 332 443 180 489 
422 1050 834 1499 99 1854 1500 1100 1187 
2384 1314 2063 2518 2960 4094 2653 2304 3452 
3215 4239 2163 4403 4883 3900 5110 4685 3649 
5487 2753 2406 4298 4857 5007 4876 5040 3010 
3855 5524 5050 3071 3677 4450 4306 4004 4789 
3305 2900 2118 2385 2974 3544 3393 952 1959 
1052 2691 963 2356 3020 3246 3915 1420 567 
1850 1598 2696 1723 3177 800 2928 2273 1158 
2296 651 1427 1898 273 430 318 1432 697 
845 144 360 1700 1359 763 705 1389 2484 
110 1316 147 1530 1149 1237 342 615 2441 
1106 2153 191 2048 2862 889 1119 3163 2177 
799 233 1933 1327 4070 3755 2354 1464 2027 
2238 2849 1615 2440 4252 4065 2805 4932 4346 
2692 2923 2568 3232 5090 4872 5135 3321 4901 
5991 4948 3317 5084 4842 5006 5566 5781 5583 
4678 5560 4616 5200 4714 4781 5422 4885 4867 
3093 3210 3546 3189 55 1037 3089 2577 1816 
2748 2686 3162 3406 1798 2391 1531 2807 2987 
2591 2924 3209 2781 3262 67 2190 516 950 
2032 3094 1843 1395 482 2821 2373 1329 2073 
539 1126 21 1167 1653 518 3095 655 2144 
1719 1260 2941 1173 2497 2294 1904 3430 3929 
2210 2396 2619 2424 2526 3256 2455 2572 2546 
2690 2221 2707 3757 2067 3563 4650 2646 3476 
2978 4882 4438 4390 3859 2530 2888 2975 3488 
5259 4197 5155 5764 3530 5577 5815 4536 4667 
4815 6006 2950 4138 4258 2258 2302 3087 2655 
3023 1923 2501 2642 2583 2462 2789 3399 3815 
3427 3431 2345 4184 3868 2311 2545 1673 1932 
2814 2404 924 903 2622 1916 1991 2120 3581 
4135 1941 2117 2972 2142 2527 2395 1299 1718 
2980 3816 3206 2695 4001 4348 3597 3780 3510 
4100 3590 536 3310 4045 4543 4606 4012 4671 
3420 3082 3368 4482 5226 3545 2618 3980 5150 
4699 3996 3369 4791 3552 5542 2751 2895 2944 
2593 3322 412 478 2352 3107 2676 3514 2708 
3809 1791 3463 1851 4264 2103 2962 2794 4158 
4995 2799 1399 3367 3517 3405 2064 2825 1535 
521 4360 2499 3356 1308 2884 2788 1627 3491 
2665 4391 2869 4176 3647 4381 2699 4057 4392 
4345 3908 3967 3316 4571 3186 3291 4573 3536 
3327 871 1998 497 4400 6058 3794 3308 5178 
2782 3329 1743 4756 3844 3223 3882 5515 5539 
4683 5804 5409 3947 4562 5026 4128 4484 3869 
5695 4086 4970 4427 4060 4709 5706 3825 3521 
3892 5929 4600 5536 4249 4892 5358 5298 4267 
5500 5402 5372 2427 4284 5297 6037 5346 6012 
5097 5420 5134 3216 6059 4682 3714 1451 1801 
2967 2644 2971 2134 3509 2112 2096 3944 4143 
3451 2458 4704 3141 4111 3424 3733 5048 5522 
2485 1806 4734 3412 5389 3883 4179 1664 3920 
5219 4167 5421 4847 5964 5673 5483 4747 3804 
4956 4131 6007 3738 6001 3578 4140 5909 5290 
4304 4646 3791 5521 6043 5913 4290 4712 5663 
3913 5451 5105 5935 5498 4888 5705 4689 5261 
5304 3075 3039 4703 1650 5014 5281 4741 5348 
5586 1659 4000 3324 3479 4782 4357 3954 4610 
2175 2483 2069 42 2336 1924 1840 2647 2556 
2200 3154 1849 3195 4237 1367 2567 2721 2309 
2652 4052 3945 3670 1870 2823 3708 1498 3684 
2859 4025 2831 3349 3116 4890 3337 3748 3029 
2079 4989 3351 3372 5723 3867 4029 4527 5840 
3772 3516 5235 2694 4874 4518 3611 5205 4292 
4367 4003 5513 3230 4496 3666 3311 190 4257 
4355 5412 4457 5223 3828 4211 3160 3872 4511 
3807 5716 5915 3375 4095 3454 4935 4013 3709 
5680 4389 5423 5700 5665 4567 5478 3069 4412 
4309 2658 1624 2481 2412 2906 2558 3025 2552 
481 2716 2680 2578 2700 3893 2994 1881 3265 
3358 1447 2847 2119 3778 3983 1675 2468 1623 
2557 2171 2075 625 2039 1772 2332 2925 2818 
2320 2604 1880 2668 4918 2409 2254 2382 3634 
3191 741 1889 3280 2414 2783 2494 2010 4384 
3965 2682 3506 3564 4540 1660 3026 3727 1995 
1639 4219 2747 4260 4243 3217 3392 3860 2198 
3580 2080 2640 2506 2711 3219 2128 4350 3035 
1382 3381 1686 3295 3084 2800 2189 3550 4212 
3057 3019 2770 4478 3682 4828 3777 3362 4454 
4376 1041 5730 3478 3359 3260 4240 4784 4192 
4924 2613 1461 3085 3254 2212 2836 3336 2335 
2145 2493 3905 4005 3607 1746 4125 3100 2018 
4374 2228 3272 3119 2936 3462 2801 1786 1996 
2106 2745 2417 1104 2372 1984 3139 2321 899 
1489 1133 1696 1604 2196 2482 1384 2743 1486 
2407 2504 2540 1834 1080 2207 2176 2082 1326 
1657 1900 1575 1543 1635 2194 1940 1153 454 
1701 2496 2948 1685 1935 884 1035 2230 1137 
1692 1895 1697 228 642 2174 1655 1688 2025 
2355 1506 113 1972 2376 1845 2982 2054 1296 
3342 2250 2767 2431 2688 2162 3220 4382 2107 
2419 2337 3784 3388 2943 4539 3548 2822 3161 
2251 3494 2860 563 2837 3829 2750 3782 1571 
2184 3048 4254 3128 2881 3745 3617 3293 4053 
3636 4178 2670 2620 1239 4498 1658 3635 2761 
3309 4804 1893 2561 2724 586 1147 2616 491 
1878 2966 2899 2226 1335 84 595 192 1822 
693 36 1116 495 624 1355 1468 1125 378 
813 1264 1485 240 260 237 317 406 1278 
1190 856 119 1084 777 475 272 1059 407 
1242 1312 428 293 389 205 89 939 58 
947 1377 255 1230 2643 1096 158 1081 2369 
2958 2813 2910 2312 1411 3852 1978 2379 3798 
4055 3296 4448 2365 4078 4722 2780 4276 2505 
3238 4745 4707 3481 2719 1946 2796 1394 2954 
2758 2968 4512 3469 4940 3838 4155 3659 3992 
4559 4246 4691 4946 2744 3257 2446 4089 4528 
3613 3157 2945 4064 3083 1122 2317 3062 2932 
1892 2865 2002 722 1795 503 1250 1496 1942 
1082 1728 1908 462 807 137 225 1040 1150 
556 832 355 457 115 1796 946 16 544 
90 880 197 668 928 846 409 776 334 
186 1033 289 510 52 1455 1669 1351 1813 
2817 1825 941 226 1442 1983 743 1985 2964 
3282 4081 3570 3518 3064 4727 4597 5968 3328 
4515 5070 4458 4630 4517 4679 4807 4370 4375 
5315 3962 4632 4170 3542 3366 3153 3583 4608 
4507 5053 4854 4658 3698 3837 2977 2965 4091 
3999 3652 4731 3707 3627 3858 3240 87 2442 
3169 3248 2006 3276 2610 2141 2993 1603 2076 
246 1577 1391 506 2756 1729 2465 1835 1541 
1952 923 1554 817 159 386 922 2795 259 
1478 1014 1567 1328 414 901 888 2126 1852 
1265 1519 770 823 1475 1951 954 1303 3916 
1868 4395 1844 3239 3031 5476 4343 2903 4920 
4913 4269 2908 4314 4895 3903 4816 4824 3644 
4680 5300 3503 2615 5488 4702 4944 4599 5251 
4692 4244 4851 5380 5806 3579 3511 4519 3667 
3410 3434 3599 4418 4999 4717 4907 3279 3910 
1803 3501 2983 1012 2052 3165 3806 5386 3450 
2760 3895 3934 3173 1858 3400 3041 593 4613 
3037 2766 4351 3334 4549 2306 792 631 2985 
2798 1973 2641 2218 3489 1783 2826 3070 2828 
2570 4043 1127 3117 2500 3526 2854 5172 2904 
2140 4964 2952 3704 3686 4715 2893 2957 4387 
4916 4783 5537 5600 5633 5270 5176 5658 4234 
5083 5952 5572 4072 5678 5503 5863 5162 5787 
5465 5649 5075 5652 5878 5074 4531 5143 2447 
2242 4341 4603 4555 3444 3340 3540 3661 2835 
3433 4526 2729 3398 4334 5185 3304 4453 4293 
5575 4698 4190 3038 3675 4126 3843 3779 2868 
2467 4738 3442 4098 3904 3614 2535 3002 2720 
5231 4520 3584 3505 4953 3810 4069 2592 5431 
5454 4181 2946 2820 1964 5519 4335 3951 6025 
5981 5103 4652 4506 4653 5272 5218 5009 5989 
4881 4477 4990 5174 5285 4619 4141 4470 5892 
4615 5183 5934 5574 5831 5749 3775 4352 2797 
3719 4933 3512 4635 4965 4748 3805 4082 4164 
3288 4583 3411 4108 3290 3919 4664 4019 1121 
4115 2299 3551 4690 5982 5180 2193 5419 2726 
3651 4245 2463 3963 4926 3665 5133 5184 5742 
3566 5417 3889 4705 4850 3848 4591 3950 4224 
5512 5367 4480 4513 4180 5896 5161 5460 5821 
1365 4361 3138 4022 4647 4541 5316 3840 3671 
4409 5368 4464 2520 5202 4582 4153 4103 5828 
5314 3531 4321 3285 5794 4761 5424 3725 5732 
4919 5073 4752 5055 5302 5875 5052 5739 4209 
4762 4373 5318 6027 3922 4106 5529 5260 5573 
3586 6053 5229 5059 5227 4719 5943 4737 5759 
2598 4039 5455 6057 4331 4440 2293 3283 5208 
3088 5058 2919 4758 4500 5927 5736 5938 5712 
5256 5839 4364 4295 3819 5903 5366 5849 4437 
2131 3927 5359 3987 4462 5243 4099 4604 2853 
3426 5811 4943 3021 4697 6047 4939 3403 4553 
2916 6032 3558 5127 5426 6029 3690 5170 5711 
5299 5220 5728 5718 5238 5303 5081 4509 5936 
4308 5514 5962 4910 4465 5255 5701 5672 5740 
4439 5949 4123 6010 3737 6016 5322 5553 3104 
5462 4864 4241 3630 5086 2474 868 2138 5153 
1917 5030 2838 4222 5750 2931 4980 5533 3800 
4963 1726 5146 4271 2871 3907 3621 3673 2381 
5789 5397 4665 5044 4156 5039 5388 4036 5446 
953 5341 5034 2433 4383 4378 5128 4659 2443 
5682 5867 4595 5199 4984 4657 4433 4625 4800 
5206 5775 4493 3030 5390 5266 5948 5531 3826 
4220 5481 2524 3172 5340 5188 4101 3692 3932 
4214 5848 5325 1965 4674 5864 5080 5526 4347 
5710 6068 4821 4196 5484 4130 4248 4279 3407 
2963 2607 1800 3973 3812 5277 4250 3401 4210 
3942 2562 2662 3438 5874 2667 2529 2576 4407 
3648 1863 2183 2307 2917 4580 3428 3524 3130 
2763 1222 2470 2792 5799 3277 1808 2168 2282 
3207 2361 3202 5035 3270 2489 2260 5805 2638 
1042 3781 3672 1663 3538 4021 5317 4302 1251 
3994 3620 4461 5278 3486 5489 2450 6065 1982 
1313 4147 4446 4339 5085 6013 3236 3610 2951 
3948 5131 4320 4359 3911 3081 3560 4085 2693 
2088 3873 1587 2933 4372 5166 5474 3204 3609 
3706 3127 1509 3959 4016 4132 2762 3830 3863 
5159 5157 4760 2473 2710 5876 3267 2425 4754 
5912 5025 3504 1866 2377 1513 3561 2399 3598 
3182 3894 2918 3224 2004 757 2554 2421 2759 
2779 2733 2005 2072 2061 1836 2651 2466 2240 
2873 2594 1815 218 3532 1470 2362 3225 2188 
3196 2624 249 1992 2672 1113 1826 1431 1109 
1062 1977 1656 1591 485 1241 2284 2461 1501 
3390 3601 3606 2927 72 3572 4107 4102 5588 
2582 2437 1285 3629 4166 3669 5499 1737 4720 
4726 4283 2486 3874 3394 5605 3832 5941 5370 
5744 3470 2757 3565 3437 2430 4318 3274 5077 
3754 4185 3151 3750 3402 2769 6005 5646 1833 
3090 3774 2685 990 2898 4576 5596 2790 2318 
4058 1902 4150 1553 1789 3214 644 1364 1346 
10 1349 1784 2564 2851 905 151 511 739 
1529 1295 872 1875 1006 943 1950 1467 1087 
1617 1248 794 224 1760 1547 702 1363 1353 
1794 1566 1980 1753 2157 22 1297 1755 2166 
3472 2456 3330 3650 2755 3055 5061 5502 3632 
5681 5182 3890 4628 3896 4288 4061 5332 5393 
1610 3448 3765 1884 3744 4014 5019 2855 6060 
3680 4062 4419 4443 4328 3377 4802 4217 3370 
3485 5765 3977 4708 4696 4558 3111 2774 2717 
3074 5599 2388 3743 2314 2139 3823 4316 5000 
2914 1680 1769 108 2143 2040 2548 996 1569 
736 2164 3357 1179 424 1595 1690 643 2035 
1007 321 1812 239 1582 1112 140 1752 5 
494 1469 527 573 1613 2034 1176 1089 746 
1943 878 2045 2374 594 1830 2553 5802 2342 
3567 4769 1418 3263 2415 504 5753 4274 3391 
4398 5362 4893 4342 4931 4771 3824 5630 4923 
5788 4436 3626 4330 6050 4780 5641 4589 5769 
4338 5756 4618 4753 4922 5670 4593 5269 5264 
4755 3573 5117 3234 4161 4084 3193 1018 3622 
3292 5060 4566 3495 5496 3318 1484 1460 3142 
2057 1413 3468 2833 1877 2295 1618 68 1599 
1130 1279 1518 2090 1814 199 1344 2053 854 
157 621 2991 79 1407 913 2152 77 2725 
690 2509 1522 1602 1508 1343 2279 2370 2679 
1702 4117 3700 1415 4385 4144 6062 5027 4204 
3817 2031 3440 220 5121 5866 5807 4934 4622 
4614 2722 4329 5965 5551 4497 5011 5729 4843 
3467 5022 4289 3477 3870 3956 5722 3289 3842 
3768 5993 5786 5637 3146 5018 4473 5725 4898 
4492 4962 5310 4152 4655 6002 3897 4961 5777 
5847 2902 3696 5066 3721 2516 1545 4354 4844 
4379 5963 5525 3678 3958 3885 3619 3691 4118 
4490 4508 3811 4724 4169 3339 3646 3168 2816 
3705 2765 1402 3190 2634 4113 1682 3376 4661 
2359 4230 3537 2660 4435 5810 2713 4772 3946 
3976 5047 5164 4442 3535 5616 4845 5108 5518 
4763 3985 5582 5974 6061 5023 4675 4068 5267 
2938 4868 5836 4694 5284 5850 5403 4557 4725 
5004 4251 4145 5809 4076 5222 4662 4270 5549 
3679 5780 5207 5973 3594 4533 5766 5984 4277 