# vtk DataFile Version 4.2
Generated by LIGGGHTS
ASCII
DATASET POLYDATA
POINTS 6000 float
-0.0248398 -0.0371719 0.0162892 -0.0127093 -0.0427217 0.0172654 -0.0152475 -0.0371043 0.0164533 
-0.0179735 -0.041149 0.0173247 -0.0101278 -0.0385145 0.0161055 -0.00499331 -0.037849 0.0162301 
-0.0068385 -0.0432699 0.0167953 -0.00160634 -0.041444 0.0148095 0.00171022 -0.0443364 0.0171794 
0.00466016 -0.0397287 0.0178451 0.00780137 -0.0424694 0.0176633 0.0101068 -0.0391586 0.0171163 
0.012617 -0.0422683 0.0167175 0.0161772 -0.0402939 0.0165247 0.0200257 -0.0390834 0.0166866 
0.0237203 -0.0381794 0.0181662 -0.0321508 -0.0314431 0.0161341 -0.0270423 -0.0310122 0.0159587 
-0.0281811 -0.0349414 0.0157407 -0.0232024 -0.0328284 0.0160179 -0.0209532 -0.0355749 0.0179671 
-0.0149269 -0.029731 0.0177355 -0.0196948 -0.0317561 0.0177678 -0.0158145 -0.033615 0.0184954 
-0.0120215 -0.0331733 0.0165755 -0.00619457 -0.0327462 0.0168546 -0.00206689 -0.028779 0.0162765 
0.0029405 -0.0307547 0.0162986 -0.00181516 -0.0327006 0.0177005 0.00441573 -0.034867 0.0176194 
0.00856035 -0.0352692 0.0175972 0.00695538 -0.0317357 0.0186927 0.0132969 -0.0361642 0.0176318 
0.012919 -0.0321527 0.0179925 0.0172453 -0.0333791 0.0182433 0.0209619 -0.0316223 0.0177068 
0.0245086 -0.0342509 0.0181364 0.0247144 -0.0302274 0.0187176 0.0285677 -0.034677 0.0182373 
0.032251 -0.0312781 0.0183465 -0.0344776 -0.0287061 0.0179673 -0.03165 -0.0248767 0.0154634 
-0.0366864 -0.0255209 0.0168625 -0.0336153 -0.0225733 0.0180759 -0.0224476 -0.0287414 0.0179761 
-0.0286745 -0.0275724 0.0143793 -0.0252458 -0.0254935 0.0163253 -0.0242959 -0.0211601 0.017819 
-0.0193591 -0.0206009 0.0164101 -0.0196129 -0.0252044 0.0158374 -0.0145362 -0.0232358 0.0159509 
-0.00765547 -0.0283811 0.0169275 -0.0121578 -0.0267009 0.0167366 -0.0107275 -0.0219024 0.016023 
-0.00641376 -0.0237579 0.0171021 -0.0017972 -0.0231594 0.0173321 0.0022304 -0.0209421 0.0174115 
0.0082873 -0.0221181 0.0183427 0.0114725 -0.0245983 0.0182655 0.00472843 -0.0239698 0.0185574 
0.0152986 -0.0259394 0.0184693 0.0144133 -0.0211662 0.0187102 0.0225908 -0.0265174 0.0182629 
0.0265844 -0.0266916 0.0185501 0.025946 -0.0219125 0.01766 0.0221273 -0.0224237 0.0188194 
0.0313129 -0.0270583 0.0178829 0.0336007 -0.0206236 0.0178634 -0.0393744 -0.0201251 0.016979 
-0.0394708 -0.0124448 0.016886 -0.0418572 -0.0164398 0.0174121 -0.0366445 -0.0167386 0.0176256 
-0.0289583 -0.0203057 0.0171214 -0.0330997 -0.0184601 0.0164726 -0.0292274 -0.0163165 0.0163869 
-0.033835 -0.0126467 0.0155759 -0.0254168 -0.0146632 0.0158386 -0.0213463 -0.0131769 0.0153504 
-0.022653 -0.0176325 0.0161368 -0.0149686 -0.0180016 0.016643 -0.0184236 -0.0158557 0.0180106 
-0.0129246 -0.0144368 0.016591 -0.00473888 -0.020011 0.0169303 -0.0105764 -0.0178305 0.016611 
-0.00536341 -0.0160343 0.0166721 -0.00177485 -0.0138003 0.0171228 -0.000127655 -0.0175312 0.0170901 
0.00377746 -0.0154202 0.0168851 0.0108818 -0.018908 0.0177854 0.00621041 -0.0187035 0.0177826 
0.00862603 -0.0154697 0.018308 0.0179182 -0.0191107 0.0182717 0.016795 -0.0151886 0.0185074 
0.0204753 -0.01352 0.0188029 0.0219184 -0.018438 0.018367 0.0244159 -0.0131307 0.0178983 
0.0258231 -0.0174115 0.0184164 0.0284465 -0.01412 0.0181332 0.0294841 -0.0199587 0.0179427 
0.0316565 -0.0166059 0.0183458 0.0337971 -0.013198 0.0177668 0.0356596 -0.0168453 0.0177468 
0.0411762 -0.0179465 0.0183448 0.0389377 -0.0145071 0.0180566 0.042728 -0.0131752 0.0183353 
0.0375455 -0.0203189 0.0188918 -0.0433435 -0.0120349 0.0148795 -0.0373975 -0.00854404 0.0153468 
-0.0404074 -0.00521661 0.0166365 -0.044063 -0.00860213 0.0168493 -0.0302108 -0.00763946 0.014994 
-0.0336434 -0.00787218 0.0179138 -0.0284656 -0.0121424 0.0172865 -0.0253655 -0.00732629 0.0172056 
-0.0223674 -0.00451132 0.0172821 -0.0237719 -0.0115336 0.0186492 -0.0161678 -0.0114078 0.0163221 
-0.0196203 -0.00904832 0.0160354 -0.0133878 -0.00831553 0.0160628 -0.0184322 -0.00588501 0.0182343 
-0.00578113 -0.0111731 0.0162691 -0.0102841 -0.0111022 0.0169197 -0.0094576 -0.00686511 0.0167499 
-0.00560778 -0.00731612 0.017869 0.00184531 -0.011698 0.0166105 -0.00209028 -0.00965314 0.0166817 
1.16898e-05 -0.00636647 0.0176024 0.00370081 -0.0082127 0.0172944 0.00405421 -0.00423188 0.0176632 
0.0101084 -0.0116599 0.0181286 0.00612692 -0.0114359 0.0174271 0.0079127 -0.00714697 0.0172151 
0.0117734 -0.00791082 0.0183297 0.0155618 -0.00657877 0.0182573 0.0179807 -0.0103706 0.0187724 
0.0186016 -0.00387842 0.0187393 0.0272299 -0.0100745 0.0179515 0.0224791 -0.00548866 0.0187482 
0.0340635 -0.00826836 0.0183998 0.0374304 -0.00439752 0.018693 0.0378272 -0.0102587 0.0182524 
-0.0446894 -0.00370067 0.0151901 -0.0407181 0.0015827 0.0155625 -0.0439563 -0.000353373 0.0129307 
-0.0443223 0.00274604 0.0170108 -0.0355698 -0.00385792 0.0166233 -0.0311003 -0.00341683 0.0172196 
-0.0364593 0.000821645 0.0173631 -0.0316017 0.000691387 0.016662 -0.0256193 -0.00197079 0.0163856 
-0.0239373 0.00168859 0.0161867 -0.0186907 0.00222978 0.0169195 -0.0146446 -0.00304943 0.0170212 
-0.0185244 -0.00196828 0.0164525 -0.0118654 0.00299439 0.0175381 -0.00736875 -0.00327774 0.0170076 
-0.010779 -0.000807728 0.0165191 -0.00713385 0.00150295 0.0174152 -0.00408054 0.00413351 0.0174418 
-0.00309456 -0.00362239 0.0179752 -0.00254964 0.000368418 0.0175297 0.000711031 -0.00200504 0.017194 
0.00262784 0.00154188 0.0172772 0.0121748 -0.00392443 0.0183774 0.00596538 -0.000715944 0.0172681 
0.00622515 0.00329301 0.0175538 0.00996859 -0.000599294 0.0177466 0.0101593 0.00336844 0.0182851 
0.0136224 0.00124916 0.0182248 0.0182332 0.00323171 0.0177195 0.0232593 0.00203404 0.0182253 
0.0272503 0.00257814 0.0183689 0.0363761 0.00296722 0.0182884 0.0412386 0.00245473 0.0185533 
-0.0380021 0.00554116 0.0163842 -0.0443009 0.00684142 0.0166933 -0.0396016 0.0106648 0.0162398 
-0.0434501 0.0113991 0.0173244 -0.0295789 0.00438572 0.0183416 -0.0341257 0.00445843 0.0174468 
-0.0309119 0.00934833 0.0168544 -0.035035 0.00871977 0.0174686 -0.0270413 0.0114584 0.0166182 
-0.0230484 0.00617197 0.0170715 -0.0205902 0.00947853 0.0167779 -0.0168151 0.0122826 0.0168475 
-0.0162393 0.0077127 0.0166496 -0.0122575 0.00698327 0.0175633 -0.0108424 0.0111491 0.0171196 
-0.00802574 0.00572925 0.0176809 -0.00473682 0.00810128 0.0177999 -0.00266601 0.0115262 0.0176176 
-0.000957237 0.00665688 0.0172737 0.0010921 0.0100068 0.0180751 0.00493634 0.00912381 0.017387 
0.00823366 0.00688523 0.0178668 0.0116494 0.0100318 0.0183425 0.0129669 0.00621765 0.0178783 
0.0212169 0.009258 0.0176363 0.0280946 0.0065959 0.0175372 0.0250463 0.00889934 0.0162007 
0.0322759 0.00522573 0.0179843 0.0422116 0.00748657 0.0171974 0.0431893 0.0111504 0.0187725 
-0.0418404 0.0163524 0.0159635 -0.0365883 0.0139414 0.0172416 -0.0307297 0.0135018 0.0173643 
-0.0337491 0.0171136 0.0161332 -0.0286359 0.0170834 0.017151 -0.0249902 0.0187476 0.0175931 
-0.0233156 0.015144 0.0165674 -0.0202661 0.0178193 0.0168433 -0.013112 0.01436 0.0180624 
-0.0163579 0.0163274 0.0165043 -0.0139822 0.0198594 0.0171134 -0.0091235 0.0146936 0.0183567 
-0.00713491 0.0181412 0.0177927 -0.0047759 0.0149384 0.0183338 0.00436311 0.0129772 0.0183549 
-0.00152647 0.0173387 0.0186705 0.000510703 0.0139904 0.0178469 0.00133155 0.0200245 0.0177149 
0.0063936 0.0187515 0.0181792 0.011051 0.0139735 0.0187218 0.0136742 0.0201683 0.0170944 
0.0150311 0.0146976 0.0179014 0.0191023 0.0152175 0.0182725 0.0243897 0.0128148 0.0179454 
0.022813 0.0167991 0.0179744 0.0251994 0.0201354 0.0184296 0.026743 0.0162484 0.0187832 
0.0353403 0.0137395 0.0170611 0.0307202 0.0159632 0.0178453 0.0343571 0.0177829 0.0165353 
0.0421349 0.015169 0.0182806 0.0398741 0.0200362 0.0180315 -0.0393438 0.0215198 0.016818 
-0.0285908 0.0211759 0.0166385 -0.0358276 0.0267824 0.0148205 -0.0307282 0.0275159 0.0153198 
-0.0353446 0.0217286 0.0178068 -0.0316074 0.0243898 0.018304 -0.0272515 0.0250322 0.0183962 
-0.0228319 0.0221402 0.0170268 -0.0222872 0.0262483 0.0172246 -0.0186137 0.0219308 0.0166466 
-0.016973 0.0256173 0.0163754 -0.0131939 0.0246302 0.0172784 -0.00686761 0.0221469 0.0177192 
-0.00920453 0.0254432 0.0168626 -0.00412712 0.0250726 0.0173669 -0.00495424 0.0289319 0.0166765 
-0.0107438 0.0216678 0.0186378 -0.00306942 0.02091 0.0173681 -0.000928512 0.0275305 0.0171795 
0.00288535 0.0258729 0.0175315 -0.000269256 0.02369 0.0186779 0.00501228 0.0224717 0.0173992 
0.00897013 0.0218076 0.0173048 0.0102594 0.0256765 0.0167269 0.0128698 0.0284597 0.0154736 
0.0143399 0.0244671 0.0170872 0.0178918 0.0228688 0.0183331 0.0201302 0.0262976 0.0188216 
0.0278285 0.0270249 0.0177508 0.0238928 0.0279811 0.0189193 0.0233143 0.0237093 0.0187807 
0.0308905 0.0206798 0.0175528 0.0355869 0.0212822 0.0180571 0.0350281 0.0254502 0.0178961 
0.0310556 0.0246408 0.0187041 -0.0320165 0.031569 0.0159511 -0.0276402 0.031032 0.0170049 
-0.0261726 0.0365292 0.0166262 -0.0228457 0.0302465 0.0165992 -0.0218821 0.0353029 0.0162243 
-0.0130149 0.0294281 0.0168761 -0.0175728 0.0295828 0.0172457 -0.0176423 0.0331932 0.0152631 
-0.0138529 0.0334504 0.0167623 -0.0090528 0.0293891 0.0161056 -0.0110859 0.03624 0.0178051 
-0.008814 0.0334461 0.0160345 -0.00664535 0.0367394 0.0168941 -0.00320043 0.0345755 0.0177246 
0.00222035 0.0299904 0.0180256 0.000343775 0.036615 0.0173176 0.00317707 0.0337837 0.0169215 
0.0062165 0.0314317 0.0182762 0.0098191 0.0332388 0.0180401 0.0165918 0.0292969 0.0168324 
0.014898 0.0329387 0.017449 0.0203435 0.0304021 0.0181443 0.0185499 0.034691 0.0180592 
0.0126805 0.0360213 0.018775 0.0245271 0.0318245 0.0175212 0.0264964 0.0363058 0.0175599 
0.0299269 0.0335525 0.0185154 0.0309527 0.0295659 0.0182422 -0.0153981 0.0372342 0.0154455 
-0.0195866 0.0401447 0.0167705 -0.0159676 0.0419433 0.0157235 -0.0125294 0.043151 0.018334 
-0.0102172 0.0400794 0.0169986 -0.00893033 0.0439595 0.016627 -0.00612837 0.0411052 0.0174922 
-0.00480876 0.0446572 0.0162042 -0.00205998 0.0406698 0.0167644 -0.00100923 0.0449357 0.0179049 
0.00300625 0.0448538 0.0178842 0.00214023 0.0409067 0.0157117 0.00444972 0.0377369 0.0174209 
[...]
POINT_DATA 6000
FIELD FieldData 7
id 1 6000 int
4982 5297 1962 4249 4649 3933 679 738 1152 
2329 2339 1123 1354 654 18 576 4371 4026 
525 2418 531 4284 5265 435 1145 1630 917 
512 528 2135 747 1765 1914 432 1930 1372 
938 408 609 886 20 4362 4590 4074 3 
5691 49 5194 2775 3416 3534 706 5846 988 
364 248 2740 214 440 274 781 91 1259 
1632 2654 338 1576 797 5217 1691 4777 3098 
4087 2122 720 3968 1619 3008 268 4080 3938 
935 247 35 165 3298 522 732 308 614 
858 211 1362 1272 245 1792 551 1526 1711 
3245 2629 2844 3432 1907 175 4867 1546 1741 
62 117 870 1307 502 3453 2867 38 402 
660 843 329 2810 251 235 640 223 118 
1440 455 987 282 392 616 76 545 1471 
1192 2915 23 2182 1195 1750 1846 1449 452 
1371 63 468 842 622 2537 810 1011 365 
1141 507 1542 789 377 410 1861 758 2 
217 390 301 659 565 275 381 2879 61 
530 1306 970 466 234 421 1060 550 30 
1790 1401 2109 441 145 840 221 444 1108 
1171 98 368 508 177 890 164 1339 2631 
1749 2475 1969 1564 413 3226 1074 762 170 
330 906 1458 171 1304 590 748 1016 153 
306 1066 1465 667 130 266 603 619 524 
688 983 298 572 1325 2325 828 4348 4391 
3908 2699 1269 2452 1039 107 638 397 1525 
857 2778 1709 1534 1180 1070 859 851 1724 
538 348 1320 385 795 1000 853 194 766 
1514 1069 288 2289 961 3491 2077 15 1627 
4381 1424 1426 483 1642 887 1267 1177 1887 
1215 1246 2398 129 687 2400 418 299 133 
456 40 940 2161 1520 3396 927 546 417 
2589 2788 2383 1648 2266 2258 849 2249 1805 
1024 993 540 895 811 132 1679 2454 4264 
3762 258 637 819 5684 4600 3825 5402 5298 
3455 4388 6043 5346 5358 473 5097 3710 6037 
4088 5573 5663 5052 6053 5420 126 774 143 
2008 3576 1333 6059 5134 5304 4353 3216 313 
3549 2746 4689 3212 216 3702 3006 3421 3032 
1065 2623 1088 1837 2020 2261 374 4365 3668 
4006 4174 5106 4853 5808 5695 4128 3869 4709 
4970 3521 4060 5645 4267 4892 5372 5536 5557 
5500 3892 4304 5875 606 3059 1318 5451 5105 
5913 2916 5224 5705 3923 303 3230 985 1189 
350 2626 396 257 3913 2542 178 1584 1472 
209 81 1539 1512 2358 1891 1184 34 403 
1045 2148 241 1397 1637 1015 1221 3045 208 
664 1228 997 2560 471 5760 5363 4434 3382 
3949 4124 4942 5124 4122 4740 4556 5504 4746 
2001 3723 4229 5929 4605 3961 5043 6045 3397 
5290 3315 3741 2303 4712 4747 6012 3791 4598 
5181 5384 3841 4290 708 4638 111 694 1148 
2232 3964 3982 3732 73 515 371 629 437 
1092 296 324 1802 1732 383 582 400 520 
401 964 1046 734 1027 726 2555 682 1446 
2857 1829 44 341 2897 496 2331 2961 1855 
3793 2704 2659 1687 4032 181 2290 2479 3839 
4569 5236 4073 3827 3458 542 4718 2920 710 
4768 281 3418 1668 3834 4232 2992 3730 2809 
4602 5049 4202 3655 1787 652 835 2394 3227 
3769 4985 3639 3492 2460 339 685 176 215 
2969 314 64 230 973 2547 3465 291 3379 
80 2487 85 801 284 201 945 94 2580 
894 1194 909 645 29 581 83 864 1403 
1284 238 210 173 384 379 1766 598 641 
1910 3595 1182 267 149 742 1511 3851 2600 
2709 399 4191 4592 1958 2633 2999 4678 1961 
3017 4188 5495 135 292 3471 2513 2586 2101 
1890 1031 3953 1625 2677 3269 3208 1883 270 
71 1903 918 69 139 2378 632 626 1652 
204 791 670 2856 2681 2347 735 2850 662 
51 415 1406 2074 600 363 802 2627 46 
727 848 382 411 28 2752 219 992 1841 
109 1091 852 1138 156 1061 921 398 445 
492 630 548 841 1038 558 677 1257 805 
580 198 480 1671 47 1738 438 2521 666 
2911 874 207 50 672 1693 1487 2635 2220 
4459 4227 2705 3126 658 2081 4035 2324 343 
3822 636 2111 2393 160 60 2950 2543 3368 
2731 5815 3552 3408 6006 537 2206 574 1715 
1277 252 767 1053 902 429 1456 316 552 
244 773 2444 2894 2346 1181 2213 517 1 
123 265 519 1055 152 979 568 1280 1231 
1191 1452 825 588 1097 351 784 1583 460 
1301 333 337 1203 1219 839 911 818 185 
161 780 188 942 354 256 104 1232 725 
602 785 1214 951 1438 613 1117 453 344 
1516 3689 2776 557 124 1075 1862 1821 3218 
2132 433 2100 2364 3436 476 2996 3859 2523 
2511 1168 2940 3058 5259 2530 3082 446 1017 
3545 3369 1970 1317 2737 4482 3364 1093 427 
1376 1311 1078 358 850 1261 32 2000 48 
1044 88 499 1706 66 684 948 1776 498 
561 75 1139 297 822 713 646 7 755 
926 1197 991 812 1135 479 1436 1157 393 
761 184 404 1626 989 673 307 1684 262 
2439 1369 724 105 555 564 154 1101 1206 
352 605 286 4 532 359 253 523 323 
1094 867 134 57 665 142 2551 3909 227 
1118 1010 2574 3206 325 2528 3597 592 2411 
1957 362 1429 127 1077 1536 806 373 3409 
4105 2588 1762 862 189 1621 5512 1390 3967 
2515 3615 611 3747 2549 2618 3186 4573 3327 
5989 869 529 1628 976 1445 500 278 2094 
1072 1713 1523 2326 2292 608 1163 2478 691 
128 474 434 2263 678 1071 957 1562 1491 
136 1022 1095 1243 96 1561 635 380 366 
388 1216 1560 196 451 578 472 764 1287 
513 879 280 122 634 937 907 1271 798 
490 560 1747 1103 1481 1888 1510 1497 959 
3099 1005 200 3929 2315 2764 1579 3625 5103 
3028 4571 3665 4606 3780 5454 4045 674 3052 
3590 4012 4345 3316 5133 6025 4620 620 4392 
229 2514 5272 4480 4224 2863 1240 1419 549 
2636 2366 647 2663 2423 916 484 2883 1934 
17 984 1421 740 2022 1570 236 2104 885 
1770 166 865 3005 353 45 1645 1218 1340 
1223 721 1850 1605 701 43 896 2095 2167 
311 559 1400 1654 1527 1378 1398 328 1817 
1186 231 319 1490 681 663 370 279 2241 
756 2142 1388 461 1299 2972 729 1162 2980 
1226 3356 4100 4057 2825 2403 1136 3647 1818 
2151 3810 5742 4069 4926 4176 3963 4513 2665 
5367 5417 4850 2869 4591 5896 2113 1606 2097 
3110 1757 3353 1859 1462 3201 1611 1944 2328 
1768 1667 1300 3600 162 680 656 3662 1528 
900 1037 1052 1798 100 2341 2262 2190 3023 
1913 1831 1188 1923 2642 420 67 27 305 
1034 431 676 2235 863 4268 924 2519 121 
521 1399 1864 809 601 2299 826 4245 3551 
4690 1028 2283 4360 2884 2463 2256 2499 5419 
1047 1121 5184 1807 1308 5982 3566 893 2264 
2071 2687 3189 92 583 1614 146 1225 3068 
55 2302 2655 242 3089 2852 2751 2462 2501 
2895 2583 412 2197 1689 367 478 1791 903 
1673 3107 13 31 1851 2622 254 1164 2962 
2116 3463 2064 3038 86 1211 1906 387 357 
4995 3367 910 1535 1146 5314 5202 2427 4761 
3285 5739 4752 5732 4373 4321 6040 4106 5318 
4209 5529 6029 3922 5260 5856 6027 5299 5229 
4719 5943 5059 5728 3586 5081 4570 2984 5227 
4896 4744 3313 4954 5759 3387 5936 4308 4456 
5348 5255 3692 5639 4000 4682 3039 3984 2569 
4703 2310 3075 3335 302 1013 1154 4447 3223 
3882 3347 4683 4086 4484 4427 5706 4562 5804 
4464 4153 5368 3725 5483 5794 3531 4140 5424 
6032 4919 4939 3021 3558 4762 4553 5718 5521 
5426 5711 3690 5775 4493 5055 4888 5220 5261 
3403 4509 5266 4457 5513 5935 4741 5238 3160 
3311 5586 5716 2147 4511 4910 876 2612 4405 
477 1707 2550 5281 3102 1331 628 1955 1236 
1129 1939 1874 1607 459 426 1352 1885 1767 
2905 2136 78 3124 3449 3773 4466 3935 4272 
5406 4017 4303 2787 3464 5539 5178 5409 5026 
5515 4700 5282 4544 3699 6007 5421 5849 3804 
5833 3738 4187 4131 6001 5811 2853 4956 5127 
4646 4800 5163 5909 5858 3578 5673 4604 5412 
3688 5235 5498 4263 3591 4430 4874 4355 4257 
2585 4496 2930 2785 1915 190 2438 3618 2703 
3666 1968 737 1853 2602 698 1466 1828 1550 
612 1633 1832 1670 1886 1600 1305 1730 1568 
2236 1631 881 1374 904 2392 3753 2517 575 
4452 4139 2768 4837 2754 4883 4159 4909 5524 
4810 5040 3585 4616 3941 2749 2380 3902 2216 
3475 4400 1998 3883 3653 3129 3132 4033 2698 
4133 1806 6058 3861 4469 5048 2639 3122 3767 
3141 2882 4111 3412 4179 5219 3361 1775 3009 
3555 1664 5964 4167 4846 772 3920 4831 5723 
5345 3372 4930 2997 3493 4530 3914 2055 3077 
2773 3770 2449 4285 1555 4083 577 827 3027 
261 669 416 1548 1292 1213 19 1651 1404 
1200 2274 395 1032 981 463 2280 2656 2534 
2793 1819 5135 569 2334 1043 2805 2960 2217 
4872 3988 3166 4280 3993 3010 5090 5084 4901 
3243 5560 4138 3466 3101 2579 5583 4948 5200 
2019 2684 3856 2457 2192 3363 2451 101 1479 
978 2353 1705 969 3724 589 2617 2811 1393 
2049 2435 3670 1695 2772 3137 1899 2495 2112 
3011 2614 2596 1748 4663 3708 1870 2065 3439 
2502 2848 1379 3016 2791 3349 4063 2085 1788 
2323 3663 1678 449 1338 2123 2741 968 1151 
1897 962 138 2102 1781 11 1281 860 1198 
405 675 1253 8 821 213 125 277 1804 
70 783 936 59 1797 1029 2426 814 627 
596 4711 4377 3215 618 2436 4252 4346 4932 
2692 4020 5664 2955 2888 3321 5566 5541 5633 
4258 3530 5726 4667 5863 5577 5781 4815 5074 
4885 5162 1990 1204 1294 294 2036 1922 960 
1733 1926 2277 315 1647 1245 172 493 1971 
2038 543 700 1869 2721 804 1735 320 584 
1676 2070 300 1839 1367 1483 1238 425 955 
1290 1994 786 1283 448 276 1594 1761 1381 
1699 782 2648 304 464 1166 1824 1894 1270 
607 1274 97 1036 1057 469 949 633 925 
995 202 346 1321 1205 423 653 541 1073 
1332 882 2153 908 271 4650 1638 1107 1464 
2544 3757 1532 2354 4070 2027 2067 3755 3106 
4154 2849 3389 4964 4065 3488 3476 2646 5218 
5226 2975 5600 3420 5270 5155 5764 3536 5503 
5465 4881 4791 4197 5176 5542 5934 5831 5787 
5652 1492 1827 2237 1574 971 1924 3607 1004 
1160 711 649 1947 1336 1193 2877 570 1810 
1383 2127 1366 752 14 897 179 2003 1235 
965 148 1085 716 547 1342 778 349 112 
759 749 1134 1252 1244 1276 1430 1067 1156 
793 919 650 1131 803 327 1058 779 974 
975 182 1169 689 830 873 419 269 488 
340 82 391 914 2048 2396 53 1159 2455 
1896 3563 2572 1414 2526 295 2978 2946 2424 
2893 4715 9 536 4438 3951 3704 4653 4916 
5810 5572 4506 4543 4390 3996 4990 4445 5108 
5150 4865 5009 4470 4671 3980 3291 4699 5616 
5174 4477 5140 2149 2173 2327 336 1588 2477 
1345 657 1716 1115 2491 2428 1021 3066 2233 
3229 2297 3251 1090 2062 56 1172 2340 1254 
883 1616 707 1911 2050 2028 1258 829 263 
1727 1358 671 103 808 1444 369 535 168 
1234 1634 591 1480 1266 731 1412 815 450 
534 836 892 587 1048 714 697 915 539 
845 2619 553 501 1581 439 2210 933 2441 
1173 3816 2830 3510 3256 2690 4911 4181 4001 
2854 1964 5172 5092 5431 5981 3310 4652 5925 
5519 5954 3307 3275 3740 4335 5631 4141 4180 
5285 4307 5834 4173 4163 5604 5463 3950 5821 
5892 5161 3623 930 2387 2469 2410 2510 4046 
1710 2363 2338 4002 3939 4254 2512 1334 2459 
1641 1694 1872 2023 3641 2099 1953 2060 2015 
1288 1450 310 206 2265 1348 3020 1590 1175 
2391 250 1002 1385 715 1158 442 2273 2296 
1099 1185 514 1556 1843 1167 1643 347 516 
2073 518 21 1718 1260 3430 2527 2497 2395 
2941 1941 5099 3614 5231 2695 3002 3904 3457 
3480 2720 3505 2820 4119 4953 5752 5033 5919 
4887 5785 4460 3848 5430 4300 5042 4487 5674 
5931 3133 5095 6036 5460 5312 6030 2432 2990 
3128 2738 2059 2490 3446 1505 3588 1959 2118 
2389 1722 1782 2385 3184 2356 2105 3393 952 
1420 2900 963 2577 2691 3177 3246 2807 950 
1531 2686 2591 3094 2781 2924 3209 1126 2345 
2404 2311 1991 1932 4184 2120 2545 4334 3581 
1916 4135 1538 3779 4738 2868 2535 3405 3584 
3036 4115 4664 4651 4198 4394 5868 2193 3889 
5126 4199 4705 4983 5621 4503 5835 3651 4639 
5757 2726 4256 3998 5773 3305 3544 2974 3153 
1816 3915 3093 3210 3546 2748 2987 3406 3162 
3427 3431 3262 3087 2944 3444 2789 2593 2103 
2117 2352 3815 3809 2676 3868 2708 3514 2814 
3719 4158 2794 2799 4583 3805 3843 4082 3288 
4108 4164 3517 1662 5180 4019 4629 4617 5296 
5331 4411 6017 5073 4775 5302 3833 4315 5416 
6014 5724 4501 3616 2878 4928 5852 3326 5827 
5545 5944 5904 5241 5701 5584 4534 5932 5189 
3172 4586 2066 5481 5696 5093 5848 1128 4465 
5303 4821 4737 4439 5962 5949 5672 5014 2222 
3714 1659 3324 1650 5514 3954 2536 2453 3069 
3844 4022 3840 5213 3947 4103 4582 3415 2520 
2595 3849 5828 5359 4471 5768 5822 5186 6047 
3180 2625 3539 4697 5977 3447 3587 5957 3731 
4220 5167 2301 5910 5719 5659 3030 4211 2524 
5223 5948 5531 2422 2434 5188 5915 3807 3295 
4095 3932 2800 3454 4101 361 3414 3375 4013 
4935 3443 3373 3872 3957 4389 1698 2114 3013 
2603 1347 639 2227 2843 3459 3040 26 2420 
1563 2013 1098 3022 1743 5927 2628 4647 2782 
3308 4756 5316 3138 3671 4409 5972 5361 1865 
2208 5366 4295 5243 5552 5823 5377 5045 3603 
4433 3281 2131 4875 4099 5170 4943 4462 4156 
5903 5959 2988 5902 2433 4358 3456 4527 5873 
5199 3426 2443 4818 3729 4292 5205 4659 4367 
4003 5206 3611 3672 4518 2108 2531 3580 2912 
3828 2080 3084 2711 3381 1585 1437 1909 309 
2245 1434 1867 2503 3192 2130 1905 2156 1949 
2959 3758 3529 2842 2896 1063 3900 3071 3681 
1901 3855 3726 4668 3677 4789 2875 4630 3329 
3374 2919 4440 3794 497 4554 2401 4811 4500 
3733 5938 4541 4364 3283 3819 2187 2827 5712 
5839 5441 5256 5736 4271 2381 3621 5389 4890 
4847 3927 5039 953 5857 2566 4858 4437 3748 
3351 4989 3987 5840 4029 6028 4540 3508 2694 
4378 3727 509 3213 2494 3772 1639 1995 3147 
861 169 1298 1838 3033 2322 1629 1928 820 
2953 1224 3012 102 447 1322 1592 2532 1114 
2653 1708 1315 1056 3413 4205 2861 3649 4094 
4403 2488 5110 4685 4876 4450 4517 5050 4857 
4842 5007 4370 5487 3518 4680 5422 4714 4599 
4781 4632 4679 4692 2846 998 2891 114 3509 
4331 2605 2644 871 2458 3088 3975 4704 3944 
2567 3451 4143 4963 4025 6057 4980 2485 4734 
5522 1498 3424 3684 5146 2309 2119 2590 5837 
2831 3116 3029 3079 3337 2823 625 4918 3907 
2859 3191 3867 1111 3516 2409 3073 2247 2382 
2892 1842 1408 2125 3577 4384 712 1517 1720 
3003 212 2682 1170 458 847 775 999 699 
33 939 733 187 2518 980 1500 1854 1499 
1669 2923 2568 4239 4920 1754 2304 2163 5006 
3452 4816 5678 3317 5991 4269 2615 4622 3064 
5027 4944 4851 5300 4531 4536 5251 5488 5380 
4702 4725 2722 5022 2069 2538 2134 1360 1801 
2967 3154 1451 3630 2293 2598 868 4052 4237 
2093 2647 3945 5153 4222 5533 5820 5715 2652 
1929 3358 1931 1873 3778 3983 1675 2557 1086 
3634 1447 2039 929 6 1963 2086 1772 1811 
2925 2214 2291 1834 1001 526 1435 1981 3105 
2298 977 1425 1003 1155 1979 222 116 1453 
285 1443 617 141 744 443 290 585 99 
1327 1119 3163 2238 4882 1314 3239 2440 4895 
3232 2957 5537 5476 3817 3903 6062 4234 4072 
3503 5658 4314 4068 4204 5952 4845 5582 4843 
5850 5267 5075 5143 5083 5649 5023 4868 4730 
5878 4675 4870 4557 2938 5683 2336 42 1739 
3520 2175 1809 2838 1624 2971 2200 2700 481 
2556 3100 2716 3195 2994 2680 1881 2578 2248 
1387 1409 2847 1586 838 1996 2106 2745 2417 
753 25 1368 2272 648 898 1375 167 2259 
1133 1319 193 2056 1665 566 2083 831 65 
1936 1549 1714 1380 760 1286 106 1208 37 
345 1054 1143 332 1316 2862 489 191 2177 
799 233 889 1844 2221 3686 2707 2546 1615 
2500 2952 2140 4783 4117 2713 3946 5047 3535 
4435 4637 5381 5518 3985 4763 5974 4993 6061 
3046 4972 5749 3015 4615 5284 5574 5100 5257 
5544 4431 4997 2658 1482 3085 2558 2481 2906 
3893 2552 1800 3119 1746 2018 2836 2228 4125 
4374 2335 3272 2145 4498 3462 3231 2801 1559 
1161 1356 1927 1876 1786 1104 1658 1273 1068 
1476 486 1734 972 1051 771 505 586 944 
891 769 1427 376 1023 982 1357 283 610 
1494 1700 695 465 705 147 360 1359 326 
110 1530 3117 1904 1933 259 1106 1868 4043 
2592 3070 4395 4113 2634 4387 3526 1682 6055 
4661 5479 4772 5164 4301 2845 5585 1956 4442 
5922 5254 2367 3888 5438 4247 5625 4619 5464 
5125 3990 5183 2942 5825 4075 4654 4112 2611 
2212 3254 3048 2881 3473 4005 4053 2493 3309 
3959 1945 692 2620 3065 2181 2761 3635 1448 
1551 1620 2606 1598 2696 833 1578 1703 1898 
1422 567 651 430 1124 2032 1723 800 1524 
87 273 1395 144 2144 1329 655 2373 763 
1432 3095 792 1719 2826 2306 2467 2218 3339 
2294 2828 3646 2985 1783 3168 4520 5096 4852 
4673 3705 4724 2660 5576 4230 5884 4641 3749 
4275 4157 4959 5698 5123 5731 5404 4978 4221 
4908 3952 4402 5158 5999 4579 5832 5225 5860 
4736 3617 3745 2870 3659 3992 3336 3636 3838 
3542 3366 4940 3685 2561 4155 4507 4559 4691 
2442 3257 4528 4608 3837 2977 2744 3410 3240 
3652 3999 2821 2052 1803 2928 3540 3501 2983 
1012 3173 3806 1653 482 4126 3041 3304 3398 
4698 3334 4549 4584 3675 2995 2798 4693 4098 
3442 4798 3489 4200 5721 5916 5538 5911 5321 
5969 5812 2777 2907 5747 4806 6021 5287 4203 
3656 5401 4813 5491 5694 3759 4011 5921 3583 
5053 3511 3579 4854 2965 3434 4999 3599 2242 
3165 4341 3910 3399 2447 3661 4152 3340 3775 
2835 3433 3322 5185 2797 3512 4933 4352 5549 
4453 5575 4635 4293 6063 4190 3290 3411 4748 
4474 4965 4915 5758 5819 4077 5615 3919 5743 
5374 5897 4899 4034 5032 2889 5987 3643 4054 
5252 2645 3820 3325 5156 3306 4986 2939 2416 
5662 2522 4988 5385 4151 4312 5005 6016 3986 
5610 1540 5203 4422 2638 4446 2014 5592 4123 
4042 3737 4322 3706 3994 5499 4743 5085 5325 
4206 1558 5605 4347 2609 4567 2632 4782 5322 
5665 5740 3948 3479 4610 4412 4357 4361 4687 
5063 4578 3847 5685 2714 2344 3974 1020 5556 
1680 2078 5565 1396 4721 4969 745 3785 3568 
1565 4805 2508 1417 3378 4195 2784 3997 5448 
1774 1777 3553 4565 4461 5563 5489 3846 1965 
1439 5956 2284 3019 3826 3120 4339 1982 5588 
4147 2037 4359 5680 5864 4376 5423 4828 5700 
5478 3081 3362 2998 3359 3709 5730 1721 4382 
2732 3260 986 2666 2257 2129 3185 5279 3523 
5436 5497 4406 5458 2890 5914 3604 3072 5307 
3814 1521 5801 2158 5626 6020 3386 4749 5461 
4723 4340 5051 3955 4977 5382 6008 788 5395 
3112 6004 3417 2803 5440 5782 5390 3385 5979 
4585 2872 4499 1847 5128 6065 4243 4302 2450 
1737 1686 5278 2770 1871 4212 4350 4320 3057 
3682 4478 1249 3342 3777 2982 3478 3297 1751 
3103 3220 3136 2229 4055 3494 2739 1612 4114 
2650 2505 3857 4745 4004 4512 2780 1365 5208 
5859 5232 5333 4039 3346 3981 4973 2834 3134 
5795 2594 5449 3258 4766 5484 3250 4410 5397 
3423 5767 3878 3390 3605 5356 2651 2871 1183 
4563 5034 5258 4420 4561 5682 3144 5388 4383 
2079 2489 3506 3277 2194 3965 4219 2010 4260 
3026 2025 5867 3564 2747 2230 1688 2587 3219 
3035 2506 2174 1655 58 2365 2051 39 1503 
2219 2480 2910 2202 3238 1799 2406 3323 3570 
4448 3296 4306 3328 3798 4807 3469 5968 2968 
4597 3391 4298 4436 5070 4244 4375 4170 3962 
5315 6050 4330 5769 2096 5292 5455 2815 4633 
3912 5687 4516 5853 5245 4758 5960 1370 5609 
5115 4265 5619 2712 4425 5894 2225 5928 5689 
1726 3355 2931 5396 5579 5216 3091 2668 4665 
3273 2763 741 5446 2783 3130 4036 2407 2082 
2421 1900 1580 1635 884 696 2540 150 1660 
1543 454 1940 604 723 1405 787 1153 1935 
272 1059 1685 875 1289 2384 2063 2817 1100 
24 2964 2343 2908 1985 4913 5802 4081 4515 
4824 4614 2753 4329 4458 5965 4931 5362 4398 
3824 4342 4497 5551 5806 3477 4289 5729 3870 
5722 2165 5756 6018 3956 3602 5078 5450 5030 
4860 3159 5413 5750 2474 5824 2483 3831 5169 
1948 1917 5037 6041 2937 4819 3318 3211 2989 
3673 2917 2562 2529 3864 2320 2818 2075 1623 
3524 192 1489 2254 2196 1384 1468 2207 2504 
1575 1080 378 2058 931 1683 1823 237 41 
686 240 317 1997 180 1050 703 954 260 
1233 1187 1217 1084 334 3031 4343 1813 1351 
1455 4274 2342 743 2031 3644 3263 5121 5866 
4144 3171 4538 2525 3440 5242 4923 5323 5753 
5807 220 5703 5830 5933 2333 4694 5011 5004 
3906 5836 5403 5112 5439 3289 6038 4542 5086 
4241 1840 4992 1849 2138 3800 3025 5601 5462 
5028 3104 4250 5677 5803 2171 2667 3265 2662 
5602 5872 3438 4981 3401 4407 2468 2372 1984 
2473 2576 3648 2321 5874 1880 1696 1822 1604 
899 95 1335 624 2332 1537 1355 1337 1974 
533 495 1125 807 5 750 1310 372 115 
1459 16 946 52 1149 1567 615 928 422 
834 1033 1265 2279 1475 2679 2725 3916 1508 
704 4404 2903 554 3640 3593 3976 4162 5587 
5427 1263 3835 1026 232 4934 2029 4194 3940 
5958 5817 264 5330 5301 2180 3044 5501 5214 
4522 4324 5089 4601 3589 3664 4710 5353 5704 
5642 2412 2607 1509 3407 4864 5578 3812 3271 
3973 5876 3428 4132 3175 2936 3561 1866 2710 
2616 3139 2966 644 1833 36 2769 2873 623 
1878 1513 491 1147 355 84 322 436 1264 
1202 163 1573 877 2002 137 90 1165 1229 
1389 1796 487 1952 1014 1541 342 923 901 
2484 1478 690 1237 770 823 2053 1328 1852 
913 2152 3376 1951 2904 3537 3051 1402 3200 
3716 2275 4552 5818 5520 5443 5210 4735 5942 
5613 5337 5239 5275 6056 5627 3711 3096 4757 
4987 2804 5547 5054 5622 1717 2223 4564 5405 
2288 2041 2963 4822 2762 4178 3293 3565 4016 
1553 2757 1239 3750 4804 3274 1893 4708 2317 
2446 3083 1892 2724 3062 1908 3248 1603 1122 
1391 318 462 2816 1835 2766 246 1858 593 
1973 1577 631 2641 2465 2795 2570 1127 1519 
2765 4429 4504 3190 2359 2832 2657 2991 3076 
816 1076 2947 3979 3266 5798 3063 3582 5771 
3876 3925 4175 4332 5640 2507 5334 2402 4266 
5869 4941 5661 1504 6051 4207 2670 4922 4246 
3151 3470 3680 4089 4802 6005 4946 3613 4091 
4418 3707 3157 4696 4064 4731 3823 3858 4613 
2993 5386 2610 3193 3292 2006 3276 4717 2314 
3400 3037 3895 4351 3885 5091 3721 3934 4793 
4169 3619 4508 3678 4396 5569 5173 2608 3850 
5094 2723 599 5644 5558 3502 5195 5392 4489 
1763 5994 4414 4596 4861 5079 5843 4071 5113 