# vtk DataFile Version 4.2
Generated by LIGGGHTS
ASCII
DATASET POLYDATA
POINTS 6000 float
-0.0313788 -0.00144966 0.00409837 -0.0425366 0.0123945 0.00404641 -0.0339123 0.0240958 0.00397734 
-0.0345614 0.028068 0.00402785 -0.0284328 0.0347436 0.00401977 -0.0230159 -0.0384367 0.0043389 
-0.0202063 -0.0401508 0.00673989 -0.0138191 -0.0391634 0.00749267 -0.0100732 -0.0407286 0.00752908 
-0.0081169 -0.0442558 0.00700624 -0.0045791 -0.0424538 0.00680583 -0.00201976 -0.0408745 0.004126 
0.00197298 -0.0402403 0.0039837 -0.000495435 -0.0421095 0.00769352 0.00848713 -0.038981 0.00482044 
0.00857944 -0.0430022 0.00455509 0.00517287 -0.0412402 0.00628079 0.0126124 -0.0431779 0.00618948 
0.0128403 -0.0392605 0.00498288 0.0160802 -0.0381208 0.00757295 0.0233025 -0.0382187 0.00731806 
-0.0320922 -0.0313083 0.00563654 -0.0284719 -0.0307604 0.00409527 -0.0292712 -0.0341061 0.00725225 
-0.0268797 -0.0360596 0.00461865 -0.0251752 -0.0324491 0.00573126 -0.0232777 -0.035692 0.0073112 
-0.0230836 -0.0291231 0.00655561 -0.0153332 -0.0339623 0.00599714 -0.0194916 -0.0341535 0.00660627 
-0.0172662 -0.0374567 0.00609945 -0.0166525 -0.0301746 0.00683071 -0.00674943 -0.031353 0.00476549 
-0.000580033 -0.0340253 0.004679 0.00276402 -0.0364235 0.00519889 0.00307205 -0.0316104 0.00624868 
0.00718481 -0.0321938 0.00599609 0.010157 -0.0353424 0.00438542 0.0109711 -0.0313469 0.00478669 
0.00620124 -0.0366768 0.00739035 0.0146548 -0.035427 0.00405623 0.0143996 -0.0290165 0.00448831 
0.0196433 -0.0365205 0.00640188 0.0157332 -0.0325893 0.00672881 0.0212518 -0.0321715 0.00710229 
0.0268494 -0.0361032 0.00653628 0.0284363 -0.0295606 0.00800903 0.0330719 -0.0297725 0.005603 
0.0297729 -0.0333653 0.0075655 -0.0372461 -0.0251039 0.00401085 -0.0388923 -0.0224225 0.00652355 
-0.0348166 -0.0279546 0.00547698 -0.0310102 -0.0276075 0.00407209 -0.033204 -0.0241891 0.00417132 
-0.0295746 -0.0243229 0.00596105 -0.0347491 -0.0217653 0.00714273 -0.0263798 -0.0272977 0.00478095 
-0.0224997 -0.0255958 0.00413458 -0.0268347 -0.0212487 0.00562986 -0.0229458 -0.02161 0.00461838 
-0.0195691 -0.0272828 0.00706708 -0.0194758 -0.0233279 0.00761466 -0.0129009 -0.0285924 0.00633192 
-0.0136005 -0.0246647 0.00709274 -0.00807272 -0.0274342 0.005759 -0.00821766 -0.0235895 0.00696462 
-0.0036704 -0.0278963 0.00613892 0.000690674 -0.0282821 0.0062826 0.00195287 -0.0234685 0.00466569 
-0.000669122 -0.0246987 0.00776742 -0.00230299 -0.0210775 0.0065531 0.00458086 -0.0286467 0.0040184 
0.00884464 -0.0271382 0.00423904 0.00563004 -0.0253286 0.00613815 0.0108177 -0.0279492 0.0077305 
0.00919412 -0.0235661 0.00666609 0.0204024 -0.025465 0.00542176 0.0163734 -0.0241209 0.00554593 
0.0205314 -0.0212725 0.00538932 0.0181223 -0.0287356 0.00633776 0.0260218 -0.0223968 0.00628525 
0.0283509 -0.02582 0.00647666 0.0237964 -0.0253816 0.00779616 0.0334106 -0.0237032 0.00418891 
0.0365126 -0.0210487 0.00422383 0.0370141 -0.0255797 0.00420359 -0.0403408 -0.0196537 0.00398935 
-0.0382591 -0.0159373 0.00407785 -0.0426704 -0.0142171 0.00401202 -0.0375032 -0.0185859 0.00770365 
-0.0415939 -0.0172015 0.00690839 -0.0363138 -0.0199094 0.00398507 -0.0316187 -0.0205567 0.00477014 
-0.0335564 -0.0172253 0.00572792 -0.02995 -0.016466 0.0040975 -0.0302121 -0.0177656 0.00795936 
-0.0313512 -0.0134096 0.00636391 -0.0216214 -0.0177969 0.00499604 -0.0255653 -0.0167888 0.00480812 
-0.0229691 -0.0144006 0.00674414 -0.0161739 -0.0175534 0.0059271 -0.0121136 -0.0170353 0.00540273 
-0.0188921 -0.014581 0.00632173 -0.0146756 -0.013781 0.005776 -0.019253 -0.0193462 0.00787074 
-0.0142141 -0.0206826 0.00750882 -0.006412 -0.0200972 0.00602419 -0.00598031 -0.0160203 0.00603426 
-0.00937447 -0.0139251 0.00562596 -0.0102637 -0.0200452 0.00740195 -0.00142882 -0.0169809 0.00688424 
0.0022014 -0.0199688 0.00726875 -0.0032331 -0.0129395 0.00634031 0.000695557 -0.0132596 0.00720442 
0.00455328 -0.0143266 0.00734691 0.0119609 -0.0190212 0.00679152 0.00802717 -0.0196733 0.00730604 
0.00835234 -0.0156153 0.00752226 0.0120034 -0.0139081 0.00775185 0.0180392 -0.0141084 0.00444736 
0.0202675 -0.0172947 0.00622308 0.0149803 -0.0163086 0.00653653 0.0166408 -0.0200106 0.00643796 
0.025146 -0.015488 0.00410801 0.0242052 -0.0187376 0.00632439 0.0282735 -0.0190517 0.00646001 
0.0323317 -0.019824 0.00533255 0.0351898 -0.0170392 0.00401324 0.0296056 -0.015616 0.00489479 
0.0332406 -0.0140083 0.006162 0.0394466 -0.016163 0.00541214 0.0427073 -0.0138074 0.00557456 
0.0400351 -0.0202078 0.00649749 -0.0422272 -0.0090135 0.004151 -0.0392354 -0.00560224 0.00406308 
-0.0392903 -0.0116816 0.00487511 -0.043583 -0.0110186 0.00780295 -0.0399438 -0.0079607 0.00725491 
-0.0440044 -0.00674848 0.00776503 -0.044673 -0.00554127 0.00402835 -0.043932 -0.00821664 0.0115083 
-0.0372068 -0.00487026 0.00748444 -0.031035 -0.0100203 0.00425307 -0.0363415 -0.00886483 0.00423179 
-0.0346943 -0.01367 0.00412607 -0.0333236 -0.00737658 0.00654839 -0.0305993 -0.00536714 0.00423476 
-0.0351046 -0.0117315 0.0076758 -0.0289636 -0.00788036 0.00697984 -0.0252434 -0.012516 0.00398393 
-0.0209919 -0.0118234 0.0040857 -0.0255075 -0.00836646 0.00410563 -0.0212062 -0.00740967 0.00405235 
-0.0276003 -0.0118042 0.00719387 -0.0241928 -0.0097472 0.00802184 -0.0136255 -0.0099306 0.00529922 
-0.017605 -0.00953472 0.00456415 -0.0179074 -0.00525065 0.00541104 -0.00818348 -0.00924551 0.00581691 
-0.00540722 -0.00626697 0.00544592 -0.011354 -0.00742095 0.007455 -0.00131404 -0.00590788 0.005652 
-0.001004 -0.00963844 0.00707852 0.00272536 -0.00829294 0.00774063 0.00541648 -0.0101408 0.00529768 
0.00860246 -0.0115443 0.00732579 0.00603075 -0.00579531 0.00742483 0.0189553 -0.00668398 0.00578624 
0.0157687 -0.0124873 0.00746068 0.0156038 -0.00849074 0.00702748 0.0221613 -0.0125825 0.00419496 
0.0253508 -0.00994968 0.00436758 0.0255802 -0.00605474 0.0052658 0.0277841 -0.0124161 0.00646504 
0.0220496 -0.00924255 0.00663537 0.0221648 -0.00468116 0.00736864 0.0312843 -0.0103898 0.00611364 
0.0353739 -0.0106019 0.00673283 0.0401544 -0.0103844 0.00571149 0.0439977 -0.00850927 0.00545253 
0.0408239 -0.00467875 0.00602298 0.0376223 -0.00730212 0.0060746 -0.0446392 0.0033465 0.00409006 
-0.0385371 -0.00149511 0.00487852 -0.0449397 -0.00149481 0.00403919 -0.0386082 0.00193209 0.00693899 
-0.0418985 -0.00335162 0.00636689 -0.0449283 0.000778262 0.0073276 -0.0351437 0.00301062 0.00407159 
-0.0287324 0.0025352 0.00398602 -0.0350333 -0.00416943 0.00413994 -0.0300848 -0.00401893 0.00797876 
-0.0326448 -0.000962805 0.00789872 -0.0215878 0.00178702 0.00406461 -0.0241443 -0.00134031 0.00401383 
-0.0287471 -0.000148468 0.00711315 -0.0268166 -0.00460618 0.00556339 -0.0199186 -0.00178101 0.00529254 
-0.0226687 -0.004435 0.00645026 -0.0246453 0.00203515 0.00698064 -0.0130341 -0.00410352 0.00571264 
-0.0158398 -0.0010727 0.00571734 -0.0150376 0.00283966 0.00541354 -0.0118981 0.00034168 0.00539363 
-0.0075627 -0.000626002 0.00520072 -0.00894275 -0.00437169 0.00619625 -0.00351667 -0.00258891 0.00598965 
-0.00326015 0.00142846 0.00545359 0.000233324 -0.00096523 0.00600819 0.00231735 -0.00435152 0.00660471 
0.00264154 0.00195099 0.0073513 0.00662284 -0.0017322 0.00551366 0.0110608 -0.000178202 0.00529253 
0.00584844 0.00265502 0.0048782 0.00959776 -0.00400792 0.00697626 0.0152229 -0.00435268 0.00595644 
0.0190434 -0.0025916 0.00598374 0.0134784 0.00302756 0.00608408 0.0159077 -7.79429e-05 0.00676334 
0.0197229 0.00115503 0.007238 0.0287959 -0.00395887 0.00682306 0.0252836 -0.00209855 0.00758395 
0.0236622 0.00184984 0.00780974 0.0279176 0.00329275 0.00701803 0.0353025 -0.0040776 0.00658219 
0.0351881 -0.000110892 0.0070752 0.0314238 0.00128763 0.00698752 0.0447971 -0.0028959 0.00658271 
0.0449404 0.0011403 0.00671403 -0.0372888 0.00932368 0.00398697 -0.0392896 0.00472758 0.00404526 
-0.0441251 0.00873003 0.00403294 -0.0421681 0.00614642 0.00645705 -0.0383163 0.00705856 0.0071606 
-0.043799 0.0101598 0.00813325 -0.0309343 0.00737993 0.00399599 -0.0344207 0.00757412 0.00629955 
-0.0290534 0.00892422 0.00756846 -0.031848 0.00354311 0.00642666 -0.0354362 0.00404853 0.00809929 
-0.0348323 0.0102889 0.00967271 -0.0221258 0.00990551 0.00407264 -0.0272333 0.0059239 0.00544881 
-0.0230553 0.00592887 0.00437788 -0.0273591 0.00972643 0.00404624 -0.0245263 0.00859087 0.00706695 
-0.0205514 0.00846378 0.00761237 -0.018476 0.00429208 0.00396704 -0.0182557 0.00855373 0.00398382 
-0.0144595 0.0069927 0.00412934 -0.0146846 0.0108994 0.00637097 -0.0174921 0.00538628 0.00766738 
-0.012493 0.00776221 0.00772304 -0.0112864 0.00449079 0.00536253 -0.0110584 0.00927458 0.00431917 
-0.00625056 0.00426609 0.00530851 -0.00715629 0.00803473 0.00404072 -0.00859112 0.006692 0.00758582 
-0.00323425 0.00673701 0.0041596 -0.000112958 0.00389853 0.0049464 0.00326967 0.00573051 0.00604992 
0.000261152 0.00834573 0.00547139 0.00398402 0.00972352 0.00487931 -0.0023258 0.0113058 0.00636642 
0.00708001 0.00672512 0.00533856 0.0109691 0.00736662 0.00455947 0.00834794 0.0108982 0.00564368 
0.00951018 0.00361506 0.0063037 0.0174184 0.00396756 0.00556466 0.0149332 0.00708286 0.00516891 
0.0187149 0.00804324 0.00605182 0.012915 0.0108946 0.0044106 0.0168257 0.0114764 0.00501831 
0.0288549 0.00908404 0.0058393 0.0248404 0.00954811 0.00527287 0.02126 0.0048705 0.00650859 
0.0350648 0.0037263 0.00590269 0.0369326 0.00696152 0.00421463 0.0314107 0.00544338 0.00666379 
0.0327858 0.00937723 0.00656409 0.0443765 0.00526375 0.0043081 0.0404974 0.00854834 0.00567856 
0.0433728 0.0108303 0.00399749 0.0371916 0.0103245 0.0072029 0.0388939 0.00395933 0.00757731 
0.0442248 0.00790849 0.0078236 -0.0417467 0.0163514 0.00429873 -0.0400756 0.0108343 0.00680193 
-0.0426836 0.0141491 0.00767374 -0.0387207 0.0145209 0.00784502 -0.0377814 0.0154145 0.00402261 
-0.0323411 0.0165572 0.0040405 -0.0317774 0.0116448 0.00473364 -0.0354877 0.0192594 0.00402731 
-0.0306322 0.0190714 0.00667066 -0.0304526 0.015011 0.00719408 -0.0354718 0.0123166 0.00614925 
-0.0350748 0.0165462 0.00702744 -0.0209452 0.0162314 0.00401329 -0.0280089 0.0144614 0.00402806 
[...]
POINT_DATA 6000
FIELD FieldData 7
id 1 6000 int
162 1648 811 993 258 638 170 550 684 
552 2537 626 244 825 123 791 69 270 
600 230 281 1628 474 330 529 75 278 
1022 221 1072 822 1090 393 507 588 789 
1301 365 329 519 727 46 843 176 80 
20 118 935 471 107 2366 1713 957 2326 
434 1458 678 128 1491 171 404 1561 1452 
380 1157 1156 444 333 1381 1436 184 1542 
28 377 1091 911 214 109 1061 852 732 
402 85 314 435 126 484 1570 916 2452 
2863 1243 136 17 1016 906 206 1108 635 
168 1369 1266 1216 1560 262 1131 673 803 
564 327 1171 1219 1101 1684 1861 235 780 
161 725 2 455 1138 1440 677 515 156 
988 274 111 437 350 606 364 740 1525 
1462 1611 2264 1424 748 3201 1667 236 353 
45 952 1709 1300 1304 840 366 590 153 
1727 96 105 388 196 764 368 836 98 
1206 830 469 410 633 1232 445 256 841 
282 858 392 1038 616 440 781 396 512 
18 178 849 857 2022 2328 1944 893 483 
865 1426 1223 900 1480 250 1645 1340 538 
310 442 1066 1287 937 667 122 451 605 
578 508 724 359 942 104 286 758 951 
217 354 1205 565 558 301 405 76 91 
308 379 34 1732 166 1177 887 680 92 
1887 1095 1218 1246 2778 1037 1798 1180 851 
306 2167 701 559 472 1070 859 266 1643 
587 879 619 177 513 634 130 532 253 
553 340 1271 659 82 53 1094 785 381 
523 390 344 545 47 805 211 682 384 
1766 886 1372 1015 1045 383 403 656 1215 
583 1528 687 100 896 146 1642 1267 1534 
2095 456 795 420 132 1864 418 1831 2262 
27 1398 348 603 347 231 560 490 1465 
1048 867 907 1185 1888 890 352 134 914 
1117 2132 1075 665 164 124 154 59 1272 
1471 551 1182 400 598 208 1576 209 997 
938 1228 664 305 2398 1805 129 2266 1724 
540 2454 2383 40 13 299 676 385 1320 
2197 121 357 370 288 1211 663 461 1510 
983 756 142 1000 681 439 1339 1581 1316 
959 275 557 666 50 1192 453 2100 1792 
1738 438 1910 149 1829 207 1526 338 341 
496 2659 2704 181 1687 44 133 927 1024 
863 809 1164 367 2116 254 1679 637 819 
601 194 373 940 127 200 325 227 826 
279 853 592 57 1429 2528 688 1536 23 
2705 61 1693 2776 362 1043 1414 9 618 
1961 2915 2629 575 3595 3101 1901 2523 2999 
1711 86 31 910 572 828 1146 417 160 
862 970 1195 1069 524 620 1621 1162 1118 
60 530 229 175 446 399 1564 1017 658 
874 672 2182 2511 2633 797 2393 1311 421 
869 1074 48 88 1093 466 762 265 755 
561 1044 316 1139 441 498 574 62 632 
252 589 1 1011 452 139 1741 71 537 
622 38 1031 1619 1883 1903 204 835 660 
502 652 1039 647 549 1115 1401 1269 1071 
713 976 32 427 1419 991 7 646 479 
499 1135 1078 179 926 1387 145 547 1097 
812 761 2109 1290 148 307 1191 989 415 
1141 839 276 2213 304 786 51 685 1203 
784 568 382 955 670 735 339 1652 363 
2547 870 251 248 2460 662 49 3639 3382 
973 525 3298 3008 2636 1757 2663 2432 2097 
984 2292 397 1358 2263 691 1421 1934 2883 
1240 885 2023 707 1562 1172 829 56 1790 
263 883 369 1258 1085 349 759 716 1523 
1342 1252 944 1276 793 749 112 648 1244 
1626 25 1368 898 448 193 1001 2439 464 
1761 1166 1435 460 782 848 219 1583 449 
1270 1338 337 411 640 398 1406 201 2752 
992 2055 284 522 64 223 708 291 215 
1148 945 3 165 268 35 706 531 2810 
2418 3534 774 143 738 679 3110 1606 1859 
2104 2059 1768 2118 3939 1334 2113 1450 2459 
2060 1505 2606 3353 2990 103 671 1412 1348 
1551 769 1234 1444 1872 1734 808 450 1430 
535 623 505 1023 1357 1067 982 919 2056 
1058 650 1665 95 526 185 555 1824 607 
1549 750 182 949 138 1151 1155 1274 1057 
116 1281 921 1253 1781 11 962 1198 860 
458 1897 909 492 801 94 1194 827 2580 
861 73 247 296 1189 894 694 985 371 
1802 2785 1853 1318 917 528 1333 1123 1354 
1630 1962 2329 2389 2687 1722 2385 3305 2900 
3446 1052 2105 1959 833 3005 963 1782 3020 
1598 1288 43 1590 1051 1578 1124 1620 721 
1002 731 1494 591 1175 1250 1795 815 779 
1634 974 163 1337 436 1573 610 225 1380 
65 831 975 760 807 995 345 1714 1453 
1208 931 285 1683 212 141 818 1036 987 
847 925 821 125 222 346 97 744 614 
669 548 602 581 1292 675 83 1213 29 
629 1092 630 520 577 1915 2438 1548 1765 
257 654 216 576 1472 747 313 1184 81 
3600 2071 3093 2691 2974 3189 3393 3544 3915 
3153 2965 3246 2265 1420 2696 3177 2977 1605 
1158 1400 567 1422 651 1898 87 1723 2273 
715 283 892 705 1427 1524 722 462 1942 
318 326 465 487 280 137 376 1310 832 
714 1040 269 4 873 419 37 488 1143 
322 1165 457 115 1169 882 202 41 422 
1459 1233 1286 188 1321 908 213 699 1217 
617 290 787 783 1257 277 70 1404 33 
999 187 645 864 324 238 8 261 580 
1027 964 1362 1403 1032 432 401 1065 609 
210 302 1891 1584 1397 1129 1466 374 1614 
1816 3662 55 2577 2748 3210 1531 2302 3546 
3089 1850 2591 2987 2807 2686 3209 311 1385 
514 2391 2296 1432 2032 2190 273 2928 1654 
430 1541 817 246 763 534 697 695 360 
159 1952 1389 668 923 689 1054 372 106 
1359 1229 120 946 834 1567 1014 615 391 
585 613 541 1438 489 846 1050 928 1159 
776 334 653 271 1073 703 180 99 443 
814 1187 1214 423 480 936 1804 775 447 
198 875 980 1284 395 627 981 726 1056 
463 1046 1930 459 582 1730 1221 1886 78 
408 1305 26 1225 2249 2258 2447 2642 3162 
3087 2341 3068 2400 2924 1923 3023 2781 3399 
1527 67 950 2852 3431 1126 1556 3094 1188 
2545 516 1378 144 21 328 1835 1167 518 
1329 1653 798 915 539 110 1700 1530 1719 
2484 1478 1783 845 501 1149 1237 342 147 
1106 259 1328 1332 332 799 323 191 1119 
2177 889 1327 233 1532 1029 1797 1854 596 
2426 1314 1464 2354 1671 1511 1499 2274 2911 
1446 2280 19 2857 245 1632 173 1259 2654 
3753 1568 2897 1637 241 1612 3045 2905 2875 
242 2655 1913 1689 1034 2501 2583 2462 2593 
2789 3815 3514 1817 431 2235 2345 2404 2352 
1991 4184 2311 1490 319 1186 924 1916 1941 
2120 1099 1103 933 1388 2073 1260 2241 1481 
2941 2972 2294 1904 1516 1957 2862 1173 1497 
2441 2619 2551 2631 2879 2048 1896 2455 2544 
2210 1862 1819 1821 1107 1638 2521 2153 3436 
3106 3909 3755 2793 2217 2961 4154 2534 1487 
2334 4280 1855 2331 267 2555 4191 2579 1958 
2136 2517 2751 412 2676 478 387 3107 903 
1673 1851 2103 2814 2764 2161 4264 1538 1514 
1662 2799 2519 2622 4268 729 298 1747 1010 
1969 766 3396 1005 1226 2527 1299 521 2395 
2830 1749 2411 2574 2315 2142 295 2996 1390 
2475 1168 3099 536 2364 742 476 343 3058 
3689 2081 4227 3218 4105 2709 2324 4035 2220 
3432 3466 4020 3993 3166 2290 4867 4032 895 
1906 1791 2794 1520 2256 1136 3762 1399 2064 
3367 546 1028 961 1047 15 2589 2151 2289 
1807 3405 1077 1325 2403 806 1818 674 2283 
3052 3409 1579 2515 1762 2111 1306 2940 189 
1970 413 2737 611 636 433 2955 1907 2635 
3082 1317 1750 2844 2731 3530 1294 1492 1261 
1449 1060 517 1197 1922 1053 773 1733 1181 
842 1706 14 493 320 172 810 66 2444 
902 63 1715 3471 2101 1625 117 2378 1376 
1846 2677 1379 1307 1546 468 292 2809 2681 
135 1890 2586 1787 2347 918 1691 2867 542 
2019 3269 2479 2920 1588 2173 930 2477 1716 
1345 2094 649 358 1445 500 711 336 850 
1810 2327 960 1336 752 1776 1456 1163 948 
897 1366 2003 570 297 979 425 778 1283 
1231 300 2070 1238 929 804 152 1055 2894 
1678 351 1699 2502 1899 1483 1280 772 2648 
1841 2074 802 2085 2323 1775 3227 3439 3397 
2394 2487 3492 2850 4232 2001 4124 720 3098 
1668 2122 5217 4746 3938 4074 3416 4362 2490 
2510 2611 608 1021 2338 1770 2423 2387 2297 
2410 2363 2212 2428 1641 1254 1616 1694 2478 
2028 2340 1911 1927 1559 1235 1134 2272 1068 
891 972 1409 1133 1476 1981 1086 167 1936 
1375 753 2214 1537 2259 6 2086 1003 2291 
2298 3105 3073 1842 2407 2540 1408 2247 2123 
696 1580 2125 2494 3077 2773 2449 2741 2997 
1517 3493 3213 303 3964 2740 2775 3379 3591 
3841 4083 3147 710 3923 1145 3933 2008 3059 
5181 4088 3455 473 3212 2738 4046 2469 3254 
3048 4254 4005 2512 3065 2181 2099 1945 1710 
2620 3128 2881 1953 1273 1448 1161 2050 486 
692 1147 1356 1876 1239 1335 84 1822 503 
595 586 693 2083 1974 533 624 192 1080 
1468 378 2504 2058 566 1979 1319 1823 1355 
1635 454 1575 2194 2082 218 1894 977 1543 
2010 1153 884 1940 1895 2948 2102 968 1720 
509 2230 712 1137 3003 1692 2232 416 1555 
2322 1928 3914 1298 2953 2542 190 2930 3618 
2602 2703 4405 1152 2626 2339 3549 3006 1837 
2020 4002 3184 2870 3542 4940 3745 3659 3685 
3617 4559 3838 3641 2015 1703 3588 2446 3083 
2744 3257 3613 1878 2945 1202 1122 771 1082 
2317 2002 1892 3062 1125 1728 1496 108 1116 
36 151 356 739 736 495 556 1264 877 
1248 237 1485 317 475 240 1278 355 813 
406 1617 1006 249 872 686 119 1084 1035 
1760 224 260 228 1591 1997 1425 150 642 
1242 1685 428 3027 169 1170 733 820 723 
604 1935 2587 2355 1512 1968 1867 2550 1550 
698 2108 1633 1539 1088 2148 2585 1955 1914 
2261 477 737 2612 1939 1013 1828 4608 2356 
3583 3366 4507 3837 5053 4658 3652 4854 4155 
3169 3999 3157 2442 3707 4696 3858 1603 1908 
1729 2076 2932 2057 2164 1018 2141 2865 800 
1484 1391 1577 1064 1769 1595 1877 1150 424 
90 197 1812 643 1752 1582 1291 16 856 
777 5 1796 1007 1112 140 239 527 1220 
409 293 205 389 289 494 880 573 407 
272 1405 255 1230 1353 1312 89 158 1443 
58 1629 2532 2025 2051 2376 2174 2643 734 
309 1651 1585 1200 1838 1434 1503 102 1909 
628 1600 1607 426 612 1767 1905 1670 2227 
904 3511 3599 3579 3667 4473 4999 5637 3627 
4519 5993 3240 3501 1803 2052 3895 3248 3410 
2993 3193 4418 3450 1395 2006 1012 1460 2756 
1858 2516 2610 3037 506 386 593 1413 68 
1130 1545 1814 199 922 1599 2035 621 854 
562 1199 901 544 414 321 888 1344 1407 
157 913 264 1265 52 186 1033 1469 77 
1303 1059 24 510 939 1813 1455 1100 1081 
746 2817 941 1089 2063 1224 2219 39 1114 
2343 1596 1289 947 2488 641 1322 1832 1374 
1592 1315 1799 1949 2392 3012 2236 1874 1698 
1631 1352 1885 1063 1563 2420 2560 2666 2129 
3406 3444 4341 3910 2242 4603 4251 2983 3262 
3540 3934 3434 3806 3165 3340 3279 2760 4555 
3433 482 1843 2821 3398 3173 3400 3041 4613 
4549 655 2373 631 2144 2798 2465 792 1618 
3678 1554 1519 2985 2795 2053 2126 1127 3168 
2218 3095 2641 770 1868 1852 2657 1933 954 
1615 1951 1475 1844 2140 1602 2509 2384 1500 
2238 2440 1669 1351 3031 3239 2304 569 2518 
2960 3215 2653 3413 2805 2923 5110 4205 881 
2768 2754 3758 4909 4139 2600 3793 4837 2739 
4159 3726 1236 2013 3857 3022 3681 3185 2257 
3427 2835 2895 3661 3775 4277 1932 3843 3868 
4334 3304 5185 4098 4190 2729 2306 4135 3675 
3581 3442 2868 4126 4698 2826 2535 2570 2828 
3430 2467 3904 3339 4693 4520 823 2497 3117 
3070 2690 3256 3457 3526 3163 2396 2526 2572 
2221 2707 2546 2500 3563 3510 2656 4070 3389 
3757 2849 4065 4650 2027 2436 4403 3851 5135 
4252 4346 4872 4377 3488 4857 5090 3243 4452 
3040 4592 4883 4616 3010 5495 5422 4810 5040 
2708 2944 3322 2797 4933 4352 2117 2962 3809 
3719 4158 4635 4164 4748 3463 3038 3779 4082 
4115 3288 1718 2299 2980 4995 3810 3614 4043 
3356 2720 3929 3206 3597 3816 3002 4001 2588 
2424 2067 3625 2618 3590 4348 4045 2530 3859 
3822 3408 4482 2975 2646 5259 5226 5150 4711 
4188 3321 4459 3245 5726 3988 4678 3585 5200 
2950 3512 3805 3411 1121 1535 3517 2499 1308 
2788 3551 4019 2825 1627 2077 4360 2665 4381 
2869 2884 3028 3615 2514 3747 2695 3491 3316 
3967 4391 3647 2549 4345 4176 2325 3226 4865 
3310 3364 4671 4571 3420 3017 3126 3980 3368 
3536 4138 3369 2543 1827 42 315 429 294 
998 1204 2346 1990 978 767 30 2206 1735 
1393 1193 101 2617 2451 1371 234 2192 2380 
2457 969 2049 1277 3861 2216 2513 2856 3208 
3724 3730 3953 3827 3655 3941 3129 3453 4073 
3968 4569 3839 4768 4942 4718 3418 5124 5760 
1482 657 1809 3520 1739 1383 2000 1947 2149 
1647 2036 1160 971 2237 543 1926 1004 1245 
2038 1748 700 1676 1479 1994 584 1971 1929 
2435 2772 2309 2614 2627 1788 2848 3137 2791 
3011 2992 3009 2065 3315 4831 3465 3663 5345 
3555 2303 4700 3834 3741 5858 4122 3935 4605 
2969 4930 5194 3982 4080 4649 4777 5363 4598 
5049 5691 4590 4087 3216 4026 4284 2552 3336 
1574 3066 3229 3473 2481 2658 2145 1800 2877 
2062 2491 2127 2106 2248 3231 3100 481 2228 
965 1586 1839 1604 838 1447 1486 2417 2482 
1996 1772 1963 1811 1489 1834 1696 1931 625 
2196 2332 2254 1594 2409 1660 2496 1111 2382 
3079 3280 3016 2892 2783 3508 3372 3965 4384 
3351 3506 3867 3270 2260 4285 3770 3577 4263 
3729 2694 4530 3772 4260 4003 5384 4638 3688 
4496 5043 4518 4430 5498 3710 4353 3576 3387 
3702 3913 5935 5663 3075 3039 3313 3421 4000 
3251 2762 3293 2836 4178 3992 3344 3905 4053 
4328 2561 3309 2233 4374 3151 3470 4498 3272 
491 1104 1984 1786 1658 899 2616 2171 2745 
2761 1384 2004 757 1815 644 1222 1513 1349 
511 2207 1900 1326 1657 2072 966 1836 2176 
1701 1875 1470 2651 2362 1992 2682 2198 1826 
1977 943 1113 1109 361 2115 3564 1639 1663 
2747 3727 1251 4219 3026 1062 1313 1995 2711 
3033 3580 2506 3219 3611 4355 4350 3732 2147 
3230 3414 876 3032 3666 3381 3295 3311 2746 
2135 2222 3984 2569 1707 3335 3324 4946 3635 
4691 4246 4618 3680 4419 5960 4443 4802 4089 
4064 3977 3636 4062 4708 4804 3750 2226 1179 
2724 3743 990 2899 2143 2139 2966 2851 10 
1364 2215 1690 996 1680 788 1921 571 1529 
1295 905 745 1142 1144 1087 1190 2087 1467 
1780 794 1920 1247 1477 1533 1493 2042 2068 
155 1674 1597 1771 1656 1386 287 1020 1544 
1431 1547 1697 2672 131 1363 1967 702 2089 
1128 1777 72 2640 2128 1688 1655 1506 3035 
1241 1382 2189 113 2054 2080 2912 2531 2770 
1686 4478 2623 2358 1331 1347 3102 1154 1437 
2453 3013 2603 3459 3698 4753 4091 4922 4528 
3624 3485 4624 5360 4558 4755 3573 4731 5264 
5060 5117 2040 3142 3292 3276 2314 3622 3357 
4316 1227 967 1361 1569 2548 1293 1008 1370 
1268 1330 335 243 1324 174 1960 79 790 
1207 74 331 1613 2034 866 1275 920 1993 
1030 1297 485 1212 1753 22 195 2313 1794 
1418 1377 2767 1296 1096 2312 1845 1972 2250 
2162 1871 2503 2480 3192 3297 2982 2419 2958 
2114 2245 639 1721 2750 3103 1751 1098 2959 
1461 2613 5269 3768 5725 5215 4593 4449 3842 
4717 4566 5386 5018 6002 4898 5138 2295 2833 
4655 3318 4379 3495 4961 3468 3847 2701 1076 
2090 2986 1102 3721 1454 2661 2305 1279 1201 
1518 2991 2360 2133 1120 3197 932 2021 2889 
232 2016 1522 1343 1552 599 1049 2348 2929 
816 554 1943 1083 12 718 1019 704 1410 
2275 1825 226 1985 1755 878 2045 1442 2370 
594 1754 1983 2369 2813 2406 1978 2156 2861 
3136 1708 2202 2910 3323 3238 4055 3570 1474 
986 563 2184 3494 2130 2860 3481 1571 4707 
4907 5809 5222 5310 5559 4145 5562 5670 3146 
3679 4152 5786 4662 5207 4962 5671 5777 5973 
4351 4701 3334 5066 4844 3897 5549 4213 3696 
2766 1973 3489 3885 3145 4354 4955 4508 4915 
3811 3619 3646 3958 3190 4118 4490 4793 2816 
2152 2765 1402 2634 1682 2359 690 4395 1176 
2725 1508 2679 3376 3916 2374 3537 4117 4661 
743 2903 1702 2279 2163 3649 4094 2753 3452 
3317 4920 4072 3529 2229 4668 2842 4685 4298 
5050 5487 4842 4114 4276 2650 2780 4004 3677 
2758 3594 4533 4830 4526 4270 4432 5766 5056 
5780 5984 4937 5575 4293 4453 6063 5758 4798 
5881 5986 4077 5082 5119 4200 2995 4738 2727 
3036 4169 4504 4584 5721 3705 5099 3584 5096 
4852 4724 3505 2854 2904 4119 2660 2947 4113 
3480 3865 5785 2592 2952 2978 2957 3686 3704 
3951 2893 3307 4882 3232 3476 5537 4314 5476 
5764 4715 4895 5270 2692 2568 3900 4932 5155 
5566 5577 5006 3903 5084 4269 3855 5560 5007 
4885 5541 5991 5524 4901 4948 4680 5380 4789 
3071 4692 4630 3898 4634 5543 3290 4317 4474 
5139 5819 4765 5447 3383 5713 4583 4664 4108 
5473 5296 5615 4617 5720 4034 5231 4690 3749 
4953 4198 4651 4394 4199 5835 1964 3780 4100 
4069 2820 5742 4181 4245 3848 4390 4543 4012 
5431 4606 3665 2946 4506 5925 4438 5218 5009 
4964 3996 5600 5989 4335 5981 5176 2888 4791 
5664 3552 4197 5815 4536 5583 5633 4881 5934 
4258 4815 5074 5863 4965 3919 5982 5180 2726 
2193 5868 3643 5331 2699 3963 5419 5621 5126 
3889 3651 4983 4639 4256 5184 4057 3186 2463 
3908 4926 4591 3566 5417 4705 4850 5694 3291 
4573 4224 4392 4513 5367 6025 5133 4480 3327 
3545 4699 3950 5460 5161 5103 5821 5542 4477 
1840 1451 1801 1360 2605 2134 2277 2096 871 
2069 3509 2891 114 2353 2495 3475 2846 3767 
2811 3374 1705 1998 3975 2698 2684 3361 3363 
3902 3856 2749 2787 2639 3773 4133 3883 3449 
3124 4272 5236 3458 4544 3464 4303 4006 4017 
5406 3347 4466 4447 3949 5808 4128 3723 3668 
4365 4371 2412 1849 3893 1624 2175 1924 2093 
2971 2336 2538 2556 3195 2721 1873 1869 1498 
1367 1695 4237 2652 2112 2567 4025 2925 1870 
3424 2882 2596 3684 2823 3132 3122 4063 3349 
3141 3748 3116 4179 1664 4527 3769 3920 4187 
3653 5163 4846 4131 5833 4956 4229 4202 4556 
4874 6045 4985 3699 4747 5106 4602 5265 5846 
5290 6012 5235 4740 5684 4646 4434 6037 4982 
6059 5229 5943 1948 3754 3025 3085 3607 2200 
3462 2963 2700 2493 3407 2994 2716 2578 1675 
3265 2647 2847 1746 2680 1881 2667 2468 2320 
2119 1880 2321 2075 3524 2372 1623 3778 2557 
1863 2039 2859 2604 2414 2168 2743 4036 3224 
2282 3634 3337 741 3225 4918 1889 3196 5446 
3532 2638 1209 3516 5723 4540 3781 2489 5840 
4029 4378 5128 4292 5206 4367 3538 4800 4595 
3994 4659 4290 5105 4211 5412 5913 3672 5513 
5451 4741 4703 4682 5304 5936 4689 5716 5348 
1650 3714 4782 2335 2670 4182 2018 2430 4217 
2801 3115 1833 3402 2802 1893 3139 2377 2757 
1866 2473 2318 2421 1346 2399 2137 2307 2470 
2005 2554 2576 2779 1110 2061 1636 2240 2594 
2466 2351 2098 1725 1808 2188 1950 2413 2624 
1557 2344 1856 3392 765 1912 1589 3346 2017 
1439 4903 1704 3435 3217 3860 4021 5317 2461 
4796 4302 2033 5065 4243 3620 3828 2800 3160 
3486 4257 3826 4457 3443 5281 3807 3373 4511 
3872 3375 4389 5014 3019 5915 1659 3479 4013 
2536 5680 3069 2310 3709 3377 4066 4150 3522 
4494 3823 4576 2774 3274 3234 3814 5741 1902 
2769 3074 2669 3504 2717 4636 3034 1784 2209 
1789 2375 2759 3214 1609 2898 2208 1350 796 
1736 1495 2571 1282 1764 1262 751 2110 1396 
2246 719 1649 1622 1918 1672 2507 1025 1256 
855 1309 1488 1473 1540 1820 1756 1982 1759 
1847 1773 768 2330 1183 1501 1975 956 2431 
2609 2284 1507 2927 2951 3606 3084 3342 3478 
3057 3550 2688 1041 4212 3777 3957 2843 2998 
3359 4376 4309 3682 4240 3831 3419 4186 3111 
5983 4492 4866 5765 2388 5351 4067 3097 2914 
4261 3261 4792 4282 3683 1553 2907 5793 1504 
1986 2204 3123 2037 3528 2012 4161 5432 824 
183 2084 2160 2029 312 2270 3198 1210 1463 
2599 1502 1255 1572 2223 3200 754 1105 994 
1441 1026 504 1712 579 2253 1079 2742 1882 
709 470 2157 1980 2030 2276 3693 2166 2755 
1566 2664 3472 2397 2866 2456 3650 2107 3220 
3784 3388 2379 2943 3782 2437 2896 2732 2251 
4382 3260 1587 2933 3362 2486 3394 1249 2837 
3127 4337 5622 4193 5068 4009 3813 3252 4779 
3878 5311 4076 4877 4310 3320 3067 5399 3891 
5496 5995 5597 3734 4142 2522 5204 2349 2124 
2973 3350 3474 1989 3266 3143 3135 3278 3061 
3249 3352 4040 93 2885 2541 2281 3054 2832 
220 2683 2508 1263 2333 1415 1009 2718 1132 
2829 1987 2841 2845 3253 2525 1830 2553 2342 
3593 3567 2901 4226 2031 3890 3852 2964 3282 
1411 4078 4727 3644 3798 3296 4448 4436 2365 
4597 4722 3328 4824 4745 3829 1394 2796 2719 
2968 1946 1610 1884 3469 5990 5249 3701 4778 
3972 4627 5847 5967 5012 3720 4900 3608 2979 
5197 5843 2902 5636 4096 3637 3258 4829 4670 
5263 5283 3156 4327 5963 3658 4023 5177 5418 
4429 3255 4966 4396 5407 4230 3715 3051 3500 
2713 4266 4097 3976 3700 4247 4404 5130 6062 
4385 2908 4343 4916 4816 3817 3263 4323 4204 
5965 4239 4081 5658 3503 5027 4614 4913 4622 
5878 4306 3518 2615 4517 4370 3064 5251 2505 
3765 4632 4450 4807 4512 4375 3289 5343 6031 
5693 3460 5373 5201 5470 6023 5280 5248 3338 
5685 5467 5602 5890 5855 4030 5509 5391 4969 
5214 5525 5743 4294 3691 4366 4971 5287 5911 
4673 4157 5321 4109 4203 4684 4093 5253 5538 
5172 4911 4435 3979 4887 4485 5123 6055 5818 
4387 3275 5092 4653 3946 4144 4763 5834 4637 
5083 4783 4470 4234 5952 4445 4068 5162 5678 
5616 5465 4781 5075 5503 5787 5582 5652 4876 
4714 4725 5781 5806 4599 4557 5717 4289 5914 
4244 4170 5017 5375 5394 5137 5234 5550 5116 
5814 3880 5862 6034 4921 4629 5032 5969 5897 
4503 4535 5942 5342 5916 4899 5919 5812 6021 
5228 6000 5644 4991 5954 4414 4487 4641 5164 
4806 5594 4163 5454 5042 5254 5519 4772 5033 
4652 5595 3535 5464 5572 4990 4141 5174 5604 
5892 4112 5810 6006 4667 5574 5831 5683 4615 
5845 5267 4531 4730 5649 5143 5284 5471 3562 
2880 5374 4959 5650 5987 4273 4475 3998 5860 
4011 4514 5757 5651 4386 4054 3759 5225 5466 
5357 5770 5463 5921 5257 5491 5773 5931 4180 
5896 4908 5430 4300 6030 4997 5512 5125 4977 
5272 5749 5312 4524 4619 5836 1365 1743 2458 
3329 497 3944 3451 6017 3733 3794 4400 6058 
3844 4111 2782 3308 3708 5522 3223 5178 5539 
5048 4683 5219 4562 4033 4153 5409 5804 4060 
5282 3882 5515 4484 4427 5706 3285 4853 4600 