# vtk DataFile Version 4.2
Generated by LIGGGHTS
ASCII
DATASET POLYDATA
POINTS 6000 float
-0.0220239 -0.0391102 0.00340118 -0.023264 -0.0381831 0.00939547 -0.0126032 -0.0426224 0.00281033 
-0.0149371 -0.0378381 0.00772649 -0.0185811 -0.0404658 0.00837214 -0.0146528 -0.0420906 0.00669691 
-0.00586251 -0.0444504 0.00391799 -0.00718173 -0.0394518 0.00878512 -0.00888962 -0.0434751 0.00723282 
0.00219924 -0.0448684 0.00433456 -0.00175975 -0.0442134 0.00544119 0.0003473 -0.0408661 0.00863307 
0.00459462 -0.0412226 0.00577982 0.0106787 -0.042606 0.00530051 0.00636469 -0.0445054 0.00809812 
0.00718221 -0.0383703 0.00901298 0.0115906 -0.0378319 0.00751247 0.014015 -0.042552 0.00858445 
0.0177732 -0.0405494 0.00855978 -0.0308056 -0.0324613 0.0066684 -0.0257215 -0.0368452 0.00584118 
-0.0208512 -0.035414 0.00657143 -0.0266887 -0.0351861 0.00962923 -0.0254426 -0.0309597 0.00754257 
-0.0162535 -0.0306616 0.00974215 -0.0115392 -0.0329443 0.00960586 -0.000499219 -0.0369155 0.00930956 
-0.00297394 -0.0330453 0.00845157 0.00202255 -0.0332597 0.0076959 0.00557667 -0.029243 0.00906653 
0.0113135 -0.0293534 0.00774744 0.00879236 -0.0324583 0.00897768 0.0195391 -0.0342123 0.00713104 
0.0170376 -0.0312999 0.00846425 0.0258396 -0.0368501 0.00710065 0.0263187 -0.0323633 0.00843394 
-0.0389867 -0.0219505 0.00969246 -0.0359438 -0.0269632 0.00795797 -0.0350058 -0.0221136 0.00922603 
-0.0314614 -0.0246196 0.0069936 -0.0236968 -0.0276613 0.00904683 -0.0226883 -0.0217505 0.00950399 
-0.0179562 -0.0250377 0.00827412 -0.016218 -0.0213841 0.00796015 -0.00602654 -0.0240736 0.00561636 
-0.00101328 -0.025881 0.00707583 0.00852381 -0.0264187 0.00899471 0.0088843 -0.0209702 0.00943381 
0.0167487 -0.0260221 0.00958898 0.0217729 -0.0265805 0.00805707 0.0235609 -0.020883 0.00743213 
0.0267357 -0.0238394 0.00889646 0.0297758 -0.0278441 0.00809902 0.0354787 -0.0275911 0.00769316 
-0.0410027 -0.0174596 0.00824603 -0.0389607 -0.0138155 0.0092532 -0.0316242 -0.0180995 0.00946934 
-0.0349558 -0.0142381 0.00967583 -0.0277065 -0.0137885 0.00938731 -0.00502486 -0.0194464 0.00926173 
4.72293e-05 -0.0194472 0.00846655 0.0164707 -0.0196084 0.00971354 0.023133 -0.0164273 0.0091933 
0.0380336 -0.0108318 0.00970415 0.0445786 -0.00548547 0.00959174 0.0380653 -0.00463098 0.00979754 
0.0418971 -0.00213727 0.00889814 0.0449602 0.000461235 0.00946143 0.0444356 0.00589857 0.0091151 
0.0196081 0.0203574 0.00932148 0.0237655 0.0166326 0.00984192 -0.00662493 0.0311014 0.00913432 
-0.00688321 0.0351997 0.0088139 0.0205022 0.0398104 0.00938429 -0.0235002 -0.0383522 0.0167646 
-0.0202973 -0.0399869 0.0132272 -0.0151579 -0.038232 0.0125156 -0.0164387 -0.0418487 0.015241 
-0.0145171 -0.0375959 0.0173877 -0.0200604 -0.0402242 0.0179385 -0.010634 -0.0383808 0.0105314 
-0.00714236 -0.038139 0.0132046 -0.0122421 -0.0420774 0.0103151 -0.00692246 -0.0432033 0.0117122 
-0.0111164 -0.037592 0.0150254 -0.00811592 -0.0399864 0.0166302 -0.0121301 -0.042182 0.0149783 
-0.00866878 -0.044099 0.0157762 -0.00308106 -0.0446147 0.00981016 0.00134397 -0.0449363 0.0100774 
0.00283759 -0.040341 0.0120662 -0.00120493 -0.0409166 0.0131653 -0.00411547 -0.0447398 0.0153752 
0.00128177 -0.0449296 0.0142001 -0.00350503 -0.0373198 0.0154096 0.00243928 -0.0406904 0.0161132 
-0.00158171 -0.0409711 0.0175433 0.000133864 -0.0446682 0.0180896 0.00996548 -0.0438412 0.010829 
0.00471673 -0.0442346 0.012154 0.0077032 -0.0399853 0.0135995 0.0118556 -0.0410252 0.0131051 
0.00784757 -0.0440662 0.0149093 0.00411544 -0.0447353 0.0173161 0.0104563 -0.0390842 0.0164981 
0.0119127 -0.043191 0.0165967 0.00640229 -0.0404363 0.0178405 0.0145875 -0.0390875 0.0106048 
0.0186332 -0.0405784 0.0131564 0.0145029 -0.0382693 0.0146305 0.0157609 -0.0420834 0.0161509 
0.0195575 -0.0404066 0.0171241 0.0213522 -0.0395305 0.0104155 0.0249127 -0.037343 0.011255 
0.0233913 -0.0384132 0.0148463 -0.0332356 -0.0292498 0.0122521 -0.0303636 -0.0329633 0.0127335 
-0.032528 -0.0306777 0.0165212 -0.0248706 -0.0368514 0.0130027 -0.0228088 -0.0334909 0.00977377 
-0.0256855 -0.0315346 0.013032 -0.0219786 -0.0290504 0.0124083 -0.027649 -0.0354143 0.0158338 
-0.0284172 -0.0308066 0.0164433 -0.0230654 -0.0337643 0.0151334 -0.0217515 -0.0309874 0.017875 
-0.0170725 -0.0348474 0.0101017 -0.0142134 -0.0330199 0.0126574 -0.0203247 -0.0358684 0.0121961 
-0.0185657 -0.032405 0.0144743 -0.0181494 -0.036863 0.0155719 -0.00730773 -0.0287025 0.0104901 
-0.0042083 -0.0306005 0.0127363 -0.00877257 -0.0342607 0.0121846 -0.0066268 -0.03442 0.0156575 
-0.0111504 -0.0317179 0.0157684 0.000444061 -0.0364447 0.0148151 -0.00382368 -0.0360315 0.0115552 
4.41747e-05 -0.0290427 0.00993367 0.00309198 -0.034686 0.0116452 -0.000641329 -0.033195 0.012643 
0.00350421 -0.0344411 0.0167564 -0.00360959 -0.0313691 0.0166736 0.0022135 -0.0309224 0.0149469 
0.0111027 -0.0367831 0.0127831 0.00662022 -0.0361101 0.0135658 0.0104612 -0.0313259 0.0125586 
0.00616619 -0.0294251 0.0144047 0.0115936 -0.0336152 0.0158605 0.00942564 -0.0290482 0.0168012 
0.0076096 -0.0328674 0.0160796 0.0177011 -0.0365135 0.0102509 0.0201092 -0.0364561 0.0134932 
0.014306 -0.0343979 0.0103882 0.0176988 -0.0294137 0.012252 0.0137142 -0.0290504 0.0118367 
0.0195481 -0.0325117 0.0140669 0.0154158 -0.0337003 0.0145811 0.0175436 -0.0365299 0.016624 
0.0197061 -0.0293033 0.016656 0.0223941 -0.0337235 0.0104169 0.0217639 -0.0290548 0.0116004 
0.0281725 -0.0349654 0.011023 0.0238158 -0.0319058 0.0140176 0.0283573 -0.029521 0.0138004 
0.0219103 -0.0348281 0.017325 0.0257388 -0.0352422 0.0157224 0.0263142 -0.0309657 0.0172736 
0.0317676 -0.0314783 0.00993427 0.0325262 -0.0310816 0.0138649 0.0295041 -0.0337751 0.0148494 
0.0303134 -0.03032 0.0172758 0.034491 -0.0287906 0.0165592 -0.0373464 -0.0249481 0.0123494 
-0.0383972 -0.023363 0.0159042 -0.0320816 -0.0247591 0.0112671 -0.0316326 -0.0209143 0.01328 
-0.0305083 -0.0274802 0.0150535 -0.0340271 -0.0236416 0.015229 -0.0354476 -0.0274449 0.0157541 
-0.0314651 -0.0205688 0.0172631 -0.0279963 -0.0272201 0.0102835 -0.0233179 -0.0251811 0.0122655 
-0.0280397 -0.0236854 0.0124605 -0.0244774 -0.0274767 0.0154909 -0.0287538 -0.0234464 0.0164921 
-0.0238001 -0.0228777 0.0159409 -0.0160018 -0.0251701 0.0129444 -0.0162449 -0.0206849 0.0126859 
-0.0128076 -0.02298 0.0099288 -0.0205221 -0.0214718 0.0132009 -0.012914 -0.022675 0.0141695 
-0.0202772 -0.0253215 0.0150624 -0.0139813 -0.0281019 0.0155429 -0.0173042 -0.0278073 0.017785 
-0.0163734 -0.0228079 0.0162658 -0.0200454 -0.0212363 0.0171899 -0.013076 -0.0204439 0.0175804 
-0.00881205 -0.0285432 0.0144174 -0.0119803 -0.0266094 0.0121995 -0.00840308 -0.0247151 0.0119407 
-0.00551757 -0.0219648 0.0126441 -0.00459827 -0.0266719 0.0141629 -0.00675544 -0.0271432 0.0176805 
-0.0091602 -0.024105 0.0158524 -0.00523898 -0.0230651 0.0167267 0.00311454 -0.0277749 0.0122188 
-0.0035458 -0.0263876 0.0102563 0.00369642 -0.0237888 0.00982641 -0.000275776 -0.0231999 0.0115114 
-0.000458199 -0.0269267 0.014093 0.00319326 -0.0237672 0.0138873 -0.00059791 -0.0286058 0.0177878 
-0.000334863 -0.0227398 0.0159766 0.00369239 -0.0223698 0.0176171 0.00695081 -0.0232081 0.0123396 
0.00953393 -0.0273876 0.0130365 0.0106856 -0.023432 0.0138319 0.00620766 -0.025484 0.016039 
0.0118957 -0.0233201 0.0177072 0.00767958 -0.021507 0.015924 0.0125366 -0.0250211 0.0103554 
0.0126991 -0.0206211 0.0109667 0.0184873 -0.0225398 0.0115938 0.0152354 -0.0252559 0.0134638 
0.0191583 -0.0259959 0.0143642 0.0141535 -0.0214448 0.0147467 0.0161972 -0.0240782 0.0174171 
0.0198858 -0.022424 0.0165456 0.0259976 -0.0286558 0.0102317 0.0267806 -0.0205858 0.0121751 
0.0230627 -0.0247319 0.0117438 0.0217102 -0.0207028 0.0131111 0.0267646 -0.0254901 0.0131897 
0.023188 -0.0276196 0.0152398 0.0268561 -0.0267167 0.0170185 0.0241292 -0.0231981 0.0158981 
0.0287362 -0.023209 0.0159065 0.0348269 -0.0282201 0.0118895 0.0310473 -0.0215616 0.0100691 
0.030742 -0.0256297 0.0115635 0.0339419 -0.023372 0.0132471 0.0368059 -0.0258488 0.0151372 
0.0310476 -0.0265555 0.0155572 0.0339387 -0.0208289 0.0163365 0.0335192 -0.0245496 0.0180288 
0.0378133 -0.0242684 0.0107054 0.0388088 -0.021938 0.0140198 0.0383967 -0.0231178 0.0179124 
-0.0409001 -0.0185538 0.0121836 -0.0424434 -0.0143967 0.0118157 -0.0379001 -0.0161111 0.0138756 
-0.0420033 -0.0160123 0.0155492 -0.0433159 -0.0121156 0.0155623 -0.0393496 -0.0126273 0.0154525 
-0.0402332 -0.0196883 0.0173775 -0.0390918 -0.0153764 0.0183486 -0.036789 -0.0201633 0.0137588 
-0.0370031 -0.018242 0.00998728 -0.031274 -0.0133618 0.0122049 -0.0337972 -0.0166824 0.0130485 
-0.0293117 -0.0169772 0.0126891 -0.0348045 -0.0177095 0.0171366 -0.0313805 -0.0152106 0.0160265 
-0.0352142 -0.0137901 0.0161583 -0.0279148 -0.0199266 0.0100664 -0.024906 -0.01987 0.0133772 
-0.0246705 -0.0172751 0.0102177 -0.0240799 -0.0122936 0.0120209 -0.0239371 -0.0153307 0.0147165 
-0.0279532 -0.0129658 0.0145868 -0.0239541 -0.0187022 0.017107 -0.0276646 -0.0166544 0.0165559 
-0.0208813 -0.0133166 0.0164635 -0.0186518 -0.017488 0.0111205 -0.0141139 -0.0166483 0.0109578 
-0.0164859 -0.013079 0.00988855 -0.0177062 -0.014228 0.0141169 -0.019738 -0.0176768 0.0151798 
-0.0144849 -0.0174759 0.015282 -0.015698 -0.0145318 0.0177507 -0.0100189 -0.019971 0.01322 
-0.00992572 -0.0163072 0.0107668 -0.00526373 -0.0154935 0.0108961 -0.00819127 -0.0128655 0.0118997 
-0.0122601 -0.0143036 0.0138972 -0.00761689 -0.0168197 0.014778 -0.00419564 -0.0144104 0.0146081 
-0.00836425 -0.0201327 0.0173 -0.0110652 -0.0164656 0.017313 -0.00647218 -0.0148543 0.0181639 
-0.0123278 -0.0121286 0.0176434 -0.00429706 -0.0189835 0.0168843 0.0020016 -0.0199863 0.0126052 
-0.00118476 -0.0150723 0.0120359 0.00222286 -0.0146497 0.00996567 -0.00334513 -0.0184065 0.0130413 
0.000761105 -0.0140574 0.0155332 -6.71691e-05 -0.0180743 0.0157605 -0.00235733 -0.0126842 0.0177204 
0.00503113 -0.0186801 0.0100208 0.00933891 -0.0160978 0.009904 0.00583735 -0.0149081 0.0118327 
0.00912353 -0.0124605 0.0125083 0.00817862 -0.0184006 0.0130565 0.0118523 -0.0165507 0.0130643 
[...]
POINT_DATA 6000
FIELD FieldData 7
id 1 6000 int
1074 1093 552 48 466 842 755 684 1706 
574 2537 825 244 791 62 69 123 270 
1619 638 170 550 421 822 7 265 626 
145 415 588 365 519 230 727 281 248 
330 529 75 1072 221 1090 991 1452 393 
507 1301 28 46 852 214 251 471 268 
1628 957 1022 678 128 444 333 109 515 
350 512 178 18 34 1732 1272 1471 57 
1429 1961 1922 1060 517 1053 172 1733 1044 
1139 810 2444 14 493 66 1376 316 252 
589 63 902 2101 1055 3471 1625 1846 452 
1 71 1741 537 117 1307 1546 468 139 
1903 38 1031 1691 1883 502 835 1311 869 
500 1449 88 1078 499 1294 358 1456 948 
762 179 1197 1776 773 547 1191 441 320 
979 1715 561 1011 632 498 1280 804 152 
622 1379 568 2213 735 382 670 600 204 
51 176 685 339 1652 660 2460 843 80 
652 3639 662 870 3382 973 20 49 3298 
4124 525 1401 1115 278 1071 32 976 1419 
1790 1269 646 427 1336 649 926 1135 716 
812 479 761 752 297 897 1387 1163 1086 
425 2109 1097 148 1290 1231 778 1283 1141 
307 789 989 276 304 351 786 1166 1203 
784 848 955 1841 449 329 1091 411 363 
2547 1406 992 284 64 732 85 223 522 
291 215 708 35 3008 402 118 3 531 
2810 706 2418 935 126 738 647 1713 397 
2292 2636 984 549 1421 1039 474 707 1562 
1172 691 56 1358 713 1523 404 1561 1085 
829 1134 263 1276 349 749 380 1252 1342 
1244 898 648 1157 1436 112 25 1626 2439 
448 167 1981 193 2086 839 1381 377 1001 
464 1761 1435 1542 337 911 235 460 398 
1583 1151 219 962 1270 640 1061 1440 455 
1781 201 1897 1198 111 156 801 492 894 
1148 94 2580 314 165 988 274 437 247 
296 73 694 985 435 364 1318 528 143 
1333 1123 2326 107 1243 136 1458 2366 17 
434 1491 635 1016 906 671 883 2883 1727 
171 1108 262 168 103 450 808 1023 1412 
793 759 1131 1266 1369 327 535 1430 944 
623 1058 1156 673 803 982 919 1067 555 
1171 1368 2056 1824 650 184 782 1219 1684 
185 1861 410 949 526 1714 1274 607 1549 
780 1138 725 161 138 1057 116 1155 921 
677 2 841 1253 445 602 860 11 821 
458 392 909 282 1038 614 669 548 1194 
827 581 1189 440 781 29 1802 1092 629 
371 577 606 396 257 654 1765 917 1472 
1354 747 313 484 45 740 748 1525 1426 
353 1570 916 1462 1424 840 236 590 1709 
1304 1340 96 1216 366 388 153 1002 1234 
721 1357 564 1560 105 815 836 764 1337 
731 163 1101 98 779 1665 974 1206 975 
182 469 633 830 345 1208 995 831 65 
818 256 1036 758 188 285 925 1453 222 
987 1232 951 217 1321 783 97 847 699 
858 301 1257 616 630 83 8 277 91 
558 645 308 520 238 324 261 576 432 
401 1065 609 216 81 302 1584 1129 1891 
374 2022 857 849 1177 1944 483 2328 680 
162 2778 865 1095 250 1645 851 1218 196 
310 538 472 1287 1480 283 715 591 451 
1066 667 122 326 937 280 892 1427 269 
368 605 578 465 419 1634 714 724 508 
286 4 359 942 873 1169 1143 488 104 
354 1094 882 613 202 1286 585 1205 565 
785 381 523 805 908 213 653 271 1804 
405 76 1214 545 423 580 70 480 33 
447 379 211 384 1766 682 1284 864 395 
1027 981 726 210 383 886 1372 1930 582 
403 1397 459 1730 1221 166 887 1648 1534 
656 1215 687 583 146 100 420 2167 896 
795 1642 1267 306 1070 1180 27 266 701 
559 1398 879 859 513 619 634 532 177 
130 1465 1271 689 534 253 659 340 352 
553 391 372 1159 1149 106 82 390 53 
665 541 1438 59 344 164 124 1073 814 
1532 596 47 598 1910 1671 463 1511 198 
936 2911 1045 19 400 1576 208 245 1046 
1259 1015 209 997 1228 938 78 305 2398 
129 811 299 2266 385 993 1864 603 132 
40 357 663 456 676 490 348 560 370 
288 439 461 907 231 1510 890 501 1000 
867 914 142 1339 1888 1581 1048 933 1117 
134 1075 275 557 1316 959 191 2551 2132 
1192 453 1792 154 1332 323 2631 1862 1738 
1819 438 1797 1029 1107 1638 2793 551 1182 
207 149 2704 1446 2555 2217 341 338 1687 
1632 2857 181 44 664 13 133 258 927 
637 86 809 121 367 1164 826 819 601 
983 127 1211 194 2764 729 853 681 200 
227 325 298 279 1747 50 2528 23 2879 
688 2475 2830 295 666 1693 362 618 2776 
9 1414 2915 3595 2629 1526 2100 2324 1043 
742 343 4154 575 496 2523 1829 2709 2961 
1855 2999 2331 2659 1901 267 2579 1711 910 
31 1146 572 862 828 373 417 524 160 
592 970 1195 1621 1969 620 1162 229 1536 
61 60 530 446 399 1390 1118 175 1017 
1762 2515 1564 2705 2182 874 672 636 2111 
2996 433 2940 658 797 2511 2633 2393 2955 
3101 315 42 1360 429 294 767 998 978 
1990 2605 1371 30 2206 1393 2049 101 2684 
2353 2451 2378 2809 2192 234 2380 1277 2457 
969 2216 3941 3363 1890 135 2513 2586 2856 
3730 3953 3827 918 292 542 2019 3968 4073 
3453 2479 3269 2920 2327 1261 850 2149 971 
2237 1492 960 1926 1827 1947 1181 1647 700 
570 1193 1245 584 2346 1204 1748 2435 1479 
1705 1735 1238 1971 2617 2614 2677 2772 3011 
3132 2495 2894 2502 1899 2627 3137 3861 2848 
2992 2065 3208 2681 2347 802 1775 1787 3227 
3439 3724 3315 4831 2394 3397 2867 3492 2850 
3834 4232 720 2001 1668 2775 2122 5217 3938 
4746 3098 4074 4362 4590 4087 1588 2173 1716 
1345 1445 2094 1810 336 2000 2477 1482 657 
2491 543 1235 1366 711 965 1383 1911 2036 
2248 1160 2038 300 2003 1004 6 1994 1839 
1676 1931 2070 929 2214 1963 1929 625 1678 
1699 1483 1842 3073 2085 2791 1788 1594 2892 
2074 772 2648 2123 2125 2323 3493 3663 3372 
3508 2487 3077 2773 2997 2969 4285 3770 4263 
2752 2740 303 3964 5384 3841 3416 3059 710 
3534 3923 1145 3933 5181 4088 3710 473 3455 
930 1240 2097 1934 2432 1021 608 2478 1641 
885 2423 1694 1258 2428 1770 2340 1559 1409 
1254 369 2028 972 1616 1476 1586 1927 586 
2272 1068 891 1375 1133 1604 838 1486 1696 
1489 753 1936 1537 2407 1111 1811 1834 2207 
2176 2291 3105 1003 2298 1979 1635 1580 2540 
2409 1660 2194 2783 2247 1408 1338 1894 696 
2741 2010 2494 2682 2055 1517 968 2449 3591 
3577 3213 3003 945 3379 2232 2322 1555 416 
3914 4083 3688 3147 3033 3732 774 2785 2008 
2542 3618 4405 679 1630 1962 1152 2626 3212 
3549 3006 1757 2663 2263 3110 2452 2863 1606 
2104 1859 1334 3353 2059 1768 1505 2023 2459 
1953 2060 1551 1450 1872 1348 2606 1448 2050 
1161 1734 505 769 1273 503 84 486 1147 
2259 2083 1335 95 1822 595 693 192 1116 
2504 566 533 1974 624 1355 1080 378 1468 
1575 1319 2058 1543 1823 240 454 2082 2948 
218 2102 1940 1281 977 884 1153 1895 509 
861 712 1170 1720 2230 1298 1692 1137 1685 
604 190 3027 1292 1213 1867 2953 820 1928 
1853 1915 2438 2930 2585 2550 2602 2703 2108 
1633 2339 2329 1088 1184 1539 1914 2261 1837 
2020 2612 1611 1300 2264 1667 3600 2389 3201 
2105 2900 206 1444 2113 1051 1288 1052 952 
1223 1598 963 833 2265 1590 43 1175 1124 
1620 1578 1795 225 1494 556 1250 1125 1728 
750 1485 1380 495 436 807 1264 877 355 
813 1278 237 931 760 260 1683 475 317 
406 119 1617 212 1425 686 141 1997 1084 
1035 1242 150 125 744 346 290 999 675 
1405 733 642 272 428 58 169 1548 187 
1403 1585 1629 1935 2587 723 1512 1968 964 
734 1362 1550 309 698 1838 477 2148 737 
628 1600 1607 1955 1767 1939 1013 1828 1670 
2114 893 2071 1037 92 1614 3662 3246 3093 
55 2987 1605 900 1400 1246 1385 1798 1850 
442 1420 2391 567 1422 1158 1898 311 2296 
651 318 246 1524 610 722 1573 137 705 
1643 1541 697 462 1942 1150 376 322 37 
487 1310 1040 1165 457 832 90 1796 424 
41 115 1459 16 409 880 777 856 1233 
293 407 422 617 846 389 205 1312 289 
186 787 1217 180 703 255 1059 24 875 
1230 939 1404 1443 1224 627 2532 2219 39 
1592 1466 1651 1032 1200 1056 1322 2236 1434 
1315 1352 426 1874 1698 1886 1305 612 1631 
1885 1905 1563 1063 1816 1887 1528 1225 2249 
1531 2258 2591 1527 3068 2095 1831 2341 1923 
2190 430 514 516 2262 67 328 1654 950 
1432 1556 3431 1126 587 360 1185 347 144 
915 763 159 817 1389 1229 695 1359 798 
845 342 1700 1952 668 1014 1478 1054 120 
946 489 834 799 147 1567 615 544 1050 
332 928 443 776 1314 334 1033 1327 775 
99 980 1854 1500 1187 1464 1100 2384 3215 
641 1499 2274 2280 569 2304 1114 1374 1832 
173 1568 2654 881 2768 3758 1949 2754 3726 
26 408 1236 1637 241 2905 1612 2560 2013 
3022 242 1805 2400 2383 1913 2454 1724 540 
2197 1689 1034 2852 2345 418 1378 1320 1817 
2235 1167 1188 2404 21 1103 1099 319 1186 
924 110 518 2073 1530 539 2241 1173 1719 
1260 259 1237 2177 2048 2862 1106 2441 2455 
1119 2354 889 2153 2544 233 3163 2238 1821 
2426 3755 3106 1487 2534 4070 2656 4205 2518 
2334 4280 2436 4403 2960 3753 2897 2517 1958 
3243 2600 4810 4452 4909 4592 3793 3045 2136 
2875 1024 2116 2751 412 431 1490 863 1679 
895 254 2161 478 387 4264 3107 940 756 
1538 766 3396 1916 2972 1514 2799 1481 1957 
1388 1010 2411 1226 1005 2941 1497 2527 2395 
2142 2315 1516 3099 2574 2619 2210 3929 1896 
3689 1168 476 3218 3909 2364 3859 3389 2521 
3436 4227 2081 2220 4020 3822 2975 3432 3851 
3993 4867 4191 2290 4711 5135 3988 3040 4032 
1906 1791 2256 1520 546 1136 1662 1399 1047 
961 1069 1749 1028 15 2403 1818 1807 2151 
2589 2289 1077 806 1325 189 1306 674 413 
3409 1579 3052 4105 3058 611 1970 1907 1317 
536 1750 2737 2530 3082 2844 2635 3530 2731 
3408 4035 3466 3166 1801 1451 2458 114 2891 
2096 871 3509 497 3794 1998 3475 2698 2846 
3856 3773 3374 3975 4400 5178 4133 3902 2787 
2749 3361 3129 2639 3464 3449 3883 3223 4017 
3839 5236 3458 3124 4272 4303 4544 4006 3347 
4128 4569 4942 4768 4466 3949 4447 3668 5808 
3418 5760 4365 1739 2175 1849 2277 1840 1869 
1924 2336 2538 2971 2556 2567 2967 3944 2134 
1498 1695 2112 2069 4025 2485 3733 3767 2811 
2882 3424 4663 3141 4033 2079 4111 5039 3009 
3122 4063 3769 3748 4179 1664 3465 3655 2303 
4700 4187 3653 4229 5163 4846 5833 3741 5194 
3935 4122 4930 4718 4556 4202 6045 5124 4080 
4777 5363 4598 5049 5691 4602 5265 5846 4649 
4026 4982 6059 2481 3025 2412 3520 1809 1574 
2877 2658 1624 481 2200 3085 1873 1447 2093 
2716 1996 4237 3358 2578 2847 1367 2309 2652 
2119 2320 3684 3524 2925 2596 1870 2039 3016 
2859 2604 3116 2823 4036 2668 3191 3079 3555 
3349 3337 3920 4918 5446 4029 5345 3351 3867 
5723 4131 5128 5840 4605 5858 4530 3772 4874 
5235 4292 5206 3982 4638 5043 4518 4430 5498 
5290 4290 5105 3216 4353 4284 5663 6012 4682 
4703 4741 5304 3387 3313 3039 3714 2212 2387 
2490 2338 2510 2410 2297 2469 2611 3229 2363 
1945 2062 3231 3066 3607 3473 2233 2127 2106 
2004 2417 3100 1984 1786 1675 2171 1772 2332 
2482 2072 2743 2075 1880 2321 2421 3634 2254 
2196 1657 2382 2414 1889 2168 2061 1808 3506 
2496 741 3280 2362 3225 3516 3196 2413 765 
3965 4540 4384 2198 3564 3270 2260 3392 3781 
3994 2489 3346 3435 2694 3729 3727 3026 4219 
4260 4003 3217 3538 4367 4496 1995 2711 3230 
3611 5935 4355 4243 4211 4350 4257 3913 3576 
3414 3666 3032 3075 3311 5281 3443 3702 2746 
2135 3421 3984 2569 1650 5014 4000 3324 3939 
2118 2990 4046 2738 4254 4002 3588 1710 1356 
2512 2099 2181 3065 771 2620 2446 1239 1876 
491 692 36 1364 1104 2226 644 1384 757 
511 10 1815 1110 905 1349 2651 1900 1326 
1470 1836 966 1636 2042 1950 1701 1992 943 
1875 2087 2188 1109 1247 1113 1826 1431 228 
1977 1663 1656 1062 361 1912 2115 287 1256 
1982 1639 2747 2672 1251 1967 1313 3860 4021 
2506 3580 2640 2080 3219 2128 3035 2770 2189 
1382 2147 2912 3295 3381 3807 4478 3084 876 
2222 2358 2623 1707 3335 3102 3373 1659 2310 
2453 3957 3446 1722 1959 2687 1782 2385 2691 
2974 3305 3393 3184 3544 2015 1703 3005 3020 
3169 3083 2932 1082 1202 1496 1122 87 800 
1908 2002 2317 739 1179 1769 151 356 108 
1529 736 571 1690 1087 1248 1582 1330 1295 
745 1533 1780 1190 249 872 1006 794 1674 
1920 1760 1597 1467 1477 1493 1591 224 131 
1771 1386 702 1547 72 1697 485 2376 1506 
1363 1212 1096 1241 2089 2355 1688 2174 2025 
1655 2767 2480 113 2054 1972 2250 2531 1871 
1909 3192 1686 1437 3478 2982 2419 1331 1154 
1347 2245 639 1098 2603 3013 1461 3459 1751 
2998 3915 3189 3153 2577 3210 2748 2965 2686 
3546 4608 2696 1603 2807 3177 2928 3501 3240 
2977 1391 1723 273 2273 1395 2006 1577 1729 
2057 1413 2756 1064 1484 1812 643 68 1595 
2035 1877 197 1752 140 199 1007 621 1220 
243 1291 239 5 1112 527 494 2034 913 
79 866 573 510 1469 1089 1275 1613 2313 
554 878 1353 1297 2643 89 1081 158 1753 
22 1755 1983 102 2051 1377 1596 1289 947 
2369 1296 2312 1708 2503 1503 2156 1799 3012 
2666 3297 2202 3494 2959 2227 904 1721 1474 
986 2750 3103 563 2613 2130 3089 2302 2447 
2642 3162 3087 3406 1803 3399 3209 2924 3023 
2781 3094 3262 3540 2983 2052 2032 1012 482 
1843 2373 1858 3173 3400 506 922 386 593 
1329 1835 1554 1599 631 901 2484 923 888 
1519 854 157 2126 2053 321 1344 52 414 
1265 1868 1852 1951 1407 2152 77 954 1475 
1303 1455 941 1602 1943 1083 2509 1813 1825 
746 2063 2817 1351 1669 743 1985 2903 2343 
1754 2488 2653 3413 2805 3649 4837 2163 2406 
2842 2861 2392 2739 4139 3529 3136 4668 3681 
2229 2420 2129 3185 2184 4276 2655 3427 2501 
2583 2462 2789 3815 2593 3514 2895 2821 2545 
4184 1991 2311 2120 1932 3398 3868 2144 1653 
655 2795 4135 1941 2535 3095 2306 3675 3581 
3442 770 1328 1783 1904 2985 2294 823 2826 
2570 3168 2828 1933 1844 3117 2221 3070 2500 
1615 3031 2140 2572 2707 2546 2952 2440 2923 
3239 4065 2849 4650 2027 3232 3476 4094 5110 
4346 4377 4872 2692 4857 4883 2568 4685 4932 
4159 3855 3010 3900 4789 5040 5560 2650 5007 
2257 3857 3071 2352 2676 2944 2708 3719 2814 
1673 903 2103 2519 1851 4268 2117 3809 2962 
3843 2622 521 3463 4995 2467 3038 3430 2299 
1299 1718 3597 2980 3904 2497 2526 3256 2424 
3206 3625 4001 3816 3002 3757 4882 2396 2588 
2067 4482 3563 3590 2646 2618 4045 4390 4543 
3488 4252 5259 5226 2888 4438 4791 5155 5090 
4459 3321 3245 2950 5726 5664 4678 5541 5200 
4815 5495 4616 3585 5422 2794 3762 1121 3512 
3805 3367 2064 1627 1535 2499 3517 2788 3405 
2283 3028 2825 2077 2514 3491 4360 2665 3356 
3647 2695 2325 3747 3615 3226 4865 3310 3316 
4391 3967 3420 3017 3980 3364 3536 4671 3545 
3369 3126 3368 5150 5542 4699 4188 4138 2543 
3552 1743 3671 3451 3329 3138 4500 6017 4756 
4022 6058 3308 3844 2782 5048 4582 4153 5366 
5202 5957 2520 5539 5804 4683 5515 4562 5409 
6040 5368 5706 4464 5406 4060 3882 4484 3285 
4086 3849 4853 4600 3723 4371 5504 4388 5302 
4249 5645 5500 4174 5358 2598 3195 868 1917 
1365 2721 4704 2644 4331 3598 3945 2293 4647 
4052 4271 4143 3412 3670 3673 5712 5256 5522 
4890 3708 5736 5388 5964 4847 5533 5359 4527 
4167 4469 5219 4099 5421 2443 2874 4989 3833 
5795 2433 3578 3699 4956 3804 5909 5282 3869 
4140 6001 4427 6032 4985 5106 6007 3961 5224 
5557 5536 4304 4740 4892 4434 5346 5097 5297 
6043 5684 6037 5229 5420 5573 3336 2963 2700 
3893 2680 2558 4039 2906 3407 2994 2647 3778 
1881 4241 3154 2483 3401 3983 3942 2607 3630 
4250 2831 2871 2557 3621 3130 2818 2931 2919 
3029 2282 4437 3927 3907 4050 3800 4156 3931 
5035 5341 4383 5805 3717 3277 2956 3114 4659 
5867 4984 3738 4625 5199 3426 4433 5682 4747 
4800 4646 5205 5775 5127 5390 5483 4189 3791 
5412 5913 5451 5705 4712 4888 5238 5220 5943 
5936 5134 4689 5962 5227 3586 4719 5740 4737 
5514 5672 6010 1800 2552 3254 3251 2762 2836 
4178 3344 2145 4374 2228 3265 3139 3272 3462 
1746 2745 2372 2468 2377 2667 1863 2576 2473 
3224 1222 1623 2779 2763 2792 2529 2466 3207 
4407 2917 2091 3532 2594 3202 2873 3422 3987 
2590 3547 953 1209 2638 2017 3286 1042 3461 
2287 4038 2815 4378 4595 3306 2939 4903 1966 
3268 2014 3553 4499 5317 4302 3672 5065 5069 
4461 5513 3828 3160 5223 4493 5261 4101 5531 
4457 5348 4511 5915 5716 4095 4308 5586 4935 
5188 3479 4782 5680 3954 4610 4357 5322 5665 
5553 3293 4005 3048 2870 3745 3838 3128 3617 
2881 3635 4559 2018 1658 2561 3309 1878 4089 
4498 3977 2761 3151 2399 899 2616 990 1513 
1893 2899 2554 2470 1346 2137 1789 2005 2098 
2637 1282 1144 2351 2240 1860 1725 2205 2344 
2624 1557 1439 2158 1856 1589 1565 2408 2033 
1704 1488 1473 2170 2146 1417 3620 4796 2461 
1759 2609 2429 3486 3846 1183 1558 5489 2800 
2927 3550 3826 5423 3872 3019 3057 4389 3375 
4212 3454 5478 4013 2536 3069 3709 5700 4376 
4412 4567 5864 4279 3659 4940 3641 3542 2356 
3366 3685 3999 3583 4507 5053 2724 3257 2744 
3157 2945 3613 2865 3062 4064 4696 3743 1784 
1892 2139 2143 2141 2040 2215 2314 2851 1680 
1268 2209 996 1495 1227 1569 788 1921 1293 
1142 796 2571 1609 1764 1736 2110 1649 1350 
719 183 1672 1025 2068 155 1020 1309 1396 
2246 1622 1502 1756 1820 1128 855 1544 994 
1847 2253 1540 956 1777 1773 709 2166 2330 
768 1507 1501 2431 2951 3390 2664 2284 3606 
3342 3784 4382 2688 1041 3572 5131 2437 3548 
4309 2843 3777 3359 2732 3260 3682 4784 3362 
4372 4828 4248 4454 4240 3837 3599 3511 3652 
3667 4473 4999 4854 5993 2442 3410 2076 3248 
3895 2993 3858 3193 2610 3707 3276 2164 1460 
1361 1018 2295 3142 2701 335 1545 1130 967 
1076 1279 1370 1008 2133 790 174 1324 1201 
74 2599 1463 1210 1207 920 331 1441 1255 
1030 1993 195 718 1026 594 1079 504 2030 
2157 1794 470 2755 1418 2553 1980 1978 2866 
2276 2397 1845 3472 2162 1566 2813 2379 2910 
1411 2456 2107 3388 2958 4055 3829 1249 3220 
2943 2337 4448 2896 2933 2251 2860 1571 2796 
1587 2837 2486 3394 3579 3444 4341 2242 3910 
4555 5637 4603 4907 4418 3450 3434 3806 3934 
3165 2760 3279 4655 2516 2833 3037 3041 2465 
4613 4351 2766 3334 4701 5066 1518 1814 792 
2641 2090 1618 1973 3958 1454 1552 2360 562 
1199 2991 2816 3811 1120 1343 3197 599 12 
2016 232 816 264 1522 1402 690 704 1410 
3537 1049 2045 1176 1019 1508 2374 2525 1263 
1415 1987 1442 226 1702 2370 2279 2908 1830 
2342 3852 3452 2753 4239 3570 2964 4081 3282 
3323 3238 4298 3798 4114 3518 3296 4745 1394 
4707 3481 2780 2758 3765 2505 2719 3661 2835 
3340 3433 2729 3775 4933 4526 4293 4277 3489 
4549 4334 5185 3304 4453 4698 5575 2727 4798 
2798 3678 4126 2868 4693 2995 3036 2218 3619 
3885 4169 4504 4584 2657 1127 3339 3646 2765 
4520 3705 5099 4118 3526 2634 4395 3457 2854 
2904 2660 2592 1682 2947 4661 2679 2725 3376 
3916 2957 3686 4117 4715 4916 4314 5476 4072 
3903 4895 4842 3317 5566 4920 5006 5991 4680 
3503 5658 5162 3677 5050 5524 4901 5487 4692 
4714 4306 4876 4725 4244 4004 4630 4632 3322 
2797 4352 4634 4098 4190 6063 4635 4158 4164 
4748 3290 5758 4317 4474 4738 3779 4082 4583 
4115 4664 4108 5296 3505 3584 2720 3614 4043 
3810 5231 1964 4953 2690 4113 4348 3780 4100 
4069 5431 4119 2820 2978 3510 4964 3996 4606 
3704 3951 4506 5981 2893 2946 5764 5270 5218 
5537 5600 4197 5176 5633 4141 4881 5174 5572 
5577 4269 5084 5815 5583 4536 5863 6006 4667 
5787 5781 5380 4885 4258 4948 5074 4531 4965 
3411 3288 3551 1308 5982 5180 4019 2869 2549 
2884 4381 4690 2699 3963 5184 5419 4176 4571 
4345 4057 3186 2463 3908 4926 4392 3665 4591 
5742 4224 4012 4335 3291 3327 4573 6025 3950 
5367 5009 5989 5460 5103 5161 4619 4477 4990 
5821 5934 5831 4440 4409 5927 5316 4811 5903 
5552 4734 3840 5292 5216 3183 5397 5377 3819 
5849 5026 5350 3415 6019 3947 4979 5395 2566 
5186 5768 5889 5695 5073 5732 5314 3825 5416 
4814 4321 3521 5402 4761 5739 5167 4970 3922 
3901 3104 2838 1509 2474 4767 5400 3088 4361 
3943 2804 4364 4980 4222 5058 3527 5750 4645 
4047 4103 5389 3507 4623 3569 4462 5626 5669 
4657 6011 5673 4943 4612 4709 4604 3180 5811 
5448 3531 4919 1731 5929 4267 5521 3892 5052 
5794 5424 5875 5401 2427 5318 6053 5372 4297 
5260 5020 5142 5529 5298 4456 5904 4463 3930 
1948 3754 3830 2936 3978 3360 5232 3119 2662 
3820 3763 5450 5072 5151 3044 5462 5277 3319 
3703 2225 4706 2131 2730 5859 2381 2937 5564 
5719 3205 3175 2357 2872 2231 5634 4754 3237 
3785 3803 3587 2853 3326 3558 3403 4553 5170 
2984 3030 3731 5266 5426 5303 5059 5701 2916 
5853 5728 6048 4534 5759 4954 4439 5592 5255 
6039 6016 5971 5882 2670 3905 2335 4053 3438 
2493 2801 3115 4125 3565 2802 2757 1866 3385 
2918 2710 2285 2702 2425 3645 2981 3125 2733 
2562 5153 3181 2092 3182 3014 2671 3284 3259 
2239 3120 4311 5767 3801 2371 3203 4255 5333 
2714 5997 3761 3021 4826 5045 5948 4509 3692 
2649 5081 4465 4910 5325 4322 5848 2066 3737 
5526 4821 6068 5588 4206 3992 4246 3680 4618 
5960 3750 3470 4443 3636 4217 2430 4804 2966 
2769 4576 3402 3823 1902 3074 2307 2790 2759 
2318 4058 2834 2563 1515 3283 3386 2564 4739 
2361 2734 1601 1919 2199 2628 2913 2674 2689 
2288 1793 2224 2187 2201 1740 3053 1879 2575 
2268 1640 3004 2416 2450 4358 2949 1965 2301 
5340 4102 5826 3236 3629 3081 4147 4446 4347 
4359 5484 4214 3172 2386 4674 5710 5908 4196 
3854 3559 5203 4130 5567 4946 4691 4419 4155 
4658 4091 4922 4528 3698 3624 4708 4062 4558 
3573 4731 3111 3292 3261 2669 2548 2914 1986 
3034 3989 2898 2208 1988 2375 2037 751 3140 
3528 1954 2024 1742 1262 1392 2029 2026 1785 
1196 1661 1341 730 1918 2507 1726 2319 2155 
2191 2078 2434 2632 2047 1140 1975 3541 2448 