# vtk DataFile Version 4.2
Generated by LIGGGHTS
ASCII
DATASET POLYDATA
POINTS 6000 float
-0.0216118 -0.0394348 0.0144924 -0.0241768 -0.0378808 0.0171619 -0.0213128 -0.03957 0.0194232 
-0.0237703 -0.0381793 0.0222573 -0.0178564 -0.0377257 0.0140751 -0.0157482 -0.0419052 0.0140878 
-0.012008 -0.0395835 0.0137098 -0.0185875 -0.0407982 0.0167383 -0.0151276 -0.0384864 0.0169133 
-0.0152536 -0.0422525 0.0184203 -0.0180524 -0.0411709 0.0211341 -0.0139872 -0.0392046 0.0210455 
-0.0120653 -0.0433347 0.0151008 -0.00511405 -0.0418307 0.0137875 -0.008312 -0.0442325 0.0138695 
-0.00398722 -0.0379467 0.013936 -0.00839459 -0.0407132 0.0157846 -0.00549528 -0.0446558 0.0166901 
-0.00928146 -0.044037 0.0178917 -0.0117432 -0.0403806 0.0179473 -0.0120983 -0.0433221 0.0206415 
-0.00663779 -0.0414254 0.0193778 -0.00464629 -0.0446154 0.020888 -0.00683253 -0.0381078 0.0216088 
-0.00845449 -0.0442056 0.0220424 -0.0105705 -0.0372085 0.0203568 -0.00253563 -0.0448866 0.0139412 
-0.00120439 -0.0409839 0.0138907 0.00123139 -0.0449605 0.015441 0.00267159 -0.0412686 0.0148469 
-0.00176475 -0.0449215 0.0181276 -0.0033785 -0.0403993 0.0172472 0.000373247 -0.0376937 0.0171363 
0.000282852 -0.0414569 0.0185153 0.00206328 -0.0449383 0.0193603 -0.00115143 -0.0372567 0.0208239 
-0.00312973 -0.0408583 0.0212529 -0.000828165 -0.0441347 0.022008 0.00308285 -0.0377436 0.0206334 
0.0043464 -0.0380972 0.0168502 0.00901742 -0.0438654 0.0138959 0.0104336 -0.0399893 0.0138636 
0.00507101 -0.0445618 0.0139161 0.00644479 -0.0401477 0.0141058 0.0071259 -0.0444085 0.0173836 
0.0084698 -0.0405622 0.0176143 0.0110495 -0.0436076 0.0173327 0.0119664 -0.0385608 0.0172865 
0.00432527 -0.0417631 0.0184606 0.00565733 -0.0446423 0.0210964 0.00706528 -0.038317 0.0206179 
0.0095652 -0.0437797 0.021192 0.0167655 -0.0417395 0.0138674 0.0129912 -0.0430643 0.0138716 
0.0139913 -0.0374118 0.0138658 0.0162389 -0.0386746 0.0169482 0.0148671 -0.0424065 0.0174079 
0.0198773 -0.0403713 0.0159848 0.01808 -0.0411918 0.0194704 0.0124626 -0.0410958 0.0203434 
0.0186163 -0.0372442 0.0198602 0.0218413 -0.0375405 0.0138951 0.0230941 -0.0386063 0.0175781 
0.0250096 -0.0373893 0.0208748 0.0210066 -0.0397801 0.0218212 -0.030984 -0.0326251 0.0140574 
-0.0337156 -0.0297157 0.0137632 -0.0309856 -0.0326187 0.0181247 -0.0283193 -0.0349304 0.0161545 
-0.0293407 -0.0339884 0.0222051 -0.0337194 -0.0297142 0.0178128 -0.0257942 -0.0368593 0.0136425 
-0.0270628 -0.0317262 0.0139826 -0.0211447 -0.0353446 0.0143927 -0.0212972 -0.0313406 0.0140288 
-0.0244393 -0.0338713 0.0161952 -0.0267831 -0.0361602 0.020016 -0.0270479 -0.0320303 0.0186122 
-0.0229387 -0.0350695 0.0197292 -0.0230341 -0.0310964 0.0191438 -0.0204888 -0.0326655 0.0218083 
-0.0139534 -0.036073 0.0136992 -0.0134591 -0.0320823 0.0139302 -0.01729 -0.0308167 0.0138978 
-0.0199593 -0.0331767 0.0176321 -0.0185809 -0.0369095 0.0181961 -0.0150803 -0.0303023 0.0171964 
-0.0162737 -0.034007 0.0162351 -0.0124464 -0.0332623 0.0177402 -0.019994 -0.0366364 0.0219434 
-0.0169888 -0.0311132 0.0206305 -0.0150787 -0.0355848 0.019739 -0.013342 -0.0324787 0.0215669 
-0.00793107 -0.0372042 0.0139179 -0.0106717 -0.0292128 0.013838 -0.00592344 -0.030108 0.0139369 
-0.00942224 -0.0330217 0.0140288 -0.00549199 -0.0340642 0.01436 -0.00733919 -0.0366541 0.0179169 
-0.0110398 -0.0367601 0.0164009 -0.0084716 -0.0328107 0.0179086 -0.00463194 -0.0317004 0.0174939 
-0.0108701 -0.0300604 0.0195521 -0.00700293 -0.0300415 0.0205728 -0.00949054 -0.0335782 0.0217134 
-0.00397191 -0.0344392 0.0211718 0.00190448 -0.0316384 0.0140933 0.00221451 -0.0360789 0.0139645 
-0.00154874 -0.0347176 0.0141675 -0.00193395 -0.0304576 0.0139736 -0.00336348 -0.0363466 0.0176097 
0.00395914 -0.029757 0.0182709 -0.00306059 -0.0293804 0.0203642 0.00621478 -0.0361669 0.0137906 
0.0102102 -0.0359938 0.0139639 0.00523146 -0.0294045 0.0138609 0.00803503 -0.0326827 0.0148249 
0.0123944 -0.0326435 0.0139306 0.0101009 -0.0293667 0.0139253 0.00447815 -0.0336932 0.0164129 
0.00821577 -0.0360411 0.0175134 0.0119514 -0.0345654 0.0177128 0.00961854 -0.031404 0.0184728 
0.0103696 -0.0361449 0.021255 0.016313 -0.0318438 0.0138123 0.0179197 -0.0366479 0.0138297 
0.0199107 -0.030615 0.0150567 0.0158074 -0.03468 0.0166415 0.0201168 -0.0351271 0.0168069 
0.0165881 -0.030225 0.0174698 0.0143217 -0.0368835 0.0202217 0.0179999 -0.0332763 0.019678 
0.0187622 -0.029262 0.0207 0.0127039 -0.0292168 0.017132 0.0223527 -0.0335513 0.0138638 
0.0257063 -0.0369435 0.0148188 0.0274929 -0.0334253 0.0137918 0.024925 -0.0312198 0.0159256 
0.0278838 -0.0352979 0.0184297 0.0215084 -0.0317122 0.0185648 0.0240012 -0.0347102 0.0176655 
0.0273084 -0.0314044 0.0191419 0.0244083 -0.0335457 0.0218025 0.0241038 -0.0296769 0.0208299 
0.032964 -0.0306352 0.0143383 0.0304959 -0.033018 0.0164194 0.0330183 -0.0305806 0.0183424 
0.0296263 -0.0291287 0.0167939 0.0307018 -0.0328681 0.0206722 -0.0384159 -0.023239 0.0135082 
-0.038499 -0.0231564 0.01751 -0.0299665 -0.0241565 0.0139104 -0.0339841 -0.0230589 0.0139144 
-0.0361932 -0.0265645 0.0136291 -0.0362992 -0.0265563 0.0176452 -0.0298379 -0.0290695 0.0154872 
-0.0325974 -0.0262159 0.0161506 -0.0326982 -0.0218909 0.017696 -0.0286317 -0.0219985 0.0177923 
-0.0296328 -0.0291193 0.019547 -0.0307731 -0.0249022 0.0195232 -0.0350326 -0.0281865 0.0212831 
-0.0346121 -0.0242879 0.0204748 -0.0268291 -0.0266326 0.0137447 -0.0216618 -0.0234844 0.0136701 
-0.0223968 -0.0274051 0.014009 -0.0251328 -0.0291456 0.0163523 -0.0250624 -0.0236995 0.0158157 
-0.0220162 -0.0214335 0.0170981 -0.0258893 -0.0291767 0.0211917 -0.0273367 -0.0262126 0.0179474 
-0.0247414 -0.0238257 0.019836 -0.0224123 -0.0267428 0.0183736 -0.0208019 -0.0236411 0.0205241 
-0.0144344 -0.0278449 0.0137476 -0.0184043 -0.0269531 0.0138773 -0.0176391 -0.0220392 0.0140177 
-0.0141524 -0.0239319 0.0146022 -0.0191078 -0.0291572 0.0174464 -0.0193019 -0.0243649 0.0168169 
-0.0119461 -0.0271422 0.0170292 -0.0158656 -0.0263798 0.0172613 -0.0149692 -0.0219286 0.017969 
-0.0195886 -0.0281316 0.0213377 -0.0121374 -0.024165 0.0196942 -0.0142067 -0.0278865 0.0205835 
-0.0169312 -0.0246493 0.0207065 -0.0103143 -0.025218 0.0138797 -0.0077834 -0.0220859 0.0138988 
-0.00637701 -0.0260022 0.013958 -0.011056 -0.022076 0.016324 -0.00816954 -0.0286883 0.0169277 
-0.00763325 -0.0241238 0.0174023 -0.00445914 -0.0272351 0.0172763 -0.00452348 -0.0215355 0.0179103 
-0.00530902 -0.0250921 0.0205509 -0.00901218 -0.026593 0.0203093 -0.00331029 -0.0225372 0.0142068 
-0.00237071 -0.0264664 0.0139224 0.00161897 -0.0276443 0.0139628 0.000565269 -0.0237478 0.0141299 
0.00397525 -0.0258652 0.0167848 -0.000541774 -0.0281365 0.0173366 -0.00342537 -0.0217976 0.0218379 
-0.00165586 -0.0243391 0.017973 0.00138072 -0.0258846 0.0200806 0.00431547 -0.0279582 0.0218378 
0.00449266 -0.0230184 0.013882 0.00725821 -0.0259135 0.0137714 0.00934818 -0.0223312 0.0139514 
0.00748857 -0.0283568 0.0169962 0.0105777 -0.0260008 0.016032 0.00714198 -0.0210487 0.017033 
0.0069253 -0.0252286 0.0194298 0.0101896 -0.0230381 0.0186929 0.0114206 -0.026594 0.0201372 
0.00818839 -0.0287608 0.0211346 0.0131059 -0.023711 0.0139348 0.0154852 -0.0275257 0.0144398 
0.0171035 -0.0235334 0.0139214 0.0195173 -0.0266723 0.0145015 0.0140304 -0.0240288 0.0180148 
0.0179715 -0.0232502 0.0180596 0.0130331 -0.0215639 0.0210897 0.0153721 -0.0272293 0.0200408 
0.0169745 -0.0210672 0.0215517 0.0210759 -0.0228906 0.0139613 0.0270574 -0.0282608 0.0138207 
0.0249678 -0.0218262 0.0143069 0.0281093 -0.0243306 0.0142549 0.0230532 -0.0284152 0.0137591 
0.0230192 -0.02419 0.0173158 0.0252535 -0.0275449 0.0175794 0.0270712 -0.0240216 0.0181264 
0.0212605 -0.0277492 0.0179438 0.024386 -0.0222329 0.020526 0.0255642 -0.0259805 0.0212813 
0.0357298 -0.021512 0.0137996 0.0352338 -0.0279653 0.0162836 0.0317582 -0.0220502 0.0138772 
0.031521 -0.0264281 0.0142246 0.0340373 -0.0241509 0.016414 0.0307593 -0.0255684 0.0182305 
0.0339629 -0.0271036 0.0200833 0.0298106 -0.0213871 0.0193757 0.033254 -0.0231689 0.0203591 
0.029264 -0.0245499 0.0218006 0.0298991 -0.0284818 0.0208617 0.037223 -0.0252121 0.0141612 
0.0371998 -0.0252628 0.0186019 0.0389715 -0.022304 0.016459 0.0372131 -0.021791 0.0206233 
-0.040716 -0.0191616 0.0151675 -0.0410625 -0.014159 0.0140473 -0.0368417 -0.0127372 0.0136543 
-0.0376973 -0.0163105 0.0153833 -0.0402744 -0.0198652 0.0192832 -0.0385028 -0.0162727 0.0193184 
-0.0423774 -0.014913 0.0192975 -0.0311181 -0.0202612 0.013648 -0.0340374 -0.0155846 0.0138235 
-0.0355014 -0.0193214 0.013604 -0.0305232 -0.0143283 0.0153027 -0.0318718 -0.0178846 0.0167999 
-0.0361659 -0.0196004 0.0175737 -0.0348028 -0.0153386 0.0180839 -0.0313507 -0.0153391 0.0204822 
-0.0289202 -0.0184284 0.019674 -0.0329001 -0.0190508 0.0205069 -0.0271528 -0.0210347 0.0136696 
-0.026605 -0.014388 0.013771 -0.0209346 -0.0164024 0.0138386 -0.0279842 -0.0177101 0.0158172 
-0.0240944 -0.0185108 0.0151643 -0.0236523 -0.0136849 0.0164048 -0.0202759 -0.016116 0.0178758 
-0.0274128 -0.0142805 0.0178341 -0.025304 -0.019904 0.0188101 -0.0215953 -0.0191678 0.0203755 
-0.0237603 -0.0157153 0.0199588 -0.0205358 -0.0135546 0.0209625 -0.0138664 -0.015633 0.0139205 
-0.0137655 -0.0199586 0.0142264 -0.0171919 -0.0179039 0.0139596 -0.017477 -0.0138974 0.013873 
-0.016277 -0.0160889 0.0174041 -0.0122109 -0.0175488 0.0170359 -0.0183404 -0.0198338 0.0173568 
-0.0180591 -0.0208196 0.0212525 -0.01318 -0.0144274 0.0193457 -0.0146551 -0.018567 0.0201223 
-0.0181642 -0.0168189 0.0212368 -0.0165659 -0.0131049 0.0212234 -0.00518714 -0.0190121 0.0138783 
-0.0102115 -0.0140043 0.0138707 -0.00966705 -0.018054 0.0137953 -0.00684324 -0.0156331 0.0152929 
-0.00794433 -0.0196326 0.0170578 -0.00949159 -0.0138829 0.0178649 -0.0109816 -0.0201403 0.0198232 
-0.00716446 -0.0207929 0.0208259 -0.00555436 -0.0135117 0.0184806 -0.00478371 -0.0174444 0.0182053 
-0.00815768 -0.0169311 0.0202956 -0.00292252 -0.0156175 0.0144269 0.00138465 -0.0183253 0.0138949 
0.000921897 -0.0143006 0.0140309 -0.00185685 -0.0191674 0.0160897 0.0038772 -0.0159817 0.0162211 
[...]
POINT_DATA 6000
FIELD FieldData 7
id 1 6000 int
3325 5227 5904 5639 5662 3326 3974 1128 2569 
5827 4315 3568 2522 5949 5085 5672 5514 4534 
4986 4984 6014 4134 4586 5051 5685 3306 3152 
4326 6035 5610 3338 3559 5152 4116 2386 3736 
3986 4578 5527 5528 709 2313 3633 5350 3506 
5792 1692 1640 3148 6013 2160 5801 5415 5668 
1999 5340 2554 1558 966 4825 4437 3795 2981 
3547 3905 313 5739 5573 5943 6059 5420 5932 
3039 4744 2878 3421 4682 3313 5724 6027 2625 
932 4000 1659 5156 5081 4206 5093 5347 4775 
3032 4312 5328 1540 3335 5481 5565 1874 3737 
302 3390 5592 3054 6023 4749 3112 2508 3820 
4829 4782 5607 4183 5841 5710 5944 3069 3864 
2864 4743 5410 2742 5016 5003 5207 6016 5561 
4031 4422 3217 1484 5145 3236 2715 4090 2226 
1954 2416 2970 3144 5452 119 2413 5777 2792 
4238 1030 2300 3515 4624 4371 5684 3702 4649 
143 4388 1152 5052 4853 525 5363 4026 3521 
2122 5318 2984 4703 4456 3984 5856 5875 4006 
3 3216 5794 2014 2536 5545 5005 3387 2623 
3714 374 5701 4106 5584 5957 3833 2609 34 
2066 5848 4896 4297 1154 5605 4446 2784 4123 
2638 5730 6010 2037 5385 1565 5241 1771 5744 
5325 3553 2886 1363 1007 1777 2581 4836 2178 
2137 1601 4790 4399 3706 5741 4296 3965 4104 
2874 5526 3703 5364 2159 5618 5391 3319 3018 
3970 4966 4716 5166 4347 4380 4502 4561 744 
3799 5686 1940 2285 1410 5203 4567 4581 5365 
2586 1449 4249 1546 2206 537 1376 679 5402 
4074 5106 4128 2418 4600 3534 710 1903 5229 
3416 5303 4362 4088 3923 774 38 3558 6043 
531 6045 1088 18 2020 4570 5304 5281 5529 
4939 3731 5977 3006 985 3120 1939 4439 4465 
5665 2358 2261 361 1891 1439 5014 3324 2222 
3102 4737 4136 4042 4195 3801 2422 3991 1650 
5813 1323 5423 4127 403 5956 5442 1774 4565 
3345 3994 6064 3350 3081 4451 5222 5024 1256 
2316 4880 5138 4412 2453 5740 4013 1087 131 
1737 4424 6065 6048 4363 4357 1293 5891 1690 
5588 3255 113 5555 3881 3507 3873 3948 1937 
4309 2199 4695 504 2430 1240 292 2990 1445 
1691 2338 1078 2327 4569 976 638 1741 63 
1371 1715 48 3968 574 4777 62 268 1093 
552 3961 502 5298 402 529 4202 5265 988 
5194 870 3008 71 2850 5846 660 2339 720 
4405 5557 4284 5500 4553 5451 364 5224 5728 
3075 1630 396 2626 1354 1732 1013 3933 178 
350 5586 426 5322 5962 257 2843 4821 3373 
2310 1600 3375 5348 1372 3040 4935 3753 5680 
3957 3013 470 2612 5499 2603 4359 3479 1397 
1236 2998 4674 5478 1905 1721 2905 2251 3359 
3260 855 2840 2688 3478 3709 3954 2922 2129 
4240 4212 3362 4021 5486 1098 2732 2136 5373 
2666 2227 3022 2649 2822 5951 1419 2423 500 
2059 421 2490 2883 3305 358 1523 3588 2863 
2094 3098 234 1790 2292 1505 466 1401 474 
608 935 1060 1307 468 30 88 3453 397 
330 517 622 740 2810 1108 1180 2867 840 
247 165 171 4080 1011 2775 1458 1584 758 
1440 274 377 640 214 508 1171 2329 616 
81 858 582 1767 1046 1129 440 432 565 
209 1512 173 1347 408 1228 576 1045 609 
664 2754 1576 341 1607 1352 1730 1886 1885 
4382 639 3220 2517 208 2982 4478 26 1063 
2130 2768 78 2331 3161 3459 3777 2114 4350 
2420 3632 3136 4610 3726 2392 2337 1636 1563 
1242 3494 3776 986 3712 2013 3185 5890 1687 
2229 2505 796 4924 5061 5886 2553 2860 2362 
485 3548 2118 484 2326 2113 1606 2510 1722 
3641 3153 1934 3366 107 2022 1269 1311 1770 
2263 2478 3340 1072 2663 2356 1782 2452 2385 
1039 427 1959 2104 1525 45 857 762 353 
2105 1628 906 1177 441 2366 2015 1462 1534 
952 162 1218 1223 1424 2778 153 1246 1645 
420 1709 1267 1850 266 311 164 1272 133 
851 383 560 1362 795 381 1446 513 2879 
1637 61 3595 1168 211 2915 575 2555 245 
3245 2704 2844 1698 459 496 997 2659 2861 
2999 2897 1374 4139 1305 5393 3758 3071 3681 
1949 658 3323 2842 4448 3798 4867 44 2650 
1612 4789 2379 4893 2739 4628 2257 3388 2968 
181 4616 1845 4849 5147 2934 1901 2447 1757 
1859 2748 2974 3837 2965 3579 3110 1768 3353 
2944 3093 3434 2636 3915 3546 3201 916 4293 
5549 647 2071 3262 2328 1052 4655 4351 1426 
887 1421 1944 1037 1420 3406 1570 3399 2691 
1126 3815 1667 236 2987 3068 2583 680 4184 
1300 1887 1831 2686 656 1642 1490 590 1304 
1164 3662 1215 1378 132 1034 200 663 2519 
1749 853 572 456 2403 1514 1325 2325 1195 
766 399 258 5815 3900 2629 4032 2709 2077 
2857 3408 2961 3396 2081 5050 1961 2290 3010 
5583 4668 5090 4872 160 4745 4909 3677 4837 
4188 4722 4114 72 4810 4159 5182 4436 3855 
4078 3469 4170 4883 2560 5524 2875 2780 5040 
3481 4276 2264 4341 4037 3165 4152 6002 3599 
2687 2097 3393 1611 549 893 1648 4352 2302 
2076 3433 5091 3775 3087 6046 2902 2900 55 
483 3249 5780 5543 4118 5185 3600 2311 2383 
5855 4453 4701 900 5575 3041 418 2120 2814 
993 4965 3431 2117 1932 2683 2852 863 3463 
2400 194 2256 2064 1320 1069 1816 3963 2161 
1679 4690 387 3665 1136 4592 2515 2283 2289 
3166 3226 3028 4391 4513 4591 3793 5495 60 
6006 3432 1907 3082 636 3466 3988 175 3530 
3369 2731 4876 4306 4948 4138 4678 5007 3101 
3017 3585 4450 4603 4555 4670 583 2044 3661 
1545 4270 5786 3594 5264 3234 5847 1569 2835 
386 3679 4273 1713 146 3897 4526 2266 1614 
4213 5725 5351 4354 3089 3005 2642 92 5973 
5104 3444 4839 6052 6063 1805 1528 2249 687 
2895 1673 2462 2593 3514 2103 2352 2454 3023 
540 5742 3367 2799 895 4264 5419 2258 2116 
4176 3919 4307 2151 910 367 1627 5367 1211 
4573 3998 4381 3186 5982 2111 5896 2869 546 
3545 4258 2514 417 611 1308 5781 1017 229 
2699 3552 4667 5200 3162 4933 5447 3322 5984 
5550 5119 3383 4432 3450 4277 3898 4748 4635 
3427 5139 4334 1024 2676 3333 3850 5234 4077 
3512 2797 3189 5342 1225 2655 242 3288 4164 
5615 5897 3805 4158 5819 412 4034 3107 3517 
3411 4474 5032 5868 2708 4983 637 1520 357 
4360 2962 1146 4019 1121 3327 3566 4791 1047 
3922 4411 5732 5302 3616 5416 5260 1396 5822 
5759 4501 4471 1680 2714 5556 2645 5359 4687 
4826 2595 5458 5045 1521 5972 3575 2890 5063 
1110 4869 3691 3224 5482 3814 3713 3628 2866 
5626 1773 3332 642 2307 4595 2786 5874 3844 
5246 5681 2360 1972 5497 5599 4778 5490 5596 
4086 3586 2427 3825 3285 3212 1333 4209 4752 
5663 5706 4373 4153 6040 3725 4928 4809 5186 
6029 5768 5828 4969 3847 2344 4361 4919 2702 
5167 4723 1020 1417 4406 6020 4766 6004 3785 
4322 5013 1183 5215 4366 3603 5377 3412 1042 
2287 3320 68 3194 5072 5767 2590 5993 5356 
4662 2390 1006 3880 2381 1279 3080 5673 2168 
4862 878 5755 2102 5579 3560 1815 5667 5723 
3079 5118 3485 3237 4130 5462 2513 3382 5124 
5217 5346 3882 3455 471 4365 20 5297 3668 
2216 4447 4590 1962 5929 6037 5097 3710 2008 
4321 4484 3892 5808 473 3699 4761 3587 4509 
6047 3531 4762 4140 6032 5483 5536 4719 4151 
745 4340 2078 5255 6008 3281 3539 5127 4943 
5244 2939 2268 4803 5461 2433 2195 3783 5382 
5903 6001 5902 3803 195 1977 4977 5839 3072 
137 3955 5708 4462 4858 5867 2183 4563 5395 
730 1489 226 2079 3592 5692 2763 4454 159 
1656 4929 3786 2128 5293 872 3784 1950 1411 
3867 4010 5 3208 2677 850 3839 135 1846 
4124 4073 2019 1031 767 3471 5236 4768 3827 
4718 270 4272 3902 969 4087 4060 3576 5691 
139 281 4982 5645 632 4942 747 1123 4353 
5059 5852 4689 4434 4267 4892 5189 2148 5718 
1837 4954 3447 3692 5134 3690 3230 4888 3378 
5696 5055 4308 1392 4721 2301 4433 4805 5448 
4461 5390 2988 5564 5659 5440 1062 3461 1199 
5953 788 1847 3385 3997 4818 3717 5908 3874 
1506 5209 3417 2728 2443 4585 1120 3425 3942 
3606 3771 5336 4192 2278 2921 2043 2943 4988 
5770 5762 4877 813 5870 5702 117 252 278 
1277 1261 1074 336 1294 1588 452 2149 2491 
842 499 49 32 3938 2101 1776 2036 902 
2346 649 948 316 1706 2920 3269 244 2444 
1619 570 2894 1668 3549 435 3791 528 6053 
5695 4602 606 522 738 654 1189 3311 2135 
1914 5181 3913 1145 917 987 5915 1930 1539 
5936 628 2746 2524 629 3932 5711 4511 938 
4741 1955 3414 2434 3781 4376 3872 5563 3454 
4095 1707 241 4147 5278 1982 5489 5864 3019 
2355 5192 2284 3672 3219 2770 4627 4904 5650 
1646 2024 2466 4302 3832 2184 5634 2496 5294 
2767 2042 1764 4636 5327 5912 571 1825 4546 
2432 2363 3184 869 2477 2512 2387 1345 1115 
4002 2410 4046 1710 3229 2738 1456 3066 1336 
1945 2428 1163 1021 2018 66 678 789 2537 
1 810 684 773 1141 519 297 1044 822 
550 2109 251 329 434 235 170 145 123 
507 1139 694 301 392 98 368 217 118 
1066 1472 864 659 477 275 1339 282 401 
91 1331 1631 338 1221 641 1828 1632 886 
4320 5700 2107 2156 2896 881 4828 904 1568 
1437 2480 1686 3682 2959 2431 1751 3103 4165 
1871 1697 1655 2503 3084 2054 1909 1249 4879 
1820 1935 3026 723 5995 2376 321 77 3435 
2613 4486 4228 1493 1736 4759 4226 1755 2026 
2954 317 1084 691 3210 2744 3544 3939 3128 
3446 4940 3659 3542 4155 1872 3685 2099 885 
1953 3410 2606 1694 984 2781 3177 75 2577 
2807 963 17 1450 2591 1531 2459 136 1071 
2095 701 896 166 1095 444 306 100 812 
1016 849 2167 538 380 1070 390 490 983 
890 1969 129 1010 1000 2631 385 1182 4191 
1792 3045 2654 797 551 3851 2600 2635 267 
3649 4452 2633 5135 1043 1799 1855 1958 5006 
4685 2202 3238 4205 5110 3296 2051 4398 2958 
3297 4298 718 4727 2365 5968 2640 4055 2758 
2369 994 4784 5445 2231 1760 579 3857 4608 
3910 3511 3583 4946 4999 4507 3020 3246 3501 
4613 4755 2052 3806 4418 3240 4528 2993 2821 
3037 1803 3209 3398 3173 2032 4549 3540 5066 
3334 4126 2608 2545 518 4798 2190 1653 3357 
2727 859 3304 1923 2398 67 4169 5082 559 
3581 4098 3675 524 1913 4245 2501 927 1798 
1864 1188 940 127 2523 23 620 874 298 
2182 4345 674 3780 3126 5084 4392 1526 2705 
2955 3993 5664 5566 2324 1750 446 4857 3518 
3317 4035 3570 3243 2753 4842 5541 3064 5487 
3391 4403 5070 4597 4614 1312 4342 4458 4081 
4851 3626 3235 5641 4780 4512 2719 5315 3279 
4519 3667 2242 4492 3680 4717 5738 3811 5963 
3292 3934 1877 1018 2057 4891 5637 4844 4217 
817 3678 3014 4261 2760 5496 1049 5937 4485 
5569 5212 5173 5930 5758 2729 5881 950 4190 
5485 3843 2889 2868 4198 2197 3868 1791 2345 
2341 2299 2751 299 2235 254 2825 961 31 
3038 4926 3551 1028 601 2589 3405 4348 40 
2543 15 6025 1818 3409 1621 828 1317 970 
5404 5560 3747 3615 2940 2393 3368 5577 1306 
5503 3503 5726 4517 3328 5422 2950 4599 4680 
5300 5465 4679 4632 4370 5251 5162 2579 4714 
4807 4630 5201 5117 3788 4146 5357 1856 6069 
6044 2295 3135 5151 3875 2979 1857 5193 5620 
4529 1609 5130 5657 5276 3612 2084 2789 4056 
3460 5148 1473 3809 4937 903 478 1689 3290 
4629 13 5987 4082 4203 5916 5287 4861 4651 
1399 1851 819 2884 5743 2788 5180 5158 4180 
5184 1807 1535 4482 5272 5463 3888 3980 3623 
4470 2737 2549 4865 3364 413 5863 5934 4881 
5150 2618 3536 3967 4781 4815 2276 4796 1795 
4317 5428 5249 4677 3694 5248 6000 2880 4596 
4489 4813 5986 5392 5113 5079 2907 3719 5331 
3656 4108 4899 2723 5835 2193 4641 5921 5757 
5374 3762 5296 1662 5417 4639 2794 5491 4487 
5126 4705 2726 3950 5430 1906 5009 3889 4480 
5140 5460 4671 3908 5989 5073 5202 3464 5213 
4103 6017 3947 4022 4582 5178 2782 2520 3849 
5653 757 4756 3138 2601 2412 1230 457 2470 
2158 5436 4647 2472 967 1351 753 2349 3351 
3523 4030 2317 1979 5361 2791 1882 4223 5036 
1699 1594 3331 5237 3840 4397 2170 5289 1761 
2399 2035 3280 249 5116 414 2308 3483 2933 
3211 5534 4532 2085 3223 4683 4017 5314 5358 
5026 6007 4464 5515 5539 5804 3308 3671 5409 
3180 5421 5424 3415 5048 5823 4562 4500 1865 
4541 4875 5552 5366 4295 4409 3819 2693 1001 
5914 5484 2208 5307 5432 1435 5399 3878 443 
1586 2566 2929 2162 4410 4007 3336 1111 4047 
5219 2643 1507 2417 5511 741 4827 2918 3751 
4319 5306 880 5883 2414 3684 4645 5157 5837 
487 3301 1759 237 1416 5258 3449 3941 4466 
4970 3730 3347 5760 3329 2451 4303 4400 3935 
4554 2919 3124 3981 3949 4304 4709 5859 3869 
2787 4740 2749 4122 5142 3930 2187 5811 4427 
4544 3653 5282 4746 3883 3129 4232 3021 5316 
4700 2853 4973 5243 4131 2639 2270 5441 3250 
5849 5851 4811 5736 5712 1826 3386 4364 2131 
1701 3361 4099 4271 5146 3424 5256 3141 3561 
4831 3009 3983 4846 5689 5389 2648 1639 2945 
929 1664 1808 2185 304 2408 4646 5854 4611 
2669 79 754 5857 5494 4420 4547 3042 4516 
174 2701 429 1990 1625 542 1922 2479 3856 
101 3953 1926 3458 3363 3132 2846 1479 3733 
2353 3283 2891 2401 4174 3418 2698 2809 1787 
1998 3834 2811 4133 3451 2049 5504 5290 5372 
3723 5406 652 2992 3769 3861 2617 4033 3738 
3741 5913 2001 5105 4229 3804 2112 3655 5521 
126 5959 5719 4179 4697 5833 4747 5163 4469 
4638 5223 5910 5170 2969 4358 5775 4187 5705 
3403 4726 5873 5782 3846 3927 5964 4156 4604 
4493 3578 4059 3426 4499 3456 3920 4659 5205 
2072 4733 4729 2872 3270 2198 4378 5295 6009 
1681 4189 199 5845 4524 1946 6011 6003 2011 
1574 1053 2000 960 1827 1733 1492 2277 1647 
315 2237 1160 1890 1947 1810 2192 294 1193 
1245 2457 543 1204 711 1181 918 493 791 
3724 3670 3137 700 2435 1393 172 4605 2460 
1883 3492 5043 1652 339 69 2347 2378 2681 
1735 4556 216 706 1065 3059 248 2542 35 
371 3030 5238 4910 876 5299 4220 5716 4956 
5261 512 5426 1184 2585 781 5531 3172 3443 
1015 3295 5188 5948 2550 1965 4389 2711 4339 
2245 3381 3611 3826 3807 2108 39 5979 5707 
2912 2506 3828 1992 4917 2531 1474 3159 2498 
2450 1035 1346 3774 3596 4003 2384 1813 2813 
3543 3203 2632 5250 5080 4372 4684 5015 4609 
1610 3720 2173 4254 930 3251 657 971 2877 
2297 1746 3607 1482 2469 707 1254 2340 2233 
3473 1383 2127 3231 2228 498 1197 646 979 
128 1366 56 957 752 883 1172 7 1022 
221 843 1436 265 713 1191 479 1135 926 
748 2 188 673 3298 455 1684 867 626 
1542 614 365 184 1232 520 951 1257 964 
558 352 238 308 682 726 1027 2793 1633 
1466 1853 1259 400 1829 1910 2236 3342 3192 
1670 3057 1867 3529 1056 3413 1503 3035 3012 
3852 102 2406 58 1315 4792 2063 5068 6060 
1900 6066 4819 4014 1415 3111 5008 1361 5398 
5332 594 2621 3610 1938 5990 5838 3482 158 
2881 2870 3745 2481 4125 2836 3048 4053 3617 
4559 2620 3065 4691 2977 2335 1448 2696 3309 
3652 3838 763 2062 2924 800 1288 2389 1843 
1641 482 567 1605 2023 3094 1491 865 721 
1400 1562 1334 43 1385 96 2273 310 3489 
1243 1369 366 328 348 635 1527 388 177 
1560 1471 1005 1817 1103 1118 532 279 122 
2776 1711 2911 1738 149 4227 76 4280 530 
2960 4459 742 4711 5991 2217 2488 3321 2568 
5537 4020 4932 4816 4239 5802 5027 2910 4913 
6024 4923 2935 272 2964 2343 884 1983 2926 
5101 941 4305 108 5918 2150 93 4259 2005 
4208 1176 1377 4472 3972 3890 3151 4854 3636 
3193 4091 2865 5386 3380 1723 2006 1124 318 
3999 1524 3707 4120 3895 2110 1012 1603 3885 
2610 273 6034 4793 4584 4508 516 3400 2073 
4200 3442 2144 514 3076 1556 2995 4135 676 
2535 3779 1167 27 1991 1724 2262 305 2463 
811 431 826 121 4606 3647 3036 4057 2511 
373 3491 862 433 3058 5454 3996 3859 3822 
2665 5226 4901 5259 5764 4269 5965 343 4944 
3282 2615 4622 5678 4931 3824 1275 1079 4338 
4515 3541 5612 4049 6050 1830 4330 5630 1247 
95 2552 4658 923 1202 1617 2314 1661 5383 
4566 3721 5598 5945 1848 3276 544 5745 3502 
2016 5321 5195 5253 4379 5721 2976 1763 5969 
4915 4583 4503 3164 5558 3584 5094 5621 2499 
6021 86 4199 4664 4069 4173 4115 5674 2475 
3848 3316 1564 4335 3052 3590 5254 5103 5512 
2588 189 1970 5616 5658 5218 4990 5257 4934 
4993 5176 1762 4675 5878 4843 2722 4497 5703 
5011 4068 4289 5488 4702 4692 5788 5022 4536 
5756 4244 6018 5551 4004 4375 3962 4325 4817 
2816 4015 4998 5021 1552 3995 4473 3000 5998 
3524 5204 3693 2211 157 2541 4739 4728 5793 
4327 562 3140 3958 5538 3918 5877 3582 4676 
4838 2047 3060 5648 5123 5698 4300 5919 5133 
5585 4275 4157 2367 4850 5042 5731 4141 4163 
4012 288 4442 4247 264 5787 5834 5604 5285 
1390 3096 5284 4615 5023 3420 4197 5542 5083 
5652 5831 5267 3906 4868 4694 4730 5074 5075 
4885 4531 2938 5649 5380 4725 4886 5221 5776 
3884 4548 4160 5394 5171 4799 5879 3145 2733 
5252 5473 4349 5843 5994 3562 3643 5961 5444 
2674 4414 5694 3266 4617 4806 3865 2402 3651 
5999 3925 4959 4175 3759 5773 4978 4221 5095 
4995 5640 5832 4908 4402 5625 5860 5174 5821 
3133 4256 5931 3990 5312 3291 4224 4699 4477 
5749 1743 2068 3242 2823 3104 4776 5966 621 
4038 5046 1660 1119 1059 1836 1068 2009 3835 
765 1178 2012 4050 449 807 1003 3790 3131 
65 625 2186 2083 1894 2075 3267 5628 3200 
192 3899 803 1688 335 4822 2796 607 5800 
4419 12 1144 3493 2672 5368 3569 3355 648 
4440 3773 5279 3604 2468 5885 943 1933 1657 
2225 5230 4918 1557 4255 4575 1700 5789 3754 
3365 3901 5766 4936 1149 5898 4808 3259 5699 
300 4855 3563 996 5670 2415 992 778 2504 
1453 1811 469 2627 644 3115 3033 1931 3441 
3465 5611 1929 230 2489 2936 4337 3027 155 
3472 1895 4265 4874 5714 3836 5352 1963 2086 
946 3214 2031 3114 1349 5803 3987 494 4137 
3513 2179 4996 3169 2323 4063 462 6019 2377 
5947 2380 1778 497 3475 5333 3354 2834 3346 
5927 4029 3374 3258 5676 2458 5938 1365 1725 
4889 4048 5388 1064 1459 6058 3134 1179 944 
4871 4510 4706 1281 1989 448 1580 1917 3130 
5177 3300 2594 4551 1380 5034 877 1995 683 
1418 5115 5449 5523 4222 2937 2882 5928 213 
4847 2253 1282 1775 3495 342 786 2495 1104 
802 1683 2309 4663 4383 3047 653 860 1265 
4864 187 5053 4285 3067 510 5809 5905 980 
792 4527 5355 821 1942 2815 783 5671 4642 
5169 3748 978 2134 114 5450 998 2598 690 
1785 3794 1948 5292 3509 4331 2652 3602 1812 
977 5506 4248 4214 2293 4704 1695 3975 3944 
5154 4612 1370 2662 3001 1583 835 1705 5853 
5795 4025 5763 4463 4963 4111 2827 1143 4734 
1498 5354 2394 735 3227 2485 3397 3315 2106 
3122 3639 5646 3767 1338 1058 2740 3841 5266 
303 547 3732 5909 5220 973 3982 4985 4496 
3914 4457 4800 5971 4367 5513 4292 4518 4211 
3358 1592 4162 5206 416 2354 4540 2449 506 
3744 4083 5682 1919 2397 4426 2033 5871 5233 
3360 2684 2538 1924 2336 1360 2967 1801 2069 
868 2971 3520 2556 2721 481 2716 3195 5876 
2644 6057 5245 5459 1165 5578 2038 1869 965 
3154 4052 1911 4927 2529 1004 1658 4143 589 
1055 1806 2856 1367 3056 1870 3011 584 2213 
204 1318 2772 2303 1971 5049 2916 708 1765 
73 4712 732 6012 4598 5384 215 3688 515 
852 3160 5498 5935 2147 324 2930 437 4257 
2800 4101 2785 3580 577 5412 3666 1651 2587 
5128 4243 3729 2747 1838 618 190 1322 1585 
777 703 4219 2219 3213 1434 2286 5031 1296 
1217 5313 5675 5077 5872 736 4794 5816 3821 
2855 42 2700 4005 2611 3085 1716 4374 1739 
2658 1809 5153 2175 2680 2200 1849 1878 2578 
2181 3119 696 4804 3272 3265 1356 1598 2050 
1090 3100 5078 2248 14 651 1340 825 307 
755 804 152 404 2647 670 897 1358 393 
671 942 848 410 568 1861 1219 314 333 
725 210 1214 223 548 2580 602 801 1038 
737 2602 1284 734 1092 1802 1832 1766 569 
2280 309 612 2656 4094 1550 981 19 2888 
1819 2703 4920 2274 2646 1100 3452 1754 2080 
1708 1114 2653 24 33 5160 3476 1555 820 
4023 3188 4274 5190 4253 169 4196 1784 3445 
5088 4841 5976 1702 2163 2230 3438 3565 2139 
1443 222 2145 2790 2429 2493 3893 3428 5455 
5602 1239 1889 1551 1703 1876 3635 2761 3598 
4533 5546 2561 3257 2391 347 2928 1258 1590 
769 1273 2983 1329 692 1432 250 715 2265 
1002 442 1099 2060 1727 196 937 319 354 
1216 1654 130 1561 1465 1480 1287 231 545 
1398 3356 1186 1747 667 47 634 619 3099 
603 461 729 1693 1192 666 2220 1536 580 
2574 50 124 1438 4571 2436 2692 4204 2334 
3389 2132 4252 5600 5270 5121 4824 5753 2817 
3903 3440 4767 334 4751 1943 2209 3696 5411 
4404 3171 1461 3931 5309 407 3143 4538 3631 
2582 1384 3812 3470 3750 3254 2906 1624 3157 
84 2724 4233 2446 3831 593 5923 4698 1395 
1422 2798 2756 1427 2766 3619 430 2218 5644 
5283 2306 4693 3646 2527 1299 587 1916 2828 
1941 1538 4738 924 2404 4268 5911 521 1388 
3810 4100 2622 5231 4394 688 2972 3436 1077 
3625 4620 362 1487 4543 5752 476 1429 536 
2841 5633 2975 5572 5155 5952 2530 2927 4314 
5518 5344 824 5582 5830 4329 5362 5242 6049 
5651 1753 2333 1758 1602 3247 3921 5280 3467 
1572 4356 5769 2675 2829 3377 5002 1794 1644 
4771 4428 3448 4754 1147 3627 4368 1407 3508 
5901 2685 4504 1237 3348 2570 2985 4673 5576 
3004 2467 4483 3979 5818 2986 4914 599 5771 
5812 5798 3505 5785 3749 4460 2777 5884 4953 
3740 5631 4445 5033 5337 1956 5381 3046 1190 
3985 5974 5092 2885 3044 1918 4763 4234 5958 
5330 2180 4845 5906 5301 6061 4168 5323 4193 
4681 5850 5933 2563 5439 3940 5807 2133 5466 
5722 5729 4589 3477 4225 2165 4856 1529 4413 
2405 3956 794 4523 2795 4441 5568 5679 260 
1731 2146 1554 2641 1268 1966 2832 36 5470 
2421 2956 3924 2375 4949 5210 5697 243 5414 
2305 1682 2599 2092 5137 3078 3876 4991 10 
2281 3657 2904 3711 5942 5922 4601 3352 4757 
4479 3928 905 751 5571 5164 5239 4972 4287 
2949 2804 3205 4142 4912 4952 4947 1920 5892 
4075 5817 4522 5214 3664 4431 1717 2348 1327 
1207 3015 4870 6038 5501 3589 5112 5642 4557 