# vtk DataFile Version 4.2
Generated by LIGGGHTS
ASCII
DATASET POLYDATA
POINTS 6000 float
-0.021247 -0.0396222 0.0164225 -0.0175043 -0.0412699 0.0183876 -0.0141693 -0.0389196 0.016985 
-0.0137396 -0.0427037 0.0182931 -0.0179132 -0.0374673 0.016976 -0.0106027 -0.0400404 0.0185052 
-0.0038639 -0.0377245 0.0176998 -0.000602328 -0.0414887 0.0182223 0.000776928 -0.0377899 0.0175123 
0.00334981 -0.0410427 0.018998 0.00771901 -0.040539 0.0174268 0.00483964 -0.037515 0.0177688 
0.0122243 -0.0390793 0.018021 0.0127104 -0.0431395 0.0184129 0.0158886 -0.0409991 0.016903 
0.0194737 -0.0405163 0.0189839 0.0234024 -0.0384058 0.0182201 -0.0296665 -0.0300589 0.0179927 
-0.0275902 -0.0355114 0.0176866 -0.0242734 -0.0366768 0.0156538 -0.0218586 -0.0335292 0.016709 
-0.022626 -0.0295547 0.0168446 -0.0253966 -0.0323827 0.0189206 -0.0151545 -0.0353138 0.0146797 
-0.015144 -0.0316905 0.0166296 -0.0186821 -0.0298721 0.017432 -0.0182344 -0.0337167 0.0187921 
-0.0111705 -0.0361686 0.0162252 -0.0072978 -0.0355892 0.0175331 -0.00866589 -0.0318558 0.0169695 
-0.012011 -0.0302469 0.0188096 -0.0053255 -0.0301382 0.0189001 0.00248988 -0.0341693 0.0176588 
0.00245985 -0.0292717 0.0178441 -0.00385144 -0.0339081 0.0189304 0.0055468 -0.0316293 0.0166607 
0.00914986 -0.0329784 0.0178942 0.00876736 -0.0368818 0.0189484 0.011403 -0.0298024 0.0188302 
0.0156966 -0.0369368 0.0182374 0.0197449 -0.036636 0.0180228 0.0175249 -0.0334303 0.018911 
0.020181 -0.0288965 0.0189909 0.0219799 -0.0325193 0.0177449 0.0239451 -0.0289931 0.017245 
0.0261652 -0.0320932 0.0186503 0.0267152 -0.0361344 0.0186048 0.0306984 -0.0312266 0.0152627 
0.0339505 -0.0294863 0.0169366 0.0298953 -0.0335594 0.018807 -0.038259 -0.0235603 0.0173536 
-0.0346172 -0.0284064 0.0175136 -0.0311137 -0.0264255 0.0171369 -0.0342658 -0.0238882 0.0175913 
-0.0303708 -0.0224392 0.0169284 -0.027096 -0.0247686 0.0171956 -0.0265937 -0.0285412 0.0158945 
-0.0229712 -0.0223535 0.0156145 -0.023243 -0.0259145 0.0184211 -0.0196839 -0.0227852 0.0181396 
-0.012347 -0.0262552 0.0179566 -0.0159249 -0.0241248 0.0185529 -0.0122009 -0.0222669 0.0172128 
-0.00888334 -0.0239771 0.0186535 -0.00870588 -0.0279953 0.0189507 -0.00307659 -0.0226426 0.01807 
0.000558002 -0.024226 0.0174556 -0.00196389 -0.027952 0.0189428 0.00434643 -0.025672 0.0182816 
0.0118922 -0.025344 0.0177706 0.00783882 -0.0283653 0.0175334 0.0079494 -0.0240348 0.0176553 
0.010987 -0.0213622 0.0177467 0.0158359 -0.026136 0.0180242 0.018885 -0.0234926 0.0183869 
0.0150167 -0.0221934 0.0177008 0.0224108 -0.0253263 0.017818 0.02641 -0.0245393 0.0172197 
0.0283765 -0.0284442 0.0169904 0.0236346 -0.0215306 0.0181561 0.0275837 -0.0209057 0.0186027 
0.0333632 -0.0255472 0.0178174 0.0313762 -0.0219863 0.0178232 0.0351496 -0.0217331 0.0163588 
0.0372861 -0.0251128 0.0168639 0.0391359 -0.0220377 0.0187997 -0.0402324 -0.0200528 0.0175716 
-0.03785 -0.0166921 0.0175317 -0.0420729 -0.0157493 0.0174165 -0.0360107 -0.0202328 0.0167356 
-0.0297334 -0.0141242 0.0175609 -0.0347772 -0.0140765 0.0168706 -0.0332077 -0.0179204 0.0185257 
-0.0291113 -0.0191574 0.0188471 -0.0265143 -0.0205107 0.0159592 -0.0261042 -0.0167439 0.0177331 
-0.0260209 -0.0126744 0.0179234 -0.0227592 -0.0188323 0.0185913 -0.022451 -0.0144621 0.0185712 
-0.0157723 -0.0201319 0.017492 -0.0162911 -0.0161723 0.0179332 -0.0189591 -0.0124552 0.0183599 
-0.0147456 -0.0124711 0.0175315 -0.0116091 -0.0149376 0.0172346 -0.0107198 -0.0187489 0.0184882 
-0.00696064 -0.0170545 0.0181728 -0.00349699 -0.0139817 0.0171813 0.000411686 -0.0166811 0.0184349 
0.000362501 -0.0126724 0.0181639 0.0101754 -0.0174414 0.0173608 0.00819136 -0.0139535 0.017692 
0.0182346 -0.0194986 0.0186056 0.0167509 -0.0158953 0.0171106 0.013303 -0.0143087 0.0183734 
0.0205506 -0.0144165 0.0181467 0.0245857 -0.0138707 0.0175044 0.0306105 -0.0180706 0.0181904 
0.0355673 -0.0155605 0.0179299 0.0291067 -0.0143585 0.0182286 0.0327628 -0.0127356 0.0184117 
0.0378289 -0.0187274 0.0167345 0.0393049 -0.014152 0.017711 0.0413805 -0.0175867 0.0182586 
0.0430656 -0.0128422 0.0183253 -0.0403582 -0.0116032 0.0164828 -0.0438725 -0.00936951 0.0153013 
-0.0382041 -0.00552593 0.0159182 -0.0445162 -0.00552924 0.0164896 -0.0403946 -0.00795779 0.0185061 
-0.0350852 -0.0098738 0.0154156 -0.030938 -0.00990028 0.0159868 -0.0328942 -0.00579401 0.0157447 
-0.0283408 -0.00595315 0.0152377 -0.0225085 -0.0104666 0.018014 -0.0238819 -0.00688202 0.0165724 
-0.0275035 -0.00884998 0.0180745 -0.0168699 -0.00906998 0.0179395 -0.0169167 -0.00507036 0.0174832 
-0.0129602 -0.00655897 0.018897 -0.0105064 -0.00964522 0.0172215 -0.007307 -0.012098 0.0170129 
-0.00593266 -0.00829134 0.0179718 0.00176312 -0.00620063 0.0183606 -0.00116057 -0.00901151 0.0187019 
0.0205579 -0.0103997 0.0184489 0.0143842 -0.00936626 0.0187068 0.0130578 -0.005592 0.0190021 
0.0242116 -0.00948486 0.0170845 0.0216175 -0.00655966 0.0179594 0.0252227 -0.00478708 0.0179728 
0.0277034 -0.0106464 0.0189002 0.0314521 -0.0089885 0.0178525 0.0356324 -0.00889192 0.017082 
0.0421263 -0.00907404 0.017368 0.0371039 -0.00522208 0.0181568 0.0445495 -0.00595084 0.0180946 
-0.0409583 -0.00266204 0.0171576 -0.0442727 0.000483664 0.0171025 -0.0407989 0.00234812 0.0141407 
-0.0401348 0.00114288 0.0181547 -0.0368163 0.00119972 0.0158805 -0.0338275 -0.00149038 0.0157274 
-0.0297089 -0.00207969 0.0151337 -0.032719 0.0028743 0.0158605 -0.0368244 -0.00188799 0.0184749 
-0.0312997 -0.00236831 0.0189318 -0.0284992 0.00327419 0.0145257 -0.0206097 -0.00332371 0.0166185 
-0.0250829 -0.00277682 0.0161183 -0.0221406 0.000547842 0.0167846 -0.028046 0.000647213 0.0179764 
-0.024807 0.00323857 0.0183923 -0.0146644 -0.00188383 0.0184399 -0.0155171 0.00185746 0.0171023 
-0.0191441 0.00351932 0.0168167 -0.018479 -0.000276681 0.0189031 -0.0117087 0.000945017 0.0183406 
-0.0108406 -0.00327088 0.0179517 -0.00795379 -0.000504664 0.0176567 -0.00683214 0.00335475 0.017567 
-0.00405745 -0.00147525 0.0177736 -0.000851501 0.00111085 0.0181745 -0.000424414 -0.00286303 0.0187424 
0.00560606 0.00246478 0.0176839 0.00939546 0.00379758 0.0179187 0.0131766 -0.00163603 0.0179922 
0.0165078 -0.00394995 0.0178039 0.0171793 1.83581e-05 0.0181202 0.0189196 0.00388107 0.017648 
0.0149511 0.00359016 0.0184872 0.0218985 -0.0025969 0.0174985 0.0260518 -0.00081208 0.0178788 
0.0220324 0.00136869 0.0180715 0.0281698 0.00257784 0.0180734 0.0296999 -0.00304043 0.0184869 
0.0315939 0.00044974 0.0179878 0.0353758 0.00180523 0.0179666 0.0346337 -0.00210357 0.0186419 
0.0410882 -0.00381494 0.0181445 0.0448832 -0.00187879 0.0180927 0.0422139 0.00111204 0.0181576 
0.0390106 0.0035922 0.0182886 -0.0441759 0.00756862 0.012657 -0.0406298 0.00885315 0.014384 
-0.0447355 0.00432444 0.0154669 -0.0410291 0.00557086 0.0170328 -0.0438314 0.010107 0.0166435 
-0.0427234 0.0121144 0.0130478 -0.0396386 0.0106412 0.0180948 -0.0299774 0.00648957 0.0165992 
-0.0359548 0.00761943 0.017066 -0.0321979 0.0106161 0.014992 -0.0361163 0.0120236 0.0151255 
-0.0240769 0.00644076 0.0159051 -0.0260215 0.0105455 0.0148483 -0.0212112 0.010153 0.0158085 
-0.0267101 0.00785628 0.0187835 -0.0240899 0.0113282 0.0185554 -0.0174855 0.00721899 0.0175775 
-0.0139709 0.00555487 0.0165977 -0.0141423 0.00952629 0.0159168 -0.0175437 0.0113534 0.0176366 
-0.0100905 0.00583942 0.0175927 -0.00690026 0.00838482 0.0173101 -0.0104344 0.0102162 0.0178644 
-0.00292757 0.00923493 0.0173989 -0.00294714 0.00451012 0.0177194 0.000301336 0.00691288 0.01807 
0.00379776 0.00868401 0.0171425 0.000527071 0.0109205 0.0186096 0.0123039 0.00655551 0.0176762 
0.0084052 0.00785836 0.0174896 0.00662602 0.0115098 0.0173593 0.0164053 0.00719532 0.0173733 
0.0204668 0.0083892 0.0177453 0.0135758 0.0102207 0.0166674 0.0175716 0.0111915 0.0172173 
0.0229648 0.0052474 0.0174378 0.0268397 0.00624216 0.017144 0.0245787 0.0095355 0.0175106 
0.0317535 0.00445041 0.0175169 0.0362527 0.00651517 0.0175961 0.0322709 0.00846336 0.0171626 
0.0368777 0.0113555 0.0164222 0.0440537 0.00754723 0.0168967 0.040144 0.00836178 0.0174779 
0.0434995 0.0115221 0.0172587 0.0447691 0.00418022 0.018956 -0.0418638 0.0159376 0.0147653 
-0.0373717 0.0173578 0.0158807 -0.0395209 0.0201393 0.0138094 -0.0407637 0.0186267 0.017635 
-0.0318075 0.0165443 0.0155605 -0.0292294 0.0135032 0.0171243 -0.0306073 0.0203818 0.0157522 
-0.0290493 0.0172992 0.0183737 -0.0274672 0.0166472 0.0146001 -0.0232183 0.0139726 0.0154221 
-0.0248397 0.0198292 0.0150486 -0.0239282 0.0164281 0.0185387 -0.0200196 0.0172541 0.0150007 
-0.0163268 0.0150917 0.0168248 -0.0148413 0.0201709 0.0159093 -0.0202445 0.0146431 0.0180221 
-0.0138278 0.0123977 0.0187676 -0.0178413 0.0185237 0.0182142 -0.012212 0.0155959 0.0165605 
-0.00528529 0.0162983 0.0175801 -0.00895495 0.0178153 0.0181292 -0.00654915 0.0124942 0.0186457 
-0.00161676 0.0141866 0.0171543 -3.16705e-05 0.0180328 0.0167125 0.00343477 0.0137384 0.0184246 
-0.00331454 0.0198147 0.018849 0.00451564 0.0185622 0.0165415 0.0105209 0.012732 0.017527 
0.00792653 0.0158642 0.0179781 0.0111211 0.0189834 0.018831 0.0142074 0.014332 0.0172778 
0.0181631 0.0165706 0.0178727 0.0149163 0.0202337 0.0173938 0.0192013 0.020384 0.0151201 
0.0248293 0.012849 0.0149508 0.0221585 0.0156456 0.0172364 0.0260191 0.017095 0.0167526 
0.028872 0.0126504 0.0167932 0.0328664 0.0137758 0.017664 0.0359447 0.0162473 0.0157635 
0.0321872 0.0176976 0.0172034 0.0291623 0.0204882 0.0165052 0.0368367 0.0201725 0.0176736 
0.0398829 0.0140435 0.0161645 0.0395584 0.0203239 0.0143777 0.0406666 0.018196 0.018087 
-0.037162 0.0245525 0.0130668 -0.0379811 0.0225275 0.0169343 -0.0311882 0.0248799 0.0149971 
-0.0350116 0.0211452 0.0146172 -0.0351182 0.0278361 0.0142774 -0.0337426 0.0233333 0.0177549 
-0.0352588 0.0279055 0.018477 -0.0280929 0.0270674 0.0162769 -0.0219078 0.025193 0.0156369 
-0.025523 0.0240683 0.0170507 -0.0223833 0.0206493 0.0183893 -0.0193742 0.0211847 0.0155872 
-0.0179181 0.024943 0.0166338 -0.0138234 0.0243686 0.0166773 -0.0162115 0.0287691 0.0164678 
-0.0120595 0.0282788 0.0169276 -0.00976935 0.023802 0.017437 -0.00468893 0.0253795 0.016726 
[...]
POINT_DATA 6000
FIELD FieldData 7
id 1 6000 int
1074 48 684 552 550 1044 626 2537 69 
62 139 123 600 270 1619 1883 502 529 
638 170 822 1072 1269 265 547 221 7 
561 415 145 1097 307 588 789 1011 1301 
365 51 685 230 843 339 80 248 522 
251 281 20 935 471 1628 330 75 474 
678 1022 278 404 713 349 812 1452 749 
1157 393 1436 333 989 1542 46 329 28 
337 411 214 109 64 402 118 85 732 
3 165 314 531 126 1713 2326 107 957 
1491 136 434 707 128 171 1108 1561 262 
380 1131 1369 1266 327 1156 673 1171 1219 
185 780 161 1061 1440 1138 455 677 988 
274 111 437 435 350 364 606 1243 484 
45 916 1570 1016 635 236 840 1216 366 
168 1560 105 815 564 803 1101 469 1684 
841 445 256 282 1038 858 392 440 781 
396 178 512 1462 1525 1426 1667 353 1709 
590 162 952 1304 250 388 153 196 310 
538 836 1066 1287 591 451 764 368 605 
98 724 830 942 104 951 1232 217 565 
1205 616 301 783 1257 558 645 308 91 
18 34 401 383 849 1177 748 2022 680 
887 92 865 483 1095 166 1480 306 472 
442 311 937 667 879 859 122 578 177 
532 508 359 286 253 354 1094 659 785 
805 381 523 405 76 1214 379 211 384 
682 886 1372 1015 1732 1648 146 687 656 
795 2167 420 1864 1180 1070 456 1398 27 
619 490 266 634 348 513 1271 1465 130 
553 352 340 501 1117 82 53 665 390 
344 164 124 47 59 1471 545 1766 400 
598 551 208 209 44 997 993 811 13 
100 133 129 927 40 357 132 603 370 
288 560 983 1000 867 914 890 142 1048 
275 1339 134 2132 154 1075 557 1192 2100 
1738 1792 149 1272 1182 1910 341 1901 2659 
338 258 863 809 637 86 1164 940 31 
1211 819 127 601 373 227 200 592 325 
688 1429 2528 1536 666 1693 23 50 453 
2776 618 9 1043 2629 438 207 575 1961 
2915 2523 910 1146 572 160 862 828 970 
1621 1195 1069 229 1118 60 399 530 446 
175 61 1564 874 2705 2996 362 672 2182 
658 2511 797 1449 421 1093 1060 466 517 
1053 773 1197 842 755 825 498 316 14 
63 1706 902 441 452 574 244 71 252 
1 589 1379 468 791 537 38 1741 1031 
1546 735 1307 292 918 204 1903 1691 835 
2867 652 2479 1311 1419 1401 1115 869 32 
88 1294 1078 358 1456 1336 427 1445 646 
499 762 179 1135 1776 752 761 297 2109 
1191 1139 425 1290 1055 507 276 632 1141 
1715 804 2213 152 304 622 519 1652 784 
568 670 772 382 955 727 176 660 2547 
2394 870 662 2460 3382 3639 49 2001 973 
525 3298 4074 3008 2810 2292 1240 647 549 
976 1039 1562 691 1421 397 2094 608 1641 
1790 1071 1172 926 1523 649 1134 263 991 
1090 479 716 1342 1387 2272 1252 1163 1086 
1244 444 648 148 448 778 1283 1626 167 
112 377 1001 839 1583 786 1166 1761 1003 
1203 848 460 1408 1406 449 1841 2648 219 
363 852 1091 640 284 2752 992 3077 201 
2055 215 708 291 1148 303 945 223 3964 
35 2418 710 3534 1145 3923 268 706 3933 
738 679 2636 2097 2263 1757 2663 1458 2104 
984 1934 56 1358 885 2023 883 2459 2883 
2060 1258 829 1085 808 369 103 1734 1348 
1023 759 793 1430 1276 898 944 535 1335 
2083 919 25 1368 193 1981 1067 2056 982 
1824 184 566 1381 607 2439 464 526 1435 
116 1319 949 1861 1274 911 138 1270 1151 
782 1338 1894 1057 1281 235 962 398 1781 
1897 968 921 1198 860 515 156 801 94 
492 2580 2232 894 909 1194 827 247 296 
694 774 2785 985 371 1189 1853 1318 143 
1333 1630 528 1962 1123 1354 2366 17 2452 
3110 2863 1859 1611 1300 1768 2118 1959 1606 
1334 906 1450 2113 206 1727 1288 1505 2606 
833 671 1551 1444 1051 1412 1234 505 769 
96 721 1590 1620 1002 450 623 1357 95 
731 225 1337 495 1058 1665 650 1974 1380 
974 779 555 750 182 831 1549 2058 931 
237 1206 807 725 410 818 995 1714 1155 
212 1425 285 925 686 2 987 11 1253 
458 821 712 861 1170 150 125 614 669 
548 602 581 1292 1213 169 675 3027 1802 
1092 1915 2438 629 577 73 29 630 257 
917 1765 1472 747 313 1184 654 2329 1539 
2148 740 2264 3201 1424 2900 2389 1944 2687 
3600 2105 1223 1052 963 1340 2265 857 1578 
1598 1175 43 1795 1124 283 567 1422 87 
1494 163 1573 556 1250 1524 722 326 892 
1942 610 269 1634 975 436 355 376 465 
877 322 633 345 760 65 1143 475 260 
115 4 873 41 1683 758 1036 188 1208 
222 1453 1286 1233 202 409 141 97 1321 
847 346 744 733 699 1405 290 407 999 
277 83 8 187 1548 33 1404 1629 58 
520 261 964 324 1403 238 1362 432 1065 
576 216 1891 81 302 1129 609 1584 374 
1466 210 737 893 2328 2071 3246 1614 1528 
55 1816 3093 900 1037 1645 851 2778 1218 
1385 1420 2391 1850 1605 1400 715 1158 1898 
651 2296 430 2032 1643 705 280 1427 137 
462 697 1541 246 37 487 714 1040 457 
1310 832 695 668 159 1229 419 488 1165 
16 1054 391 120 689 544 1169 882 1459 
617 422 846 613 585 880 334 908 653 
213 1217 787 271 1059 703 180 775 1804 
875 70 1032 1443 1224 447 627 423 480 
580 864 981 1027 1322 1056 726 1284 395 
641 582 1930 1397 1730 403 1221 1886 459 
1887 1215 583 1225 2398 2095 2249 896 1642 
1246 1267 1534 2341 1798 1527 701 1831 514 
559 2262 516 347 67 1654 328 763 1185 
587 360 817 144 915 1835 534 798 845 
1700 1359 1952 342 106 372 489 946 834 
1159 1149 147 259 799 1014 1567 615 1438 
541 332 1050 776 928 1332 1119 443 1073 
814 99 1854 1532 596 980 936 198 2274 
1499 1511 2911 1671 1446 2280 463 19 1046 
173 938 245 1259 1576 2654 1045 1637 1228 
78 408 241 664 1612 305 1805 299 385 
2266 1724 1913 2383 2454 540 1689 2197 461 
121 418 1320 663 1188 1490 1378 1817 924 
231 907 1510 319 1099 21 1103 1186 110 
2073 439 539 1888 933 1530 1260 1719 2241 
1106 1173 1316 1237 2862 959 2177 323 191 
1107 889 2631 2153 2551 2048 2544 1029 1797 
1819 1638 2534 3436 2426 3106 2217 2704 2961 
1487 2555 2793 496 181 2857 1632 267 1855 
2331 3753 4191 2579 2136 1687 3045 367 676 
1024 2116 2751 478 3107 194 254 895 1679 
2161 4264 387 1791 431 826 2764 729 756 
766 1538 1662 279 1388 681 298 1969 1747 
1481 1010 1226 1581 2411 57 295 1957 1516 
2830 2574 1497 2879 1168 3099 1896 3218 2475 
536 1414 1821 1862 476 2521 3689 2081 343 
4227 742 1526 3101 2709 2324 3595 4035 4154 
3466 2220 3432 1829 1711 2999 2290 4867 1906 
3762 2256 853 417 524 1520 546 961 1136 
2064 1162 620 1005 1077 1028 1818 15 2403 
2589 2151 2283 1749 1325 1017 1390 2515 806 
674 1306 2315 413 1579 1762 636 2111 2940 
189 3058 1970 611 2737 3082 1317 433 1907 
2633 2955 2635 1750 2844 2393 1922 1492 1827 
315 1733 172 429 294 998 767 1181 320 
979 810 493 30 2444 1376 66 1371 2206 
1735 2101 1625 117 3471 234 2378 1846 2681 
2380 2192 2513 2809 135 2347 1890 2586 2856 
1787 3827 3208 3724 542 3269 2019 4073 3453 
3834 3418 2920 5124 720 500 1345 2327 1482 
2173 336 2149 2000 1261 850 960 1947 1926 
543 1383 711 948 570 584 897 1004 1245 
2346 1748 1366 300 2070 1231 1193 1238 2677 
1971 2614 1929 351 2894 1280 1899 2502 2627 
3227 2065 1483 2085 1775 2074 802 3439 3315 
4831 3465 3663 4232 3397 2487 1668 2850 3492 
3741 2969 5194 2122 4124 3098 3938 4746 5217 
3982 5384 4590 3416 4362 4087 3710 2387 2212 
930 1716 1588 2477 2478 657 2428 2297 2423 
1021 2340 1235 1254 2491 1810 965 2038 1911 
1586 2028 1068 1409 6 2003 1994 1839 1133 
1604 1375 838 753 929 1936 2214 1963 1811 
1489 2086 1678 2291 1699 3105 3073 1842 1594 
1788 2409 2540 1660 2892 2123 2247 696 2323 
2125 2741 3493 3508 3372 2783 2494 2773 3591 
2997 2449 4285 4263 3770 3577 3729 2740 2775 
3379 3841 4083 4638 3688 3147 4088 5181 3059 
3455 3576 4353 3702 2008 473 3313 3421 3212 
2432 3353 2338 2510 2490 2469 4046 2059 3939 
3254 2410 1694 1770 1945 2363 1710 1872 2512 
2620 1356 2881 1616 1161 1953 1927 1559 1876 
2050 1104 586 972 891 595 84 1476 1486 
1384 2259 533 192 1696 1537 2504 1834 2207 
1355 1326 2407 2298 2082 2176 1979 1635 2194 
1992 1701 1543 454 2102 977 1580 2010 1940 
1895 2682 2198 1826 1977 1517 509 3213 2230 
3003 3727 1639 1663 1298 1692 416 1555 3914 
1995 2322 2711 3580 3033 2542 3618 4405 3732 
2602 2147 1152 2626 3549 3006 2746 2135 2222 
2339 1837 2990 4254 3048 2738 4002 1722 3588 
3446 1782 2870 4940 2015 3065 2181 2099 2446 
1703 3257 3083 3128 1448 1239 1273 771 486 
503 1147 692 36 491 1082 1496 1202 2226 
1892 1822 1125 693 1116 151 739 10 1529 
624 1485 1468 378 1080 1575 813 1264 1823 
1190 240 406 2948 218 2087 249 119 1153 
884 1035 228 1431 1656 1674 1591 1997 1760 
131 1720 1137 1685 1547 2672 1242 1697 1928 
820 2953 604 2640 1688 1935 2355 2080 190 
2930 1867 2550 2703 2108 1633 1512 1968 1088 
2585 2020 1914 876 2612 2623 2261 477 1939 
2385 3184 3020 3305 3393 2691 2974 3915 3542 
3544 3641 4608 3005 2744 2696 3169 1603 2932 
800 1122 2002 2317 1908 1769 1391 108 1728 
356 571 736 643 1064 1227 197 1248 1582 
1330 1087 1295 90 140 1752 317 1278 1006 
1617 777 872 794 1920 239 856 5 1084 
293 224 1597 573 272 642 428 485 1353 
1312 1753 255 1230 2376 723 2587 1585 1506 
2025 2174 102 2767 734 1550 698 1909 1838 
309 1651 1434 1871 1955 628 1600 1828 1013 
1347 2114 1767 1670 1607 426 2227 3662 3189 
3210 2748 2577 2987 3546 3153 2965 3599 3177 
3240 2807 2928 2977 2686 2591 3501 318 1723 
273 2273 1729 2057 1395 506 2006 2190 1012 
1413 1150 1577 1484 1595 2035 68 1877 1812 
424 1007 1291 243 621 199 901 922 562 
1796 1220 1112 321 79 527 913 1344 52 
494 389 205 289 1469 1275 1089 510 186 
77 1297 939 89 2643 158 1081 24 1813 
746 1825 2532 2219 2051 39 1596 1377 947 
1289 2343 1114 1754 1592 1200 1503 1315 3012 
1374 1799 1832 2156 2666 1352 2236 612 1874 
1698 1905 1885 904 1063 1305 1631 1563 2420 
1474 1531 2302 2447 3089 2258 242 3087 2642 
3162 3068 1923 2924 3209 3023 2852 2400 3399 
2781 3262 1803 2983 1432 950 1126 1556 482 
3094 3431 1843 1389 1329 386 1599 593 631 
1653 655 2373 2798 1554 923 888 854 157 
2053 1519 1478 2484 2795 770 1127 1328 414 
1265 1868 1852 1407 816 1951 2657 1314 1033 
1303 954 1475 1327 2509 1083 1602 1455 941 
1187 1100 2384 2817 2063 1669 1351 1500 2440 
2304 569 2653 3413 2960 2805 4205 2392 881 
1568 1949 3758 2754 2768 3726 2739 4139 2905 
3022 1236 26 2560 2013 3185 2655 3427 2501 
1034 2345 2583 2895 2462 2789 2593 3815 3514 
2944 1167 2235 2404 2120 2545 4184 1932 2311 
1991 1916 518 1941 3095 2306 2535 4135 2972 
2144 3675 1783 2294 2828 2570 2985 2826 1904 
3168 2441 823 1933 2455 1844 2221 3070 3117 
2354 233 3163 1615 2572 2140 3031 2707 2546 
1464 3755 2656 2238 4065 4070 3389 3239 2849 
3215 2518 4346 2334 2436 4280 4403 5135 5110 
4883 4872 4377 3243 2897 2600 4909 2517 1958 
4452 3040 4592 3793 4616 4810 2875 3857 412 
2352 1673 2676 2708 1851 903 2103 2519 2117 
2962 2814 3512 3843 4268 1514 3396 521 2799 
2622 3463 3517 3038 2527 1299 2395 2941 1718 
3430 2980 2299 3904 2497 3597 2210 2619 2142 
3929 2526 3256 3816 4001 2690 2364 2424 3909 
2396 2067 3757 3590 2646 3859 4105 3822 2975 
4482 4650 3488 4252 3993 3851 4020 4711 3166 
3988 4459 3321 4678 4032 3585 2794 3805 1121 
1047 1399 3405 1535 3367 1627 2499 1308 3028 
1807 2289 2825 2514 3491 2077 2665 4360 3052 
3409 3206 2695 3615 3226 3625 3747 3316 4865 
3647 2549 4391 3967 2325 2530 2588 2618 3310 
3364 4671 3536 3980 3017 2731 3420 3408 3126 
3368 3369 3545 4138 3530 4188 2543 42 1801 
1840 1204 978 1990 1360 2605 2134 2891 1393 
114 2049 1277 2617 2353 101 2684 2451 3475 
2846 2495 2457 3856 969 3953 3361 3941 3363 
2216 3861 3129 3124 3902 2749 4303 2787 3730 
3839 4272 3968 3458 4466 5236 3653 4006 3949 
4544 4768 4569 4942 4447 4718 5808 3668 5760 
5691 1739 2412 3520 1809 2175 1647 2036 1624 
971 2237 1869 1924 2336 2093 2277 700 1479 
2435 1367 1705 1498 1695 4237 2652 2309 2772 
3424 3011 3132 1870 2882 2596 3684 3137 2848 
2992 4063 3555 2791 3122 3009 3769 3748 3920 
3655 3935 2303 5345 4700 4229 4187 5163 4122 
4777 5858 4530 4930 4605 4202 5235 4556 4874 
5846 4080 4649 5363 4602 4598 5049 5290 6012 
5265 4982 4284 3216 4026 6059 4682 5304 3336 
2611 2481 3025 1574 2877 2658 2200 3607 3085 
3229 3066 1160 2248 2127 481 2578 2716 2847 
1675 3100 3231 1676 1873 2417 1447 1931 1996 
2119 2320 1772 1880 625 2332 2039 2254 2604 
2859 3634 3224 1111 3506 3079 3016 3349 3337 
741 4918 3516 2496 3965 3351 3867 4384 4540 
5723 5128 5840 3270 2694 4260 3772 4292 5206 
4367 4800 3538 4003 4496 4518 5043 4430 5498 
4290 5105 5412 4211 5935 3075 3913 3387 5663 
4703 4741 5348 3714 3039 1650 3251 2552 3905 
2762 4178 3992 3344 2836 3473 1800 2233 2145 
3272 4374 3470 3151 2018 2493 2062 2106 1984 
1786 2171 2228 2745 1746 1658 2761 2004 757 
2399 2482 1222 2321 2421 2372 1623 1815 644 
1346 1110 1900 2072 2196 1657 2743 2382 2414 
1808 2061 1836 2240 2362 2651 3280 3225 2188 
1889 2413 2624 2344 1109 1113 3564 2260 2115 
765 3392 2489 3346 1912 2033 4219 2747 3026 
3217 3994 3860 4021 3435 5317 3230 2506 3611 
4243 4355 4350 3620 3828 3160 3032 3666 3414 
3311 5281 3443 4511 4257 3872 5014 3807 3373 
2800 3984 2569 4000 3324 3479 1659 4013 1707 
4005 3745 3293 3635 3617 3838 4559 4946 4691 
4246 4618 3309 2561 1878 4498 4089 3977 4064 
3636 899 2616 990 1893 2899 1179 2724 2143 
2966 1902 1784 511 1364 1513 1349 2137 996 
1789 2209 905 966 2042 1144 1495 1736 745 
1142 1470 1875 1950 1557 1247 1477 1025 1467 
1780 2110 943 1062 361 287 1589 1256 855 
1386 1020 1251 1128 1967 1313 1982 72 2461 
1759 1777 1363 2128 3219 1382 2189 3035 2609 
2431 113 2531 2912 3295 3381 2770 4478 3084 
3019 3057 3342 1686 1437 2358 1331 3335 3102 
2310 2453 3957 3013 2536 3459 3777 1154 2998 
3659 3685 4155 3366 2356 4507 3999 5053 4658 
4922 3698 2945 3157 3613 3743 4696 2865 2442 
4558 4708 3292 2139 3062 1680 2314 2141 2040 
3142 2851 1690 2215 788 1569 1921 1609 1268 
1293 1504 824 790 1533 796 1350 183 174 
2599 1649 1207 1493 2068 155 1210 1396 2246 
2034 331 1771 866 2313 1544 1309 920 1847 
994 1030 1441 702 1241 1212 1096 2089 709 
1773 2166 768 2157 1794 470 2755 1655 2480 
1845 2054 1972 2250 2664 1296 2162 3192 2982 
3478 2107 2419 2503 2245 639 1751 2603 1098 
1461 2613 2896 2750 2959 2251 2732 3583 4854 
3837 3652 3511 3410 4473 3667 3627 4753 5993 
2076 3895 3248 3858 2610 3707 2993 3193 4755 
4418 2164 1018 1361 2295 1460 1545 2756 3276 
3357 2701 2833 335 1130 1279 967 1370 1076 
1008 2133 1814 1102 1201 1324 2084 1960 932 
1552 2360 1199 2021 74 1463 599 1410 2016 
232 2348 1613 554 195 1993 718 12 1026 
504 2525 1263 1943 2045 1755 22 878 594 
1418 1442 1830 2342 1978 1983 1708 2312 2369 
1566 2813 2406 2379 2861 3297 2202 3494 2958 
2910 4055 3136 3829 1721 3103 986 1249 563 
2130 1571 2184 2860 2129 1394 3406 3579 4341 
4999 3444 2242 4251 3910 4603 2052 3934 3434 
3806 3540 3165 3037 3450 3340 4555 1858 2516 
3173 3400 4613 2821 3041 2766 4351 2465 1618 
1518 2641 2090 1454 1973 3958 792 3489 3885 
2126 2991 2816 3197 1120 3190 3811 4118 1343 
2929 264 2152 1522 690 1049 2275 2359 1402 
3537 1682 704 1176 1019 2374 1508 2679 3376 
1415 2725 2279 1985 226 743 1702 2370 2031 
2903 2163 2488 3649 2842 2753 3452 4685 3570 
4837 3529 2229 3323 3238 4298 4668 5050 4842 
3681 2780 3481 4276 4707 4004 2758 2835 3594 
3661 4277 3433 2729 4526 3868 3398 3304 4334 
4549 4698 5185 4190 5575 2467 3581 3442 4693 
3678 4126 3619 2995 2868 3036 4738 2218 3457 
3339 2765 3646 3705 4520 5096 3505 5099 4852 
3865 2634 3526 4395 2660 2904 2947 2592 2854 
3480 2500 2952 3916 4117 3686 2027 2978 2957 
4661 2923 3232 4314 2692 3476 5476 5764 5566 
4920 2568 4094 3900 3317 4932 4857 5487 5006 
5991 5560 4159 5007 3855 2650 3010 4789 5524 
4901 5040 3071 2257 3322 2797 3719 3775 4634 
4933 4158 4635 3809 4098 3290 4317 4082 5758 
4748 4474 4995 3779 2720 4115 4583 3288 4664 
4043 3614 5231 3749 3810 4690 3584 4953 1964 
3002 3780 4100 4113 4119 4069 2820 4348 3704 
3510 3563 4045 4390 3951 5431 4606 2946 4438 
4964 5226 4882 5259 2888 5218 5537 5155 4791 
5150 3996 4197 5726 5090 3245 2950 5664 5541 
4815 5577 5495 5200 4258 5422 4885 4164 4965 
3411 2788 3551 4019 5180 2726 5982 2884 3356 
4176 2869 2699 4381 5184 3963 5419 3889 4345 
4571 2463 3908 4057 3186 4926 4392 3566 4591 
4245 5742 3291 4224 4012 4543 3950 4573 4513 
3665 3327 4335 5009 4699 5460 5989 4477 5821 
5542 3552 1451 1365 2096 871 2069 2458 3509 
497 3329 2698 3767 3794 1998 3374 3773 4133 
3975 6058 4400 5178 3708 3464 2639 3449 3883 
3223 5539 5048 5804 5219 4017 3347 5406 4060 
5515 3882 5282 3285 3869 4128 4600 3723 4853 
4371 5504 4388 4249 5224 4365 4174 1849 868 
3893 3104 2971 2556 2538 2598 3830 3195 1917 
2967 4039 3154 2721 3942 2112 4025 3358 2567 
3944 2485 2871 3983 3733 2811 3141 2823 4111 
4663 4033 5039 4437 1664 4179 4527 3191 2079 
4167 4099 4383 6045 4846 4131 3699 5833 4469 
4956 5867 5805 3804 4140 4740 4985 5106 4747 
6007 4646 4892 3961 5557 4712 5205 5913 5684 
6037 4434 5346 3791 5229 5943 5134 5227 1948 
3628 2670 2963 2700 3462 2558 2906 2936 3407 
3796 3754 2802 2647 2680 1881 2667 2483 3119 
4241 2468 2994 2075 3524 3778 2925 2831 3401 
2818 3130 2763 2557 4407 2168 2668 4036 2282 
3907 3927 3207 3202 2792 3116 5446 5035 3532 
5341 4050 3987 3781 4029 4378 3306 3717 4984 
3738 3461 4433 3553 4595 4659 5775 4625 5127 
4461 5390 3672 5513 5451 5705 5238 4888 4493 
5097 5261 5223 4689 5936 5716 5962 4737 4719 
4308 5740 5322 3954 5586 4782 5514 6010 4357 
2335 3917 4182 3265 3115 2801 3007 1833 2430 
4217 2377 3139 4125 2473 2285 2918 2702 2757 
2710 1866 2779 2470 2576 1863 2529 2005 2917 
2733 2243 2594 2466 2351 2091 2098 2873 2637 
2734 2564 1860 3196 1209 3286 3422 953 2287 
1042 2689 2815 4038 2361 2205 2017 2638 2939 
4903 3053 3120 1966 2371 2239 2158 1704 4796 
4302 2429 5065 4499 3268 5069 3846 3801 3826 
5489 4101 5531 5826 4102 3486 5915 3375 4457 
4095 5423 5188 4935 5864 3454 4389 5680 3069 
4610 5665 5700 4567 4412 4053 3750 4328 4150 
4443 3680 5960 4802 3522 3377 4804 2774 3419 
4576 4062 4419 4066 3402 2307 3823 2769 2318 
2425 3504 3074 5741 3386 2554 1282 2759 2790 
2563 1954 2898 2571 2375 2208 3140 1636 1725 
1764 1515 1988 1742 1601 1919 1196 719 1392 
1439 1856 1341 1565 2408 1622 2507 1488 1473 
1756 1879 1640 2146 2170 1417 2330 1183 1501 
2575 2450 1558 2927 2284 2951 3390 3371 4107 
3131 2786 3550 4212 4376 2688 3572 5131 3055 
1041 3548 2843 3709 4309 5478 4828 4454 4248 
3682 3359 4091 4528 4624 3624 5360 3485 5117 
3111 4731 3234 3573 5060 4316 4492 4866 5983 
3261 2669 2717 2914 4261 2548 4636 1986 751 
2037 3214 2271 2204 2012 3528 1262 1672 2029 
2024 2203 1774 2471 312 2009 1502 1918 1712 
2047 1661 1938 754 1572 2253 1540 1820 2448 
2632 1140 1079 2742 1975 2397 1666 956 2276 
1999 1980 1745 1507 3606 3472 2582 3650 2456 
3784 3388 2943 2437 4924 2337 3220 4382 3260 
4240 3362 2933 2486 2837 1587 3874 3127 5269 
5215 4519 4593 5725 4449 3842 5622 4717 3495 
5264 5018 4566 5386 5496 4898 6002 5138 3622 
3468 3318 4961 5995 4282 4379 4142 3891 2661 
2124 3123 2349 3198 2305 2986 2973 3350 1989 
2270 2160 2281 3143 2808 3352 2508 3278 1255 
93 1105 2223 2333 3200 3096 2683 220 2885 
2718 579 1009 683 1132 3543 1882 3253 3440 
2829 2553 2030 3693 1758 3974 3593 3866 3567 
2415 3604 2866 2964 3852 1411 4078 4727 2365 
3296 4448 3782 2954 4436 2968 3798 4722 1946 
2796 1610 3394 4014 3469 2719 1884 4907 5637 
5310 5809 5222 5559 3768 5562 4655 3279 4152 
5786 2760 3146 4662 4962 4145 3334 5066 3847 
3897 4701 4844 5549 5777 3696 2889 3145 3721 
3156 4955 4354 4508 3061 3266 4490 2541 3255 
3135 4966 3134 4429 3249 3054 2832 4230 3500 
3715 2713 4097 4266 2845 1987 4385 4247 2841 
3817 4404 3700 4204 2901 2678 2908 3263 4226 
5027 4323 4072 3890 3644 3282 4081 4824 4614 
4239 2615 5658 5605 3518 4745 4114 4597 4517 
4306 4450 3064 3677 5251 3328 4370 2505 3765 
4807 4512 4375 4632 4851 4533 5056 3701 3679 
4270 3898 4432 5207 5766 4937 5984 5973 4293 
4453 5881 4077 4798 5082 2727 6063 5119 5986 
5855 5890 4169 4584 5721 4915 4200 4504 4294 
4793 4157 4673 4724 5321 4485 4396 5172 3051 
4911 4435 3979 4887 3976 4916 4387 4715 3946 
4144 3275 2893 5092 4234 6062 3903 4343 4895 
4783 4816 5083 5270 5616 4068 4470 4269 3503 
4680 5162 4913 5465 5075 4781 4876 4714 4599 
4725 4244 4692 5781 4557 4630 4170 4352 5543 
5375 5139 5819 5713 3383 4765 5447 5550 5234 
5471 4108 4617 5720 5615 5743 5296 4629 5473 
5032 4971 4198 4199 4651 4394 5916 5919 5969 
4899 4054 5785 4181 5954 3848 5454 4414 4772 
4806 4487 5164 3307 4506 4653 5033 5254 5981 
5925 4763 5519 5600 5176 5633 5574 4881 4141 
5174 5572 4536 5787 6006 5084 5583 4667 5815 
5863 5678 5649 5683 4948 5074 4531 5380 5806 
3919 3562 2193 5868 2880 3643 4034 5374 4273 
3651 4959 5126 5621 4983 4256 5835 5331 4639 