# vtk DataFile Version 4.2
Generated by LIGGGHTS
ASCII
DATASET POLYDATA
POINTS 6000 float
0.00353037 -0.0444115 0.00949979 0.00757872 -0.0441657 0.00841902 0.0124368 -0.0429137 0.00943592 
0.021976 -0.0385616 0.00934263 0.012535 -0.0359142 0.00921433 0.0189853 -0.0355996 0.00934665 
0.0141267 -0.0319432 0.00912409 0.0259148 -0.0364952 0.00745791 0.0292766 -0.0328486 0.00613751 
0.0044621 -0.0281398 0.00956136 0.0201259 -0.0286576 0.00882628 0.0289276 -0.0263782 0.00846763 
0.0357735 -0.0271216 0.00699238 0.0386607 -0.0227597 0.00914359 -0.0212607 -0.039612 0.0108652 
-0.0235644 -0.0374576 0.0163311 -0.0184696 -0.037105 0.0125449 -0.0176577 -0.0413643 0.0113467 
-0.0134593 -0.042774 0.013799 -0.0130944 -0.0383492 0.0108603 -0.0185538 -0.040582 0.0154298 
-0.0146741 -0.0390253 0.014946 -0.0143911 -0.042365 0.0177866 -0.00720602 -0.0374146 0.0114421 
-0.00677677 -0.0434299 0.00990475 -0.00960362 -0.0415929 0.0132643 -0.00505619 -0.0445238 0.0137715 
-0.0077673 -0.0440613 0.0166871 -0.00693908 -0.038552 0.015738 -0.01067 -0.0401834 0.0168616 
-0.00331964 -0.0404384 0.0130146 -0.00121841 -0.0442792 0.00995685 0.00276785 -0.040554 0.0112442 
0.00293401 -0.0447396 0.0135441 0.000682833 -0.0394745 0.0145297 -0.001149 -0.0445009 0.014681 
-0.00250651 -0.0409478 0.0169703 -0.0039548 -0.0446583 0.0177466 0.00225886 -0.0414534 0.017733 
0.00823788 -0.0397013 0.0126094 0.00713358 -0.0443634 0.0126155 0.0110381 -0.0432284 0.0131939 
0.00496453 -0.0413902 0.0145285 0.00656012 -0.0372259 0.0171327 0.00616613 -0.044514 0.0168026 
0.0106461 -0.0394082 0.0166697 0.012609 -0.0375371 0.0134469 0.0173571 -0.0412237 0.00991332 
0.0165408 -0.0377397 0.0124076 0.0200637 -0.0401286 0.0127672 0.0160088 -0.0418502 0.0136382 
0.0154385 -0.0377206 0.0164615 0.0136048 -0.0427277 0.0168504 0.0183116 -0.0410767 0.0173988 
0.0242344 -0.0378416 0.0128408 0.0219305 -0.0391765 0.0162505 -0.0329245 -0.0305244 0.0151903 
-0.0297706 -0.033486 0.013741 -0.0306794 -0.0327871 0.0178713 -0.026 -0.0353119 0.0135817 
-0.0264298 -0.0312226 0.0133693 -0.0215509 -0.0345287 0.0138298 -0.0215806 -0.0302776 0.0148781 
-0.0288427 -0.0292156 0.015901 -0.0249728 -0.0289372 0.0169119 -0.0239381 -0.0332825 0.0169624 
-0.0274935 -0.0355134 0.0173134 -0.0180886 -0.0320588 0.0135285 -0.0149179 -0.0347956 0.0144702 
-0.0134597 -0.0293306 0.0117431 -0.0185296 -0.0346996 0.0167124 -0.0149996 -0.0303958 0.0156535 
-0.011377 -0.0348136 0.0119404 -0.00949062 -0.0310851 0.0123641 -0.00501294 -0.0304842 0.0120557 
-0.00679737 -0.0343816 0.0142194 -0.0102573 -0.0361091 0.0161036 -0.0116261 -0.032395 0.0168761 
-0.00708785 -0.0301771 0.0159193 -0.00751652 -0.033651 0.0181434 0.000227781 -0.0365668 0.0114177 
-0.000690947 -0.0288106 0.0106244 0.00276177 -0.0333366 0.0120574 -0.00125874 -0.0322159 0.0132974 
-0.00302965 -0.0362856 0.0139792 0.00175036 -0.0295138 0.0144609 -0.00362981 -0.0369292 0.0180117 
-0.00369717 -0.0325313 0.0170006 0.00566003 -0.0363408 0.0105073 0.0102516 -0.0337505 0.0124941 
0.00697811 -0.0305553 0.0126919 0.00651585 -0.0343138 0.0141508 0.0101922 -0.0314683 0.0163075 
0.00577288 -0.0295316 0.0167575 0.0172944 -0.0324939 0.0118107 0.0128423 -0.0293004 0.0128906 
0.0188444 -0.0350952 0.0146484 0.014612 -0.0340875 0.01499 0.0141476 -0.0301542 0.0169033 
0.0201708 -0.0294801 0.0168659 0.0180956 -0.0327889 0.0180312 0.0230898 -0.0346247 0.00959714 
0.0265164 -0.0340839 0.0116011 0.026326 -0.0295545 0.0119146 0.0209625 -0.0307266 0.0128162 
0.0269995 -0.0358357 0.0152736 0.0244843 -0.0320668 0.0148915 0.0345004 -0.0287599 0.0104672 
0.0304319 -0.0327159 0.0115464 0.0304547 -0.0322914 0.0160466 0.0336374 -0.0297775 0.0148309 
-0.0379981 -0.0241259 0.0158708 -0.0398908 -0.0207889 0.0175226 -0.0303621 -0.0251674 0.014556 
-0.0355755 -0.0274607 0.0156604 -0.0339838 -0.0237319 0.0157774 -0.0311906 -0.0208696 0.0158583 
-0.0322625 -0.0267545 0.01784 -0.0266359 -0.0264556 0.0137265 -0.0275078 -0.0224159 0.0152985 
-0.0239094 -0.0241558 0.0158747 -0.0169573 -0.0274853 0.0131954 -0.0207358 -0.0219445 0.0143737 
-0.0166031 -0.0226885 0.0136851 -0.0207311 -0.0259737 0.0140105 -0.0135135 -0.0252818 0.0133746 
-0.0185787 -0.0283725 0.0168947 -0.0150432 -0.0262931 0.0169602 -0.0181631 -0.0234386 0.0174766 
-0.0150106 -0.0205133 0.0171238 -0.00916435 -0.0268572 0.0136624 -0.00783157 -0.0223445 0.0132955 
-0.0115972 -0.0283582 0.0165416 -0.0114321 -0.0219335 0.0154972 -0.00590636 -0.0262888 0.0159118 
-0.00805277 -0.0232238 0.0174956 -0.00407878 -0.0239588 0.0128203 -0.00119685 -0.0204536 0.0137433 
0.000934746 -0.0258205 0.0128212 -0.00240503 -0.0276466 0.014227 -0.00392919 -0.0219926 0.0163868 
-0.000341047 -0.0238769 0.0169037 0.0028979 -0.0262917 0.0168654 0.0100751 -0.0265695 0.0111703 
0.00625055 -0.0234145 0.0116887 0.0100308 -0.0226993 0.0132789 0.0108302 -0.0265829 0.0151607 
0.00655842 -0.0262388 0.0145085 0.0083074 -0.0235253 0.0168739 0.016998 -0.0286414 0.0144927 
0.0157895 -0.0266002 0.011263 0.0136007 -0.0226984 0.010776 0.0192754 -0.0244655 0.013317 
0.0151774 -0.0249066 0.0150313 0.01959 -0.0213783 0.0161696 0.0132892 -0.0227592 0.0179334 
0.0266422 -0.0222779 0.00994955 0.021059 -0.0222882 0.0103123 0.023764 -0.0262524 0.0107731 
0.0285057 -0.0270644 0.0150996 0.022448 -0.0269274 0.0146711 0.0258944 -0.0239975 0.0146376 
0.0253694 -0.0282527 0.0175957 0.0237402 -0.0221233 0.0176539 0.0295223 -0.022875 0.0130407 
0.0330819 -0.0238011 0.0106819 0.0368309 -0.025599 0.0121386 0.0327163 -0.0257406 0.0143158 
0.0370745 -0.0252656 0.0162664 0.0351112 -0.0221126 0.0146515 0.0307216 -0.0222235 0.0168849 
0.0391335 -0.021761 0.013288 0.0390584 -0.021665 0.017404 -0.0378669 -0.0138551 0.0149523 
-0.0420734 -0.015433 0.0156578 -0.03836 -0.0170807 0.0172712 -0.0361803 -0.0203031 0.0157825 
-0.0341946 -0.0122625 0.0145989 -0.0310569 -0.015106 0.0149975 -0.0347794 -0.0165003 0.0154701 
-0.0317512 -0.0176962 0.0183211 -0.0274268 -0.0137731 0.0137338 -0.0226936 -0.0131075 0.0137898 
-0.0215454 -0.017181 0.0145996 -0.0245627 -0.0197151 0.0158698 -0.0282275 -0.0181068 0.016331 
-0.0249477 -0.0147156 0.016812 -0.0138463 -0.0193894 0.0133183 -0.0188068 -0.0143819 0.0136079 
-0.0148495 -0.0152046 0.0139162 -0.0177337 -0.0182527 0.0139985 -0.0188354 -0.0187926 0.0178614 
-0.0173031 -0.015044 0.0174477 -0.013725 -0.0132441 0.018006 -0.00972217 -0.0185067 0.0127574 
-0.00529815 -0.0191036 0.0136767 -0.0109151 -0.0146634 0.0132864 -0.00674221 -0.0149088 0.0128992 
-0.00811587 -0.0169869 0.0162883 -0.0121482 -0.0166555 0.0165667 -0.00969062 -0.0134842 0.0176188 
-0.00569926 -0.0133333 0.0179799 0.00244195 -0.0159642 0.0118067 -0.00213512 -0.0156729 0.0127301 
-0.00406773 -0.0168113 0.0167494 0.00108945 -0.0149187 0.0154919 0.00854991 -0.0183209 0.0112115 
0.00436683 -0.012343 0.0119656 0.01189 -0.0139516 0.0104747 0.00657756 -0.0154452 0.0132824 
0.00965836 -0.019108 0.0152277 0.00992639 -0.0135368 0.0154632 0.00515348 -0.0124562 0.0160003 
0.00708783 -0.0159961 0.0172226 0.0178895 -0.0201977 0.012269 0.0146436 -0.019945 0.0149411 
0.0151803 -0.0173314 0.0111475 0.0201486 -0.0164557 0.0109119 0.0173508 -0.0134624 0.013393 
0.0131187 -0.0159548 0.0146611 0.0184284 -0.0169079 0.0151654 0.0190329 -0.0129653 0.0175255 
0.0206737 -0.0123327 0.0114624 0.0284011 -0.0171703 0.0116939 0.025183 -0.0140495 0.0118059 
0.0225413 -0.0130952 0.0153204 0.0271298 -0.0127602 0.015748 0.0357094 -0.0200596 0.0107772 
0.0318404 -0.0193433 0.0117585 0.0306438 -0.0144133 0.0137181 0.0346691 -0.0157611 0.0131275 
0.0357395 -0.0134474 0.0164491 0.0373759 -0.0179286 0.0152239 0.0412999 -0.0176913 0.0105802 
0.0385405 -0.0144748 0.0128468 0.0420603 -0.0128343 0.00978414 0.0411257 -0.0181354 0.0166051 
0.0425336 -0.0144654 0.0154148 0.0394588 -0.0141617 0.0180632 -0.043817 -0.0100929 0.0146384 
-0.0445064 -0.00612687 0.0145156 -0.0397776 -0.00641465 0.0147247 -0.0399867 -0.0105944 0.0159235 
-0.042426 -0.00772107 0.0175744 -0.0303734 -0.0110783 0.0143743 -0.0326835 -0.00676043 0.0147404 
-0.0364872 -0.00883619 0.0149288 -0.0358067 -0.00457772 0.0159975 -0.0364095 -0.0115276 0.0181948 
-0.0313107 -0.00931337 0.0181208 -0.0324012 -0.00468755 0.0181803 -0.0255336 -0.00987555 0.0140617 
-0.0287315 -0.00740187 0.0141731 -0.0227712 -0.00676372 0.0140595 -0.025965 -0.00399041 0.0148118 
-0.0275531 -0.0114801 0.0172428 -0.0235877 -0.0110487 0.017869 -0.0250904 -0.00737026 0.0173348 
-0.0284711 -0.00524159 0.0176857 -0.0227255 -0.00407497 0.0172155 -0.0198575 -0.0119776 0.0167579 
-0.0161503 -0.0115375 0.0153131 -0.0199554 -0.00955738 0.0134432 -0.0190707 -0.00489309 0.0132324 
-0.0159061 -0.00731714 0.0137739 -0.0128973 -0.0104831 0.0127971 -0.0197223 -0.00668527 0.0167684 
-0.0161305 -0.0046679 0.0171383 -0.0131061 -0.00850001 0.01644 -0.00859284 -0.0114457 0.0142506 
-0.00871263 -0.00765523 0.0122739 -0.0120076 -0.0057332 0.0137684 -0.0064894 -0.0084806 0.0159283 
-0.00837496 -0.00478157 0.0153697 -0.00436771 -0.00439984 0.0150343 -0.00419015 -0.0119308 0.0137527 
-0.00155192 -0.0118406 0.0167998 -0.00334303 -0.00798343 0.0134756 0.00248444 -0.00754285 0.0123082 
0.00185992 -0.00395784 0.0141293 0.00166689 -0.0108127 0.0145318 0.000239291 -0.0072861 0.0157763 
-0.00293032 -0.00698484 0.0182239 0.00322644 -0.00480133 0.018044 0.00861163 -0.0118437 0.0119463 
0.00686484 -0.00822527 0.0119249 0.0109026 -0.00890829 0.0135247 0.00959775 -0.00476958 0.0126222 
0.00807623 -0.00929432 0.0167405 0.00566872 -0.00589894 0.015058 0.00974351 -0.00565086 0.0165414 
0.011665 -0.0103969 0.0181752 0.00428422 -0.00916447 0.0181439 0.0148668 -0.0103882 0.0114671 
0.0200697 -0.00738231 0.0112747 0.0133995 -0.00554035 0.0112037 0.0170827 -0.00689568 0.0145426 
0.0147767 -0.0112265 0.0157042 0.0198328 -0.010044 0.014865 0.0202469 -0.00421098 0.0154575 
0.013454 -0.00730181 0.0162961 0.0242082 -0.0101117 0.0127311 0.0268578 -0.00705237 0.0130183 
0.0230144 -0.00499519 0.0126374 0.0254215 -0.00390705 0.0157505 0.0368194 -0.010808 0.0126122 
0.0330506 -0.0109526 0.0143637 0.029258 -0.0105715 0.0126141 0.0317329 -0.00707857 0.0134035 
[...]
POINT_DATA 6000
FIELD FieldData 7
id 1 6000 int
3152 5610 709 1558 5944 5561 2864 3795 2416 
5730 6016 4238 5203 3873 3325 5227 5662 3326 
2522 932 1128 2569 5827 1540 5085 3974 4534 
4986 3737 4984 5514 5949 4326 2386 5672 3338 
3559 4586 4116 5350 6035 3633 5152 5528 6013 
5792 2313 5668 1999 5415 1692 1640 3506 2554 
1954 2981 5739 313 5573 5932 3039 4744 2878 
1152 4456 3421 5943 1659 5093 2014 5156 4206 
4000 3335 5481 5565 302 5347 4896 3390 4829 
2638 2508 4782 1874 5385 5607 5592 3820 5710 
3069 5410 3864 4183 4422 1363 5340 5016 5003 
1484 3236 2226 2970 3703 4031 3144 5452 4347 
1030 2413 2300 4371 2586 3702 143 4649 679 
5052 5318 5229 3984 2536 2984 5545 4703 5005 
3387 374 2623 5701 2609 34 3714 5848 2066 
4297 4123 4737 6010 1154 5605 5241 1771 3553 
5325 2886 2581 2037 2268 4090 4743 1601 4790 
1007 1256 4836 5526 4399 3706 3515 5618 5391 
3319 4296 2159 5166 4567 4502 4581 1690 4380 
3507 1937 4249 1449 1546 4074 1371 5106 5402 
4128 3416 3961 5303 4088 4362 3923 18 4570 
1088 2020 5529 5304 3731 4439 3120 1939 4465 
5665 5281 2358 1891 2222 3324 1439 4042 1650 
3102 5423 4136 1777 403 5956 1774 4451 4127 
5813 6064 3350 1323 5222 2316 3081 5364 4412 
5024 1087 4357 5740 2453 1293 4240 5891 3948 
1098 5486 2430 5373 4309 1240 292 2990 1445 
2338 1741 63 638 3098 1715 3968 48 5298 
502 402 935 4202 988 5265 529 3453 5557 
4405 5846 660 2339 5728 720 4284 5500 2626 
396 1630 1354 1732 5586 3075 4821 5962 5322 
426 3373 2310 257 1600 4935 3040 5680 1347 
3957 2843 2612 5499 3375 4359 1397 3753 5478 
3013 4674 2998 470 3479 2905 1721 3260 3954 
4363 4013 3709 4610 3359 2922 4212 3777 2732 
2129 2013 2136 2666 2227 2229 3022 2505 500 
2059 2423 2113 107 2863 421 3305 2094 1311 
234 1790 1060 1505 468 1307 30 88 857 
2810 2867 840 1108 165 171 1011 274 758 
1584 640 214 247 2329 432 582 1129 440 
383 209 1372 565 1767 408 1046 664 341 
1576 1236 609 1228 1885 576 639 3220 2754 
208 2517 78 4382 2331 2768 4139 3459 3758 
2114 2251 2337 3726 2392 4867 44 3161 2379 
5890 1687 2257 1612 3185 3494 2968 3388 181 
1419 2326 1859 1606 2748 2263 2452 1269 2022 
1039 1770 2636 2478 1959 1628 427 906 2104 
45 1180 441 2366 1177 1534 952 162 1440 
153 1246 2778 1645 508 1709 1850 133 1272 
164 420 851 1362 560 1637 61 1749 1168 
3595 211 2555 381 2915 2704 459 2844 2629 
997 2659 2961 2857 1698 1305 496 3010 1949 
3681 2861 3677 4789 4837 2650 5393 5182 72 
2560 4883 5524 4722 3101 2780 2875 4159 1757 
3110 2974 2264 2447 1768 893 3201 3093 3353 
3434 916 2385 5549 4293 647 1426 1525 2071 
3262 2944 2328 1424 1944 887 3399 1570 3406 
1421 1420 1267 236 2987 3068 2583 680 4184 
1300 1490 590 1304 1164 1378 132 1215 795 
1887 853 572 456 1514 2161 200 1034 399 
2400 258 5815 2709 2403 2077 1325 5050 4032 
3900 1961 5583 4668 4909 2290 3793 4810 3988 
3432 4188 2731 3585 175 3530 4436 4306 3599 
2687 4152 4555 3393 549 2302 1648 4352 3433 
3087 2902 2900 483 55 3249 5780 1037 3600 
2383 2311 5855 900 4453 5575 2120 993 3431 
2117 1932 418 194 687 1816 895 1320 863 
3963 1069 3665 2064 1136 2256 2283 1211 2289 
387 5495 2515 6006 4592 5982 3166 3226 1627 
2514 60 2111 2699 4258 3369 3552 4138 3661 
5786 4603 4670 4270 3594 146 3162 1545 5264 
6046 3897 1614 2266 5725 1713 3089 3005 2642 
92 5973 3444 2814 4965 1528 1805 2249 1673 
2462 3514 2103 3023 2895 4158 2352 2593 4264 
5742 4307 540 1520 367 2799 2962 5419 2151 
910 546 1047 2869 5367 5896 3545 4791 4667 
417 229 4933 1569 3322 5984 4526 3450 4432 
5550 5119 5104 4635 3427 3898 5139 4334 3333 
2676 3383 4748 2797 3189 2655 1024 242 3288 
3850 4164 3367 5342 5819 412 3411 5868 3805 
3107 4034 357 3517 5032 3566 4360 3327 4682 
5639 4411 5081 5904 4315 3568 4775 5416 3616 
3922 5260 5768 4134 6014 1680 5051 5685 2714 
2645 1396 4687 4826 4578 3736 3986 3575 5556 
2890 4869 1110 3691 5527 5482 3148 5063 2160 
642 1773 3332 2307 2786 4595 5801 5145 4825 
5207 5246 5681 966 119 3547 3905 5420 4086 
5363 1333 6059 3313 3212 6027 3586 5724 4209 
4752 2427 5663 3032 4928 4312 2625 5186 6029 
4969 4919 3306 3054 5328 4749 5167 6023 1020 
4809 1417 4723 5841 3112 4322 3785 5013 2702 
5215 1183 1042 3194 3320 2287 2742 4437 4662 
5673 5867 3880 3217 2792 2715 2168 5777 878 
4862 3560 730 3799 4624 1410 3237 3485 5684 
2513 3839 3521 4388 2122 4853 4026 5346 5217 
525 3382 3455 471 5875 4006 3 3216 5856 
6037 1962 5929 5097 4321 3710 5957 4106 5794 
3833 3587 2008 6047 3531 4762 2784 5584 4151 
4509 745 2078 5255 4446 5244 2939 1565 4340 
5461 2433 3783 2195 2137 5744 3803 195 4803 
1977 4977 4104 5741 2874 2178 3965 4858 5395 
3970 3018 4966 4716 2285 226 744 4561 3881 
5686 1940 3255 1656 159 2763 5365 2199 4010 
2206 1691 1376 537 850 3208 1846 135 2418 
1903 2677 4600 4777 3534 574 3471 49 4768 
3827 3938 4718 3558 710 38 531 5194 6045 
4087 6043 4060 3576 774 139 2920 4939 3006 
747 5977 5059 4353 5852 361 2261 5014 2148 
1123 4954 1837 4689 5718 3692 4195 3378 5189 
3801 2422 3991 5915 5055 5696 4308 5442 3345 
4805 4565 5448 1392 2434 2988 5659 5708 4880 
3994 1062 1199 5390 5563 3997 5953 788 131 
5138 6065 4424 1737 5192 3461 5908 3717 3874 
5209 6048 3425 113 504 5555 3942 4627 5588 
4695 5951 2649 5770 4988 2943 1078 4569 117 
976 2327 358 2432 252 278 1523 2477 1261 
1074 1277 268 1093 62 499 552 842 32 
1336 870 3008 71 2850 316 3269 1706 244 
810 985 3549 4553 5451 364 5224 435 3791 
528 6053 5695 4602 654 1013 178 3933 81 
1189 738 2135 1914 4888 5181 3913 628 350 
5348 1930 3311 2746 5936 938 2524 629 3414 
1955 1539 3781 3872 4376 3932 241 4461 4147 
2603 4320 5489 5864 5278 1437 4828 855 2840 
2688 4350 2982 3478 2284 2431 1871 4021 3362 
3632 1636 3776 1820 5650 4904 2822 2553 5061 
796 2860 5634 5294 5886 2496 2490 2363 3588 
2118 2883 3184 1934 1722 869 2512 1401 2292 
466 608 474 1782 1456 1872 3066 1945 397 
622 517 330 678 740 66 789 2537 1 
2775 4080 550 1458 822 2109 251 329 170 
145 522 694 377 858 1171 301 98 118 
392 217 1472 1512 616 173 1446 477 659 
275 1607 1352 1331 1631 1730 1045 575 1221 
338 1828 1632 886 1905 5700 4478 1063 26 
1886 2156 2896 881 904 3045 2420 3136 2130 
3323 2107 1751 3103 2202 1242 1563 3071 986 
3297 4879 3712 2958 2362 485 4924 4849 1845 
2934 3548 5147 4486 2369 2510 3641 484 3579 
3366 3153 2744 3544 691 3210 1072 2663 3340 
2356 3020 2105 2099 1953 885 3410 984 762 
353 2781 2015 75 2577 2459 2807 3177 1462 
1218 1223 2591 136 1071 896 368 444 1016 
311 859 100 812 306 2167 849 266 538 
864 390 513 2879 490 983 890 129 4191 
245 1182 1792 3245 797 2654 551 1969 2600 
1010 2897 1374 267 1526 4452 5135 2633 1855 
2842 2999 4872 658 4685 3649 3570 3317 2739 
4448 3798 4298 4893 3469 4745 3238 5070 4616 
1901 5040 3481 4078 4276 3235 4628 994 3626 
3837 2965 3910 4341 4608 3511 3246 3546 3165 
3501 6002 3915 4492 4613 4655 1052 4351 3540 
1803 2821 3037 3398 1531 2095 1667 3815 2691 
1126 4126 5066 518 4798 2545 1831 1642 2686 
3304 2398 1923 67 1913 524 663 3662 2501 
1798 1864 927 385 1195 766 2325 4245 940 
620 3551 298 2182 4345 2081 5084 3396 2523 
127 40 874 2705 5664 2955 5090 4857 3518 
3408 1907 4391 160 4392 2543 3993 2393 5541 
4035 4114 3855 4678 4517 5560 5007 3391 4403 
5300 4679 4170 4450 3017 2579 3328 4780 5641 
4630 4037 2097 2242 3279 583 1611 5637 1018 
3292 5091 2076 3775 1877 3934 4891 2057 3334 
2760 4118 4261 5496 2608 3357 1049 5937 4485 
4169 656 2727 5185 3041 5758 950 4190 5082 
5485 2519 2345 2683 2852 3868 2729 1791 2341 
2299 3843 2751 254 31 1679 3463 3038 601 
1028 2589 299 3405 2825 3028 4690 15 961 
4513 1818 4926 6025 1621 828 3747 3082 4591 
4573 3615 611 3409 3368 4482 3364 1306 4876 
3466 4948 636 5781 2950 2940 5200 4680 4599 
5863 4781 4714 5422 4632 2044 3679 4146 5201 
2835 3234 5847 386 3788 4273 1856 5357 2295 
6069 4213 5351 4529 5193 1857 5620 5881 5543 
4701 4839 6052 2789 3460 5148 4056 3809 903 
6063 478 1225 4629 3290 5987 4082 1689 1399 
2258 2454 1851 819 5743 13 5287 1807 2116 
3919 3998 4176 4019 5184 5430 1535 5417 2884 
3888 5272 4470 4381 3186 4865 1308 3908 413 
5989 5463 5009 3967 2737 1017 2549 5934 5447 
4796 2979 4354 4277 4317 5428 5249 2276 4077 
5234 5248 2880 4596 5986 5392 5113 5473 5079 
6000 3512 3719 4108 5331 4813 4489 2723 3656 
2193 4641 2907 2708 5897 4983 5615 3762 4899 
4639 2794 5835 5491 5921 4474 1662 637 5296 
1146 1906 3889 2726 3950 1121 4480 4373 5732 
5358 5202 5302 5822 5828 4501 5073 4103 6017 
5359 5759 5458 4471 5045 5213 2520 3849 4022 
757 5972 3224 3713 3814 1521 2866 3628 2158 
5436 4647 4756 967 5874 3844 1882 4223 5036 
443 1699 2399 2360 1006 1972 5490 5599 4778 
3080 5596 3211 5497 5755 5723 3882 3825 4447 
5297 4970 3223 5760 5706 4153 3285 3725 4761 
6040 6007 4683 5515 3869 3847 5421 3180 4464 
5026 5424 3415 2595 4361 4406 2344 6020 5552 
4875 5653 4295 5316 5626 6004 4766 3603 4366 
5767 5377 5366 5484 2472 5307 2208 5072 68 
2590 5356 1586 5993 2566 1507 2390 2381 2183 
1279 1815 2102 2643 5667 5462 5118 5579 1759 
5306 3751 3786 4929 4130 1950 3301 3784 4073 
5124 3449 542 20 3668 4590 2216 4466 3730 
3329 2451 473 5808 4365 5691 4484 3892 3949 
4709 3347 4740 4140 3699 6032 4719 5483 5811 
4304 4427 3653 5282 4544 4122 4746 3281 3539 
6008 3021 5127 4943 4700 5243 4973 2853 5382 
5903 6001 5902 3412 5849 5851 3250 5839 3072 
4462 137 1701 2131 2969 4099 4271 3009 3955 
4563 5873 2079 1489 3592 1120 5692 1411 4059 
4499 5293 2128 4454 872 4192 5 3867 1681 
813 5870 4124 767 1031 2019 429 1990 1922 
1625 3458 5236 3902 270 2101 969 902 4272 
3363 3132 3733 1479 4982 281 632 3418 5645 
4942 2698 1787 2809 4174 5536 4267 4434 4892 
5504 3723 5372 3834 3769 5406 652 4131 3690 
5290 3230 5134 3741 3738 2001 5105 3804 4721 
3447 2301 4433 3030 5913 5959 5719 4179 4697 
4747 5564 5223 5440 5910 5170 4358 3361 5705 
5775 3385 1847 3846 4726 4818 5782 3672 1506 
3417 1646 2728 4585 2443 2921 5979 3771 5762 
3606 5336 571 5702 2278 2043 1474 3832 4877 
5327 2042 4189 5912 3543 2813 1588 452 1345 
2149 336 2491 1574 1053 2237 960 1827 1890 
1294 2036 649 1776 948 1810 2000 1947 1193 
2346 2192 294 1668 2444 684 570 2894 1619 
1181 918 493 2457 5043 4605 1883 3492 2460 
606 791 1652 339 3137 1145 1065 917 706 
216 248 3059 126 2542 5711 5238 4511 4910 
4956 5299 876 5716 3454 4095 1707 1184 3172 
4220 5531 1015 5188 3443 1982 3019 2355 1965 
4389 2711 4339 3381 3611 2912 2245 3219 4165 
2770 3084 39 5707 1503 4302 2466 2767 2024 
2184 1935 723 2376 2450 2498 6060 5068 1825 
4636 1764 4546 4226 3435 4228 1493 2613 1736 
2026 1755 5398 2954 2173 2410 1115 3229 4046 
4002 4254 2387 3128 2738 1710 2881 930 3251 
657 1021 1163 2428 2018 707 1254 2340 3473 
1197 979 519 773 1044 498 297 1141 646 
128 235 123 843 507 434 221 1022 1436 
265 69 713 1191 987 1066 188 2 748 
673 455 3298 1684 1542 4741 520 282 401 
91 1339 951 1232 1257 964 558 352 238 
2585 682 726 641 1027 2793 1633 1853 1466 
1829 1259 3342 2236 3682 1568 2959 2217 3192 
1670 2488 3057 2054 1686 1655 2503 2480 1249 
2051 1909 3035 3012 1697 3026 5995 718 2640 
77 321 272 317 2758 4759 1760 2231 4784 
5445 579 1084 5918 108 3939 3446 4940 3685 
3542 4155 3659 2870 4559 3745 2620 2606 1694 
4528 3065 2977 4691 2062 17 1450 963 2924 
800 1843 1288 2389 1139 701 166 1095 865 
3094 1400 1243 1491 1562 721 43 1369 380 
366 1070 328 1527 348 635 867 184 177 
388 1471 1000 2631 1817 1103 1118 279 532 
122 1711 3851 1738 149 2635 2911 1005 4227 
4280 530 76 1043 1799 3321 1958 5566 742 
4711 5991 4020 4205 3296 4239 5110 5006 3064 
5802 2568 5027 2365 4727 5968 4597 4398 4342 
4081 1312 4055 2964 3857 2719 4512 4049 2150 
3583 4946 4507 4999 4418 2865 3151 1723 2052 
3806 4755 3240 5386 4717 2993 3380 1603 3209 
3173 2032 1012 4549 2110 3895 4793 3885 2610 
2190 1653 516 4584 3400 1556 2073 3442 559 
3581 3675 4098 676 4135 2995 2262 2535 27 
3779 305 1188 1991 1724 2463 811 431 826 
2511 23 3780 4057 3491 862 373 1564 4606 
433 3859 3126 1750 674 2665 3822 5226 4901 
5218 4842 3243 4269 2324 3503 446 343 5678 
2753 1275 5965 4458 4614 4931 5577 4370 5487 
5488 3824 5788 6050 4330 5315 4851 4004 4289 
4338 4375 3667 4519 4658 1247 3811 5963 3680 
5738 5598 923 4325 2816 4217 4566 817 3678 
4844 3721 3014 5383 5945 1848 4508 5173 3502 
5212 5569 5930 5745 5321 5969 2889 2868 4198 
2976 4915 4583 5558 3164 3584 4503 2235 4664 
2197 6021 86 4069 4115 3036 5674 2499 2475 
3848 4199 4173 2788 4335 3052 3590 5254 1970 
2588 1317 4348 5404 189 3316 5616 5512 4990 
5176 1762 5726 970 3420 4197 4675 5658 4843 
1390 5083 2722 5251 5465 5162 5503 4815 5075 
4702 5878 4531 4885 5652 5022 4807 4692 6044 
5117 5151 4817 3995 4998 3135 3875 5021 1552 
1795 4473 3000 2211 2016 4739 5657 5130 5276 
3612 2541 4728 2084 4676 4799 4327 5793 1473 
5538 4937 5877 3918 4838 2047 3060 5621 1763 
5919 5916 4203 4861 5698 3582 5133 5123 5585 
5042 4651 5158 5180 4141 4300 288 5731 4442 
5922 5625 2367 4012 4850 4180 5834 5604 5140 
4163 5285 3096 4881 3980 4671 5150 3623 5787 
5174 5542 4699 3990 4477 5267 2618 5074 3536 
5831 4886 1609 4677 3694 4548 4160 5394 5171 
3884 4349 3562 5843 5252 3643 5444 4414 5961 
2674 5757 4806 3865 5994 4617 3925 2402 3651 
3266 5694 4959 3759 4175 5095 5374 5126 4487 
4978 4995 5640 5999 5773 5860 5832 4705 4221 
3133 4256 4908 5460 5312 4402 3291 5931 5821 
5804 3464 5279 4582 5178 2782 3242 3104 1743 
3947 3138 2601 2412 1230 621 2823 457 1660 
753 3523 1351 4030 3351 2349 2012 1979 2317 
3840 2791 4050 249 1594 1761 414 4397 3331 
1111 2308 3483 3280 2035 4645 2933 4532 880 
2085 335 5157 5534 487 4017 3124 5368 4303 
3773 3308 5314 3981 3671 5409 3604 3569 5927 
2468 4562 5048 5539 5823 4541 4500 4918 1865 
1557 4255 5898 3819 4409 2693 5914 1001 5699 
2470 5432 2929 5399 5237 778 3878 1435 5511 
2162 4410 5219 741 4007 3336 4827 1104 2918 
4047 3079 4319 929 5689 5883 2417 5837 3684 
1963 5854 1639 2669 237 2414 2185 1416 5857 
462 5258 174 4611 754 2701 3856 3941 114 
4400 4554 2919 3935 2834 2380 3475 5333 3346 
2787 2749 5859 5142 5938 3930 3354 1725 3883 
3129 6058 3134 944 1179 4510 2270 2639 5441 
5712 2594 3130 5177 4551 5115 4364 5736 4811 
1826 3386 5523 2485 5256 5449 4222 4831 5146 
3424 3141 3561 5389 802 1775 3983 3927 4846 
1808 2648 3578 973 1664 2072 2945 3920 2872 
4646 79 2408 4547 304 5494 6009 4733 4729 
4524 6011 1919 4516 5845 2011 2479 1926 3953 
101 2134 978 998 5450 2846 2401 2353 2891 
5292 3509 4331 3283 2293 2652 2187 4133 1998 
2811 2049 3451 1695 4704 3975 3944 5154 4232 
2992 3670 3861 2617 5853 5795 1705 5763 4025 
835 4229 3300 4033 2112 3655 5521 4111 2827 
2772 1143 4734 3227 4469 5833 5163 4638 3841 
3315 3397 2740 2106 3122 5964 3403 3295 4187 
5266 4156 5909 3982 3456 4604 4257 4493 5205 
5220 4800 3828 3426 3270 4003 4659 1992 4367 
2587 5206 3159 5295 2632 1346 5015 2198 3596 
4426 199 5872 6003 1946 4372 3203 5080 4684 
1217 1296 1733 1647 1492 315 1924 1160 2684 
2556 2336 1360 1204 1245 2277 543 2233 711 
2538 481 2721 2644 5876 700 3724 172 2435 
1393 2038 965 1869 1911 1806 2347 2378 2681 
1735 589 4143 2856 1004 2213 4556 204 35 
1318 2303 2916 6012 371 512 1765 5426 5261 
73 708 4712 852 732 515 5935 5948 3160 
5498 2147 324 3826 3807 1867 2108 2531 4101 
2800 2785 4917 2506 58 102 5128 4243 777 
2080 1035 3774 1813 6066 4014 2384 820 3111 
4609 1610 5250 1361 594 5990 5332 2621 5838 
3720 3445 1784 971 42 3607 2877 1482 2700 
2297 2469 1746 4005 2611 3085 4374 1716 2716 
1383 2127 3231 2228 2578 2181 1366 7 56 
957 752 1172 883 2050 3100 1090 1055 626 
926 479 1135 1340 825 14 755 897 804 
614 365 942 410 848 568 1861 781 223 
308 725 210 1214 548 1038 1092 2580 602 
2550 2602 737 400 1910 1284 612 1802 734 
569 2280 3529 3413 1056 4094 309 19 1550 
2656 1100 3852 2406 1315 2910 2063 1754 24 
4792 1900 4819 1415 884 1983 4023 5008 5101 
334 3482 3610 1938 4305 4259 1377 4208 1461 
158 2836 4125 2145 3048 2481 4091 4053 3617 
2429 2790 2493 2335 3309 1448 1551 2696 3838 
1703 3635 3257 2761 1598 1641 567 482 2023 
1605 2391 347 1258 3119 1876 2928 1590 1334 
2273 1385 310 250 715 2265 1002 1358 307 
354 96 1560 196 937 1216 130 333 231 
545 667 2776 1398 603 1747 47 634 2960 
1192 666 3436 1693 2220 1536 580 1487 2574 
4459 5537 2436 4932 4816 4204 2692 2334 2132 
5600 4252 5121 4913 4944 4923 2935 4329 5651 
5753 2343 2926 4767 941 6024 4515 3282 3247 
1943 4751 93 1176 2005 4472 1830 3890 2675 
3972 3377 1384 3470 4854 3750 3636 3193 3812 
3652 3999 1124 2006 318 3707 4120 1524 84 
763 273 1395 1422 6034 4698 2756 2798 3489 
514 4200 2144 3076 3646 4693 2306 2527 1299 
1941 319 1167 2404 4738 924 1538 4268 5911 
461 521 3356 1186 121 3810 2622 4394 5231 
2972 688 3647 4100 5454 3625 3058 1077 4620 
362 5752 4543 1429 5633 2975 5259 3996 4993 
5155 5572 5764 2530 5582 5330 5362 2615 4622 
5830 5242 5952 6049 1753 4681 1079 3541 5612 
4497 6018 2563 4225 5630 5769 3962 2829 5756 
794 3448 4589 1794 95 2552 4754 1147 1202 
3627 1617 1661 2314 4368 5283 3276 544 5576 
5901 2641 2570 2985 2467 5721 5195 5253 4379 
4673 3004 4483 2986 5818 3979 5094 4460 5812 
5771 3749 5798 3505 2777 5631 4953 5884 3740 
1956 5033 4445 4194 3928 5103 1918 5381 3985 
5974 5092 1190 3046 5257 4763 5817 5958 4234 
6061 4845 5323 4193 4068 4934 5703 2180 3015 
5850 3906 6038 5933 5722 5729 4536 5011 2938 
5551 4694 5403 4725 5380 2165 5112 4244 5806 
3477 2795 4015 2146 4441 3693 1554 157 3524 
5998 5204 1268 1731 1966 2832 5470 36 562 
4949 2375 631 3924 3140 243 5210 2599 5697 
2305 3958 5648 3876 2092 5137 3078 4991 2755 
2281 10 4157 4275 3711 4601 5942 4757 3352 
905 751 5571 4972 5239 4287 4479 2949 4142 
3205 5284 264 4247 4075 4522 2804 5892 5161 
1717 4431 1920 1780 5214 5023 4615 4619 4870 
3664 4868 5501 5574 5749 2348 5143 5649 4730 
4753 5221 2584 5776 3145 5879 2733 5746 4071 
4093 4823 3007 4788 5747 746 1291 4054 3528 
5401 5632 4236 4894 5590 4423 3474 4011 3952 
3063 1504 5790 5225 6051 5247 4266 5660 5661 
2507 5438 4579 2942 4736 5334 5627 4332 2223 
4207 5054 6030 4654 6036 5622 2041 5405 5464 
5825 4224 5100 943 2068 4776 5966 1068 1836 
4038 5046 4936 1059 1003 625 2186 3835 1704 
469 765 1894 449 5361 3131 3790 2170 807 
2075 3200 803 2321 5289 5116 4822 3267 5714 
5628 2489 192 2796 3899 1144 3493 494 5800 
5656 12 3987 2672 41 4440 1543 3355 1365 
648 5885 1933 5291 1657 1442 2025 2225 3754 
4575 4808 5789 5766 5623 1119 3259 300 2009 
3563 5670 2415 996 1453 5611 2504 992 3441 
2627 1811 230 65 644 2936 5352 3465 3836 
3214 946 155 945 2086 1349 4864 1683 5803 
2031 3676 3513 4063 4420 4137 4527 2323 2179 
5947 5169 3042 6019 5355 690 5208 3374 1778 
4029 3258 3794 497 5676 1547 5506 1578 3337 
4871 4889 1459 5388 1064 4048 2458 915 2370 
1149 1281 4706 448 1989 3365 1700 2030 116 
3901 4855 1380 5034 1418 3917 1995 877 2253 
2492 1931 1282 5928 786 2882 2937 4847 6042 
213 1929 4337 4663 4265 4874 3495 3047 2309 
187 3114 5053 4285 5971 980 821 4162 510 
2815 1942 4642 5905 792 3748 783 4961 2397 
4794 4580 2598 2967 1948 1785 4992 3225 5516 
3602 977 1812 5245 4214 3204 4248 228 2272 
4895 4612 1370 3001 2662 3601 2948 1580 1917 
4463 4963 5354 25 1137 743 615 683 5646 
1338 2394 1748 1676 4237 1441 838 3767 3639 
1379 1058 1148 2547 547 4985 303 3732 2495 
3914 111 3964 860 5513 4457 4518 4496 4211 
4383 1265 4292 3358 3213 3729 2354 2449 3744 
4378 5871 4540 2033 703 4219 416 5675 506 
832 1672 5682 5816 3438 5077 3550 5233 1431 
4572 1677 1801 3520 868 2971 5153 5502 4241 
2372 585 4900 5459 3195 2069 1165 6057 4927 
2712 5578 3660 2717 799 3154 4052 2529 3056 
3735 233 5824 1467 1583 2647 1870 1367 3011 
1936 2003 1498 735 1971 5049 685 179 662 
2074 4598 5384 215 3688 2232 291 161 2930 
437 2438 5412 109 909 630 492 677 296 
3666 1838 3580 577 190 4355 581 2747 1585 
1434 3147 2304 447 4253 5313 2219 3188 2163 
1443 2286 169 2855 736 3821 2139 5976 3565 
3360 2056 1739 4132 3893 2175 2658 2200 1809 
1878 2680 1849 3239 5029 696 1544 3272 4804 
3265 3139 5655 1980 4770 5078 1658 1356 2248 
1786 1616 584 1409 152 404 206 829 1342 
670 393 727 411 314 1219 337 1406 2439 
64 85 801 1271 29 379 28 286 841 
1138 818 1194 1403 1651 1832 1819 1766 83 
645 698 2703 1114 2888 981 2646 2274 4920 