# vtk DataFile Version 4.2
Generated by LIGGGHTS
ASCII
DATASET POLYDATA
POINTS 6000 float
-0.0225152 -0.0389246 0.0142212 -0.0254737 -0.0370868 0.0177929 -0.0186228 -0.040971 0.0138963 
-0.0148689 -0.0423822 0.0140435 -0.0155568 -0.0384892 0.0147652 -0.0203459 -0.0400993 0.0174095 
-0.0139024 -0.0425336 0.0179739 -0.0146849 -0.0376288 0.0186265 -0.0118196 -0.0397209 0.0140309 
-0.0106252 -0.0437053 0.014629 -0.00780943 -0.0404563 0.0140364 -0.00482495 -0.0371083 0.0139901 
-0.00647376 -0.0444333 0.0137481 -0.00993416 -0.0408893 0.0174004 -0.00704688 -0.037855 0.017386 
-0.00512367 -0.0412954 0.0180764 -0.00777207 -0.044321 0.0175353 -0.0038123 -0.0410852 0.0142957 
-0.000129726 -0.0394321 0.0138842 0.00158764 -0.0449373 0.0146092 0.00368396 -0.0413415 0.0137571 
-0.00248624 -0.044894 0.0144537 0.00390107 -0.0371079 0.0139148 0.00140171 -0.0413291 0.0170751 
-0.00247512 -0.0383881 0.0169767 0.000224573 -0.0449508 0.0183946 0.00261997 -0.0372104 0.0177962 
0.00749084 -0.0400426 0.0140799 0.00599159 -0.044457 0.0151035 0.0100654 -0.0436532 0.0156478 
0.0114842 -0.040033 0.0138737 0.00536936 -0.0411909 0.0175923 0.0092978 -0.0404294 0.0178896 
0.0076872 -0.0442846 0.0189433 0.0155058 -0.0405146 0.0136869 0.0195774 -0.0405107 0.0138042 
0.0147005 -0.0385797 0.0171869 0.0175733 -0.0414154 0.0172117 0.013782 -0.0426623 0.0167361 
0.0232288 -0.0382575 0.0140549 0.0213902 -0.0395624 0.0173597 -0.0317573 -0.0318614 0.014433 
-0.0333714 -0.0300735 0.0176349 -0.0295409 -0.0289163 0.0180379 -0.0306512 -0.0329354 0.0186826 
-0.0279564 -0.0352347 0.0151138 -0.02747 -0.0314209 0.0140101 -0.023977 -0.0351787 0.0145528 
-0.0233553 -0.031259 0.0140285 -0.0254976 -0.0293638 0.0168272 -0.0266728 -0.0331192 0.0182984 
-0.0215397 -0.0361955 0.0175646 -0.02228 -0.0322604 0.0177565 -0.0197889 -0.0292535 0.0139947 
-0.0198336 -0.0333577 0.0139463 -0.0127292 -0.0357473 0.013904 -0.0176933 -0.0356491 0.0166038 
-0.0149645 -0.0328907 0.015623 -0.018326 -0.0312806 0.0171263 -0.0146835 -0.029243 0.017247 
-0.0124049 -0.02919 0.0139313 -0.0109672 -0.0370141 0.0172761 -0.0087833 -0.0364657 0.0139661 
-0.00636412 -0.0333879 0.0150397 -0.0101683 -0.0326444 0.0140054 -0.00851577 -0.0289761 0.0155319 
-0.00840505 -0.034145 0.0183958 -0.0116629 -0.0318282 0.0177105 0.00067467 -0.032027 0.0148458 
-0.00114035 -0.0355248 0.0139632 -0.00313554 -0.0313218 0.0138402 -0.00268672 -0.0337921 0.017227 
-0.000844716 -0.0292583 0.0179133 0.0010287 -0.0333259 0.018634 0.00688855 -0.0369853 0.016663 
0.00957806 -0.0360551 0.0137435 0.00729321 -0.0326637 0.0138892 0.00419968 -0.0301346 0.0146344 
0.00953165 -0.0294186 0.0148358 0.0110924 -0.0368493 0.017428 0.00430115 -0.0338137 0.016353 
0.0104802 -0.0325949 0.0170888 0.00686781 -0.0308855 0.0175239 0.0135847 -0.0364492 0.0138577 
0.0126334 -0.0318166 0.0137873 0.0176827 -0.0367805 0.0139592 0.0167621 -0.0326855 0.0138176 
0.0203494 -0.0310968 0.014738 0.0143267 -0.033849 0.0168099 0.0170212 -0.0302606 0.0171141 
0.0183324 -0.0345959 0.0172708 0.0210169 -0.031919 0.0186393 0.0227335 -0.0342466 0.013846 
0.0273153 -0.0331008 0.0135241 0.0243943 -0.0300093 0.0141249 0.0259526 -0.0365446 0.0165631 
0.022203 -0.035665 0.0177454 0.0253777 -0.0321713 0.0174493 0.0288274 -0.0300965 0.017264 
0.0312551 -0.0323615 0.0139 0.0340716 -0.0293021 0.0136922 0.0292422 -0.0340951 0.017054 
0.0326945 -0.0308097 0.0181767 -0.0387176 -0.021913 0.0143192 -0.0384185 -0.0233792 0.0181103 
-0.0344925 -0.0288083 0.0140017 -0.0366214 -0.0254281 0.014416 -0.0297657 -0.0281156 0.014124 
-0.0325985 -0.0254064 0.0149398 -0.0305441 -0.0220247 0.0142389 -0.034742 -0.0215419 0.0140363 
-0.036185 -0.026721 0.0181799 -0.029881 -0.0244714 0.0178139 -0.0344408 -0.0231528 0.017685 
-0.0234837 -0.0272456 0.0139206 -0.0231534 -0.0232506 0.0142412 -0.0268294 -0.0257855 0.0155754 
-0.0267015 -0.0217732 0.0154328 -0.0216936 -0.0282265 0.0173773 -0.0237268 -0.0248231 0.0181049 
-0.0194296 -0.0252122 0.0139747 -0.0158618 -0.0270815 0.0140345 -0.0148089 -0.0232254 0.013879 
-0.0179375 -0.0208883 0.0147556 -0.0201866 -0.0230907 0.0172895 -0.0139317 -0.0247922 0.0174707 
-0.0179049 -0.0269933 0.0180069 -0.0152098 -0.0208477 0.0178081 -0.00683315 -0.0256147 0.0140259 
-0.0106751 -0.0255931 0.0151812 -0.00842228 -0.0218091 0.0137189 -0.0115915 -0.021733 0.0162988 
-0.00438991 -0.0219126 0.0140195 -0.00761916 -0.0219908 0.0177155 -0.00741389 -0.0260113 0.018274 
-0.0112929 -0.0276308 0.0186732 -0.000452296 -0.0283071 0.0138446 0.00193638 -0.0232885 0.0141433 
-0.00395197 -0.0278152 0.0157326 0.00211201 -0.0265932 0.0164225 -0.00173733 -0.0244639 0.0156089 
-0.00373253 -0.0218046 0.0187078 0.00406088 -0.0242785 0.019081 0.00523518 -0.02633 0.0139151 
0.00936938 -0.0255138 0.0138832 0.0104385 -0.0219641 0.0154246 0.00684406 -0.0234899 0.0162981 
0.0075217 -0.0268693 0.0183427 0.0105998 -0.0243588 0.0190773 0.00856102 -0.0208828 0.0188066 
0.0147384 -0.0283699 0.0138277 0.0125451 -0.0281973 0.0171943 0.0204794 -0.021666 0.0136312 
0.0187233 -0.0272815 0.0140692 0.0132703 -0.0247889 0.0152198 0.0170519 -0.0234547 0.0149061 
0.0175827 -0.0262344 0.017774 0.0149106 -0.0228701 0.0183345 0.02256 -0.0259629 0.0139799 
0.0249115 -0.0226877 0.0138524 0.0265655 -0.0265182 0.0141698 0.0213679 -0.0280664 0.0171836 
0.0248658 -0.0217085 0.0177391 0.0277397 -0.0245949 0.0178 0.0206406 -0.0237048 0.01717 
0.0253655 -0.0278401 0.0178256 0.0289435 -0.0231453 0.0142272 0.0301037 -0.0284718 0.0137933 
0.0324978 -0.0250187 0.0141246 0.0366424 -0.026076 0.0136865 0.0345595 -0.021499 0.0139045 
0.0316976 -0.0255353 0.0180251 0.0353708 -0.0276918 0.0171187 0.031689 -0.0215565 0.0168438 
0.0387243 -0.0226051 0.0138454 0.0376959 -0.0244545 0.0175175 -0.0409687 -0.0186266 0.013946 
-0.0384062 -0.014515 0.0146946 -0.0423228 -0.0151907 0.0154838 -0.0403441 -0.0198926 0.017714 
-0.0394014 -0.0133857 0.0184054 -0.0294028 -0.0205022 0.0181231 -0.0369926 -0.0182295 0.0141201 
-0.0331094 -0.0180233 0.0150633 -0.0310607 -0.0145894 0.0143875 -0.0347205 -0.0129928 0.0141373 
-0.0291738 -0.0182661 0.0143866 -0.0355932 -0.0154019 0.0177476 -0.0358434 -0.0194405 0.0182513 
-0.0309509 -0.0128413 0.0185623 -0.0322532 -0.0178268 0.0189712 -0.0251847 -0.0183369 0.0139995 
-0.0228477 -0.0150752 0.0141466 -0.027043 -0.0147967 0.0141391 -0.0219523 -0.0197945 0.0158646 
-0.0286245 -0.0159848 0.017633 -0.0257259 -0.0188484 0.018301 -0.0247663 -0.0148185 0.0176479 
-0.0219434 -0.0173227 0.0190259 -0.0195141 -0.0172929 0.0138643 -0.0137309 -0.0192221 0.0136744 
-0.0135079 -0.0151647 0.0140418 -0.017331 -0.0137842 0.0146079 -0.016224 -0.0172929 0.0161759 
-0.0164364 -0.0139801 0.018559 -0.0205099 -0.0136209 0.0185282 -0.0124997 -0.0152445 0.0179292 
-0.00626486 -0.0183271 0.0150455 -0.0101874 -0.0174187 0.0144119 -0.00753354 -0.0143287 0.013726 
-0.0101839 -0.0185359 0.0182571 -0.00745429 -0.0148533 0.0179846 -0.000997104 -0.0205233 0.0156676 
0.00245492 -0.01929 0.0140034 -0.00294678 -0.0149112 0.0139559 0.000531226 -0.0127145 0.0141194 
0.000449018 -0.0163472 0.0158264 0.00367922 -0.0151749 0.0137519 -0.00319866 -0.01709 0.0173108 
-0.00223465 -0.0124108 0.0170271 0.00339343 -0.0133403 0.0178743 0.00634596 -0.0202446 0.0140048 
0.00469407 -0.0204478 0.017775 0.00979305 -0.0182184 0.0141052 0.00763002 -0.014864 0.0144025 
0.0112007 -0.0130624 0.0143372 0.0103739 -0.0173891 0.0180344 0.00662546 -0.0159925 0.0181077 
0.0189204 -0.0200322 0.0170446 0.0163659 -0.0196739 0.013701 0.0134144 -0.019427 0.0164207 
0.0197349 -0.0172977 0.0140188 0.013392 -0.0163698 0.0138277 0.015994 -0.0133008 0.0139273 
0.0199931 -0.0132365 0.0140831 0.0163749 -0.0167372 0.0164723 0.0131908 -0.0145497 0.017575 
0.0200515 -0.0155033 0.0176872 0.0283916 -0.0199728 0.0186398 0.0273199 -0.0193398 0.0138996 
0.0233524 -0.0191045 0.0147469 0.023507 -0.0152093 0.0137973 0.0275115 -0.0152969 0.0139399 
0.0257753 -0.0170073 0.017291 0.0281261 -0.0131617 0.0173894 0.0223747 -0.0186905 0.0186066 
0.0369715 -0.0205213 0.0169777 0.031649 -0.0147085 0.0138532 0.0313906 -0.0188307 0.0139155 
0.0356035 -0.014074 0.0141096 0.036834 -0.0179597 0.0137865 0.034095 -0.0171498 0.0166455 
0.0300449 -0.016661 0.0170366 0.0321427 -0.0132162 0.0175488 0.0407597 -0.0189659 0.0138268 
0.0431006 -0.0128813 0.0136927 0.0420652 -0.0158538 0.0162167 0.0394046 -0.0130206 0.0152469 
0.0380096 -0.0159867 0.0175519 0.0406445 -0.0192691 0.0179744 -0.0432581 -0.0123388 0.0181482 
-0.0434539 -0.0115314 0.0140788 -0.0417887 -0.00788292 0.014039 -0.0387122 -0.0104432 0.014114 
-0.038039 -0.00646603 0.0139816 -0.0446022 -0.00601013 0.0161871 -0.0403371 -0.00952408 0.0178146 
-0.0400239 -0.00553951 0.0173517 -0.0348417 -0.00888103 0.0140384 -0.0314143 -0.00679177 0.0142394 
-0.0314705 -0.0106818 0.0152286 -0.0346315 -0.0044115 0.0143991 -0.0362522 -0.0109707 0.0172302 
-0.0360649 -0.00697454 0.0174624 -0.0329696 -0.00454233 0.018222 -0.0301341 -0.00736994 0.0179849 
-0.0273944 -0.0118653 0.0169839 -0.0246447 -0.0115003 0.0140876 -0.0279395 -0.00918926 0.0140528 
-0.0245112 -0.00777653 0.0155579 -0.0277899 -0.00529886 0.0150483 -0.0214395 -0.00595546 0.0173602 
-0.0235906 -0.0110093 0.0180133 -0.0251692 -0.00464256 0.0180022 -0.0263969 -0.00833608 0.0190486 
-0.0207395 -0.0117203 0.0149888 -0.0139207 -0.0118488 0.0162881 -0.0205238 -0.00786063 0.013943 
-0.0172 -0.00980097 0.01512 -0.014731 -0.00679317 0.0140642 -0.0135156 -0.00475799 0.0174301 
-0.0198805 -0.00951639 0.0183491 -0.0159207 -0.00955274 0.018922 -0.0173717 -0.00599163 0.0171182 
-0.00993487 -0.0120636 0.0165481 -0.00494986 -0.0112531 0.0143235 -0.0116438 -0.00939471 0.0140764 
-0.00776509 -0.00841122 0.0138889 -0.00608444 -0.00470597 0.0139448 -0.00986443 -0.00570998 0.0160503 
-0.00449293 -0.00768715 0.016085 -0.00804518 -0.00878799 0.0178682 -0.0120259 -0.00891513 0.0182436 
-0.00137622 -0.00915858 0.0140491 -0.00204506 -0.00447433 0.0139069 0.00223182 -0.00730781 0.0141829 
0.000935798 -0.0101902 0.0180999 -0.000497314 -0.00650709 0.0170104 0.00326074 -0.00521156 0.0174874 
[...]
POINT_DATA 6000
FIELD FieldData 7
id 1 6000 int
3455 4388 5346 5420 473 5297 5573 679 6037 
143 1152 2339 1333 4719 5304 3216 6059 1123 
2626 3212 3006 313 350 3702 3549 3313 1065 
2746 1837 2623 1354 3032 4703 4682 2020 374 
3075 2569 3984 2261 1013 4600 4365 4026 4853 
5684 4060 4249 531 4982 4128 1962 6043 5298 
4649 126 5097 4088 5500 1145 606 2008 774 
2329 3923 528 3576 3933 747 2135 738 985 
512 2542 5586 654 81 1914 257 4405 178 
1184 3311 1584 1930 18 938 209 2358 582 
1539 1891 1397 609 241 34 2148 1129 664 
2905 1228 403 1885 4569 3382 525 5217 4371 
4362 4087 4124 20 5106 4590 2418 5929 3 
49 5557 5645 5265 435 5846 988 3961 4284 
4892 3791 1630 3059 5181 706 248 6012 1318 
5224 396 694 1765 73 917 111 371 432 
3913 781 1189 629 520 437 477 1512 1632 
1372 1732 1472 682 401 408 1576 1221 1015 
1637 1886 1045 1631 886 576 3045 997 496 
208 3753 2704 2331 2560 4777 2122 1741 4073 
3208 5691 471 4074 268 720 3938 2920 4768 
139 4718 5194 402 4202 3534 281 710 1787 
4602 3416 4080 165 935 2775 2460 339 314 
247 364 2810 35 215 2740 614 3298 223 
732 858 522 852 2580 274 515 440 214 
308 1092 909 400 1259 1802 383 964 91 
1046 1027 210 1446 2897 341 338 245 2555 
2654 2999 1829 1687 797 2857 2659 4032 2961 
267 4191 44 2290 181 4867 3793 4810 2586 
117 537 3098 292 1449 1691 2206 1371 870 
3968 63 502 62 552 244 1668 1619 3453 
38 2537 626 3008 1883 1652 2850 251 2867 
660 329 365 204 1406 123 235 118 843 
640 758 1542 1861 411 848 1440 2 987 
455 725 1232 29 392 616 282 76 238 
1038 558 1257 47 173 1272 864 1471 1362 
641 384 2911 580 1511 1711 1182 211 3595 
551 1693 3851 1855 3245 2629 1526 2600 4452 
2633 2635 4035 4188 2844 2709 3432 1961 4592 
5495 3017 2731 529 1060 1628 421 638 1074 
1376 234 468 1307 30 622 316 466 1 
517 1011 441 810 550 221 1141 789 1171 
507 1191 812 825 377 410 98 508 337 
1219 307 333 942 188 301 217 659 352 
354 286 523 951 390 565 275 2631 1438 
381 323 198 124 1738 61 1192 545 666 
2776 1792 2915 874 23 2182 1487 433 2530 
2705 3126 399 2543 2523 1195 446 1750 2324 
1907 60 2111 3368 2393 175 3408 160 3552 
427 1311 2636 2452 1419 2094 88 762 1790 
647 330 397 1401 678 2326 75 170 171 
906 1458 145 822 434 136 740 2109 444 
1108 590 840 1436 1684 748 380 368 673 
1066 177 1560 1369 130 605 164 890 667 
513 867 532 1465 1271 1118 1339 983 619 
560 200 142 2574 2879 1749 1010 524 1969 
530 1168 674 862 2325 362 373 2511 2475 
4348 620 2940 3409 4391 3226 1317 189 828 
3747 2737 3369 3082 2515 413 1306 1017 107 
2366 1713 1039 1269 549 2423 1525 2663 1570 
916 1421 885 1304 857 2778 236 1177 1642 
1534 45 1095 1243 1645 1709 1016 1180 366 
701 865 1287 153 306 538 1070 388 311 
1103 348 851 385 266 795 634 122 1000 
937 688 490 853 279 1490 194 1747 603 
3356 1398 1514 1005 1069 766 729 4606 4100 
3625 1325 2077 572 2403 298 3780 127 2665 
4392 1136 15 4591 3665 3316 3908 2514 2699 
2549 5272 4573 229 1424 2022 1606 3201 1944 
1426 1611 2104 1462 887 3662 1887 1667 162 
3005 900 1267 1246 656 1215 100 1218 896 
1831 559 859 1378 1724 129 2167 1913 319 
2262 1320 420 418 27 456 1817 305 1186 
663 2622 2519 40 461 431 4268 2972 940 
258 1864 3028 2161 826 2825 4057 2289 961 
1818 2788 2151 4926 2463 5184 4381 3963 417 
1807 4176 1308 4307 5367 2869 4513 1627 4480 
2328 483 1648 893 2071 2383 680 583 92 
3068 1037 1528 849 146 2501 1805 2398 1798 
2341 3023 687 1689 1034 2852 863 2197 927 
2400 811 133 1399 132 121 31 1679 1164 
3463 387 4995 4664 3396 1211 4690 601 2283 
2256 86 5296 3551 5742 1535 1520 2884 2589 
4360 288 3889 1047 546 5417 5982 1121 2266 
1225 2258 1024 2249 2655 2583 242 993 2462 
13 2454 1673 895 540 2751 2235 3107 299 
1851 1791 367 2794 903 254 478 2116 3762 
3038 2962 1906 4264 2064 2799 819 637 357 
910 1146 5402 3825 5314 2427 3710 5358 5052 
5739 3285 4761 4752 4373 5663 5229 5529 4353 
3586 4209 5318 4106 5260 6029 5943 4570 216 
3421 5728 5759 4954 4744 5059 5081 5584 2984 
3039 5936 5348 5255 4456 5303 3387 5701 5639 
1659 5281 1088 4000 3335 2310 5014 3714 302 
1154 4447 3882 3223 4006 4484 3521 5695 4321 
3892 4970 3347 4086 5706 4427 4267 5451 5372 
5794 4304 6032 5875 3531 5483 5424 4140 3558 
3230 5718 6053 5105 5299 4762 5127 5426 4689 
4308 5261 5134 5238 4888 4509 5220 5266 5711 
2524 4741 5716 876 4910 3692 5935 4821 2147 
5188 3160 1707 4511 3443 3102 4095 5915 2222 
2612 1236 1874 1939 1955 426 3013 628 1767 
2114 1698 1563 1347 2227 5124 3827 3449 5760 
5363 4942 3949 3668 5808 4272 3730 4740 3935 
4466 4303 4174 4434 5504 5536 4709 4746 3869 
5515 5282 4229 3653 6045 5043 4553 4747 2001 
5290 3723 3738 3741 2303 4131 2916 3841 5913 
4712 5521 5705 4290 5163 5909 4646 303 2232 
708 4638 3688 3982 3403 4263 5498 4800 3732 
2585 2930 1853 2785 5412 4257 4496 2438 1600 
2550 737 1828 726 1550 2602 1633 1670 1730 
881 1607 1352 1331 2236 904 78 2754 4139 
2136 459 2768 4159 1305 3040 2392 26 3855 
2517 5040 3071 1546 3839 2479 542 2019 3458 
3856 3941 3418 5236 2992 2809 270 2698 3902 
4122 3834 5406 4556 835 3769 3129 4232 3132 
4605 3492 5049 685 3639 3397 2394 3315 3122 
5384 4985 291 4598 2547 973 801 85 1148 
3379 94 284 3964 945 80 827 324 645 
581 296 1194 894 1968 669 1915 3027 261 
734 1403 1284 1766 1832 2793 612 698 2274 
1200 19 2334 981 1651 1568 1910 1043 1466 
569 2960 2217 1374 3413 575 5090 3988 1949 
4837 4909 5560 3900 3243 5050 4883 4678 3010 
5524 3585 4616 4789 4714 452 3471 2513 135 
1846 1031 2101 3953 1625 429 1903 3269 918 
71 1890 969 2444 2677 632 2346 2457 652 
2856 791 69 3724 2378 3137 2681 2347 589 
493 662 415 2213 51 670 1280 2074 735 
1899 2502 64 46 727 28 176 109 600 
382 363 2752 1061 1091 841 1138 156 2487 
921 445 492 219 201 405 630 548 677 
480 379 83 805 675 936 8 59 557 
598 1671 395 207 1819 2534 2521 149 742 
4459 4280 2436 3321 4711 4252 4872 2805 5084 
5135 3166 1958 3993 658 2955 3466 4901 5566 
4876 5541 3101 5583 2950 4948 2579 4138 5781 
5422 5200 4680 5577 1715 48 252 1093 574 
842 767 1277 850 1053 948 358 902 1294 
2000 1456 297 773 1706 2036 684 1181 1947 
1055 265 1139 519 498 7 979 2894 804 
172 755 1735 568 1097 1135 784 152 1452 
989 561 761 1231 351 588 818 555 1203 
839 161 185 911 1301 780 602 104 785 
1206 398 256 154 665 97 1214 1516 1075 
344 1862 2551 613 1414 423 3689 50 453 
3909 4377 438 2100 672 3106 1821 4154 1638 
2132 4227 3859 2888 2220 3436 4020 5259 2996 
2646 5600 2081 1762 5664 2975 343 1970 3822 
4482 636 3530 6006 5815 4258 4815 5726 4667 
3545 5863 4791 4881 4197 5503 5934 1078 2863 
976 1445 1261 869 32 499 1776 278 1588 
2149 649 1523 1072 1044 474 66 608 1336 
691 1163 570 2428 1810 713 646 1071 1197 
926 128 1085 1254 897 393 1157 184 479 
1491 1561 1626 404 1022 991 112 829 724 
2439 1216 105 1156 1101 764 564 262 689 
836 359 57 280 578 798 4 1094 879 
253 553 1048 1888 227 3597 3099 82 2528 
134 3206 2315 1497 1896 959 2411 325 3218 
1536 2364 2067 592 9 1957 2830 3058 476 
1429 1077 2588 536 3996 4105 4438 4653 5572 
1564 3615 5218 1621 5512 1390 3420 4470 970 
2618 611 3967 5989 3186 3364 3536 5150 4671 
3980 5542 5174 2327 2113 1934 500 1240 2510 
2338 2477 2387 484 2292 2263 1770 1115 2478 
2363 2062 1021 1562 353 984 166 957 1172 
17 1641 1358 1288 56 1334 635 721 96 
1727 1340 671 2060 196 43 1654 472 250 
451 591 1002 1480 514 715 1266 587 347 
231 681 370 907 2241 1510 1099 2497 439 
756 2142 1481 3929 3904 1718 3816 4571 806 
2764 5752 1162 4045 1579 3310 2695 5431 5103 
5454 3491 5981 3590 4620 4543 4652 4012 4141 
3275 3052 5463 4345 5404 4335 5285 3623 5834 
5009 3327 3950 4865 5161 4224 2097 3110 1757 
2432 2883 1768 3353 2059 2990 1859 2389 1722 
1505 3588 1782 2459 1223 1300 952 2015 2105 
963 2265 1420 1400 1850 1531 1923 2807 310 
2095 1605 2591 3094 328 1527 2190 67 1385 
1126 1556 518 516 2404 924 2527 1167 1916 
1941 1299 2535 3614 1388 2980 1226 2720 3505 
4852 5099 2820 809 5231 4119 5033 3457 5785 
5674 3647 3848 4069 4173 5919 5133 5042 4300 
5884 2367 5095 5999 6025 5430 5731 4180 5312 
4850 3888 3133 6036 5460 5821 6030 5464 1959 
2264 2687 2385 3305 2974 1052 3600 1614 3189 
2691 3093 2900 55 3915 3406 2577 3546 1816 
2642 3089 950 2987 2781 3431 2311 676 1188 
1932 2345 2117 4184 2120 3581 3868 4334 4126 
2814 1991 4135 3843 3779 3675 1538 4190 2868 
4583 4738 4915 2299 4115 521 4198 4394 5916 
3584 4245 4651 1028 2193 3405 3810 5126 4953 
2777 4503 3749 2499 5419 4983 4705 3998 4199 
4487 5835 5773 4978 5896 3566 4256 5931 2302 
3087 3162 2895 412 3427 2944 3444 2789 2352 
2103 2593 2676 3809 2708 3514 5575 4748 4082 
4158 3288 3805 4164 3719 3411 3512 4474 3290 
4965 5758 5819 3036 3517 5180 3919 5538 4108 
5743 5897 4034 4629 4899 1662 3367 6021 5621 
4617 5374 5331 4639 5757 5868 4019 2726 3651 
4562 4582 4022 3849 5202 6040 5732 5768 5073 
5828 4411 5822 3922 5055 6027 4775 5302 4928 
3616 4501 5977 3833 2878 5227 4896 5904 5856 
5852 3326 4586 5545 4439 5932 5189 1128 5093 
4534 3172 4206 5481 4446 2066 4737 3324 4465 
5672 5962 4782 5949 1650 2536 3479 4683 4017 
3464 5178 2782 3138 1743 4153 5804 5368 5539 
4464 5026 3947 4295 2520 5823 3725 3021 4919 
3415 4103 2853 2625 6047 3180 4875 4939 3690 
4433 5775 3539 3731 2301 4697 2433 3447 4457 
3030 4493 4220 5167 4358 5223 5910 5848 3932 
361 3807 5948 3295 3454 5531 2422 4101 3414 
3872 4339 4935 4389 5325 5423 3375 5665 4828 
3373 2843 2453 3954 3069 4013 3957 4412 3709 
5680 2998 3459 1721 3359 1098 2732 2129 4400 
3374 497 2787 3329 3124 3308 4541 3773 4554 
3981 3671 6007 3699 4544 4700 5409 3883 5421 
4500 5048 5366 5811 6001 5833 5243 3804 4179 
4943 4099 3412 5959 3009 4956 2969 4604 4462 
4187 3578 5170 5873 5199 4156 5673 4430 5235 
5513 5205 4874 4292 4659 4355 3618 3666 4211 
2800 3591 2703 4518 190 3729 2912 2245 2108 
1585 3381 1867 3019 3057 2531 1434 3192 1905 
639 1063 2603 3682 1437 2156 2130 2896 3103 
2959 2013 3681 3758 2420 3677 3726 3022 2739 
2666 2505 1901 2875 1612 2451 978 2216 3475 
2380 114 2919 3794 2846 2749 4133 3733 1998 
6058 3975 2187 3283 4973 5938 3655 3861 4033 
2639 1705 2112 2485 4111 4143 1806 5712 4364 
3227 3767 4469 3141 1775 2882 3361 5736 2065 
5522 5219 4846 3920 772 3465 4831 3555 1664 
3914 4930 1555 3077 5858 4530 1198 2055 3770 
4285 2997 5345 2773 577 4083 1548 1292 1213 
1838 169 1629 1032 2280 1322 309 3012 447 
1404 1592 2653 1114 2532 1056 4205 2861 2488 
3529 5110 2202 2406 4668 4857 4403 5007 3798 
2842 4517 5487 4114 4685 3328 4450 4632 4004 
4630 4679 4692 4807 4375 3363 2684 1990 294 
101 1204 1733 2134 998 3509 2598 2192 2049 
1393 2617 1479 2435 1245 2353 1695 3944 3451 
2891 2811 3011 1971 2772 3670 1748 1498 1870 
4663 1379 2495 2848 2614 2791 2596 1483 230 
802 2627 992 1583 3439 2323 2085 449 1788 
1678 962 968 1841 138 1151 821 1781 2102 
346 847 1253 1804 1029 125 277 213 627 
814 70 783 463 1797 2426 618 980 3215 
596 3232 2518 2923 2304 1500 2656 3649 4932 
4346 4094 2568 2692 5006 4920 4816 5991 4842 
5300 3518 3317 4370 4269 5678 2615 3064 4622 
4599 4781 4885 5162 5251 4536 5380 4725 4851 
5488 5022 2722 1922 960 2237 1926 2277 315 
1492 42 1360 1647 2538 2069 1801 2336 543 
1193 700 711 965 2721 1869 481 1367 2038 
14 584 179 320 2070 1004 1676 300 2003 
1839 2093 1931 1238 547 1290 276 955 1994 
425 786 148 778 929 460 1067 782 2648 
1761 650 304 464 182 1381 653 1036 1169 
1205 1057 1270 469 1321 1274 949 925 391 
1532 1117 271 1107 2048 2544 1332 541 2354 
3563 2572 3757 3755 4650 4964 1464 4065 4070 
3951 4715 2849 3488 5155 5537 3476 3389 4314 
5270 5518 4204 4072 5633 5176 5226 5764 3503 
4068 5952 4843 5582 5465 5074 5652 5083 4702 
4531 5075 5649 4868 5878 4675 2938 5143 1827 
336 1574 2877 2173 1160 971 3607 1924 1739 
2700 2971 1383 2491 1366 2233 1746 2127 3231 
3100 2228 752 1090 263 716 1235 2340 2248 
2028 1911 1559 1161 1342 349 759 749 1134 
1252 1244 1276 1068 974 779 1131 873 793 
714 803 919 1430 269 975 845 914 419 
534 1581 53 2619 340 633 2862 3117 2210 
3510 2396 295 2946 2526 2854 2455 2424 2978 
4916 2893 3307 3686 3946 2713 4117 4390 3704 
4506 5108 3985 4162 4993 5810 5974 4972 4783 
3046 3535 4990 4234 5616 5658 5850 5381 4763 
5284 4845 4934 6061 5831 5787 4699 5267 4615 
4477 5023 5749 4870 5574 4730 3015 4694 5544 
1345 2410 3085 657 930 1482 2297 2469 1716 
1694 3066 1710 4254 2018 3229 1945 3939 3251 
4125 2335 707 883 2023 1616 1953 1258 1551 
2050 1273 168 103 442 206 1234 1590 535 
808 369 1598 1348 1158 1412 1444 1620 1175 
731 1185 1634 915 892 815 144 1427 1700 
539 933 2941 1173 2826 501 2441 1260 3430 
2294 3339 1904 4181 2395 2690 4001 3002 2634 
1964 3256 4043 4230 4113 4911 5925 5519 5954 
6055 5172 4772 5047 4301 4445 1956 5631 3640 
5092 5337 5164 5892 5604 4442 5438 5254 3990 
4247 3096 264 5257 4522 3291 5140 5125 4075 
4619 5100 5183 4431 4997 4046 2490 2738 4002 
2512 2118 3184 3128 3641 4940 3446 3685 2870 
2881 1450 1872 3020 2356 3065 2099 2744 2606 
2273 2391 3209 2296 651 2928 567 1723 800 
1395 21 2545 1643 1843 2073 2144 1653 430 
2032 1329 4698 4549 2373 1432 2985 2467 2306 
2798 2828 4200 5644 3646 3190 5096 4520 4724 
3705 4673 2660 5576 2947 3740 3480 4887 4460 
4157 5479 5123 4661 4275 4552 3582 4959 5698 
5585 3711 5922 3952 3063 5275 2507 4163 4402 
4221 5860 5625 2942 4736 5239 5334 5832 4654 
4207 5825 5054 4112 3544 3210 3366 3542 3153 
3177 3393 2686 2748 3399 2965 3579 3246 1803 
3434 3837 3410 3262 2924 3815 2821 482 3501 
3340 3540 3041 2983 4152 5549 3304 3398 4584 
4453 5066 3334 3400 4098 5721 2995 4693 4169 
4798 3442 4508 5173 5969 5911 5321 5987 5558 
5094 3164 5195 5485 2907 5287 4806 5812 4203 
1763 3979 4861 4641 5491 5158 2402 3759 5921 
5640 3266 3865 4266 5407 1504 4908 4579 5225 
4332 2447 3661 4341 2242 3322 4352 3775 5780 
2797 5185 4933 2729 6063 4277 4635 4293 3898 
4526 5973 5496 4701 4077 5082 5342 2683 5881 
4317 2727 5855 3460 5986 5550 5615 5032 5473 
2889 6000 2723 4489 5252 5392 2880 4596 4813 
3643 3656 5747 5994 4054 5079 4414 5401 5694 
4011 3840 3713 1773 6017 4471 5458 2645 3847 
5213 2714 4361 5685 1680 5416 4315 5957 4969 
1396 5724 745 6014 3974 3306 3568 5662 932 
5827 3587 5241 4986 5156 4151 3325 4312 1540 
2784 2638 5944 5005 5696 2014 4123 6016 5385 
5592 3737 4042 2886 4422 4322 5322 5514 5605 
5085 2609 1558 3948 5740 6010 4647 2628 5436 
3814 5279 3844 4756 5972 5359 5361 2890 5552 
1521 5626 5051 4366 5186 3281 2595 5045 2344 
5382 6020 4406 1020 4749 4723 3378 4721 5440 
6008 1565 3785 6004 2078 4805 5719 2434 3456 
4195 5659 5448 3991 5390 5563 3120 3826 1965 
5864 1847 3846 5278 1439 1982 5489 5730 4359 
4376 5478 4320 2037 5700 2251 3260 4382 4610 
3777 4240 3185 5890 4440 5208 5232 4409 5927 
3819 3134 1865 3604 1365 2594 5653 2158 2693 
5316 4811 5914 2208 5307 3386 5432 1826 5849 
5377 5256 2131 5902 3250 5461 5767 3603 5839 
5903 2988 3927 5564 2566 3955 5395 953 3426 
4367 4527 4818 5206 5782 6028 2443 4499 5682 
3828 3580 3611 2711 3147 2080 3672 4003 5128 
2747 2770 1909 102 3342 3084 2503 4478 1503 
1686 2982 3323 1249 3220 986 1751 2958 3136 
2379 2257 2922 2229 2650 4745 3238 3469 5182 
5393 2780 4512 3626 2401 871 2458 5292 5333 
5455 4039 5516 6039 3912 5859 6057 2834 5795 
5960 5142 5449 3258 3346 3354 4265 5441 5853 
2827 4734 5523 3424 5611 5837 3423 5058 5928 
5046 5689 5619 4271 5964 2381 4063 5484 2831 
4410 5389 4167 3748 4890 4437 5723 4847 3116 
3351 5857 5039 4029 2694 2449 3493 3727 3372 
5840 2741 509 3508 3772 2322 416 187 3213 
1928 861 3033 820 1298 2953 1708 1315 1224 
1289 1100 2063 1754 2753 4448 4239 1799 3570 
4081 3296 4306 2968 5968 4597 3391 4298 5070 
4436 4078 5641 4170 4244 3962 5315 6050 5769 
2644 2605 5450 3088 4633 2096 3159 4331 4704 
2567 4052 4860 3602 5245 5115 4963 2712 4980 
1370 1917 4025 1929 2309 5146 2652 3983 2590 
2225 3708 3016 2823 3684 2214 625 2119 1963 
2859 1594 1111 3349 3073 3079 2291 2247 3663 
4918 3337 1897 1281 11 2123 860 458 2892 
1425 2125 977 999 617 775 1170 733 33 
699 1314 1499 875 1854 2163 1985 1669 2964 
743 3452 4913 5121 4824 5802 3263 5753 3824 
4515 4614 4944 5027 4398 4458 5965 5362 4342 
2935 5806 4497 4289 3870 3477 4931 5722 3956 
6018 2007 5756 2967 3154 2556 1451 868 2293 
5820 3630 5030 5824 2838 1948 5865 3831 2647 
4237 3195 3945 5533 5153 4222 5715 3358 5677 
1881 1086 1873 1447 2847 3778 838 2557 1996 
1675 1283 448 2039 6 167 1772 2086 1338 
1166 1058 607 1699 1368 1824 1001 1003 1714 
1319 1894 882 202 1517 1155 908 332 489 
116 1073 1159 2153 3163 443 99 1119 2440 
3031 2908 2238 2027 2957 3239 2952 4882 3644 
3817 4144 3835 4895 2374 5476 3903 3440 6062 
3171 5866 220 5807 4538 5651 4329 5242 5323 
5703 4923 2333 5830 4193 5612 4557 5551 5011 
5403 3906 5729 5457 5004 5836 5439 2165 2405 
3289 2658 3520 2175 2200 1624 4241 3104 5750 
4250 1840 3800 4374 2716 3119 2578 2680 2994 
5876 3265 1409 1786 1387 1927 1586 2801 2745 
1104 2106 4132 648 25 898 831 2272 1476 
2083 193 1375 586 891 830 327 465 982 
2056 944 1665 37 610 695 65 1316 488 
191 995 1359 106 2177 147 799 2707 2592 
2221 2546 1844 889 2500 3376 1615 233 2140 
4637 232 2679 3976 2279 5339 5613 3700 5779 
2525 5587 2029 4194 1026 2841 5214 5330 3940 
5958 5344 1207 5933 4494 2180 3429 3871 4505 
3589 5501 5683 4324 4542 5112 5353 5089 6038 
4833 1809 2836 2611 1800 3893 2558 3462 3407 
2906 4005 3272 3473 3309 1356 2493 2145 2761 
3635 4498 4804 1876 486 2181 833 1658 505 
1448 1239 771 692 1703 1051 972 1734 450 
769 1422 1357 1023 1898 1494 697 655 376 
283 1530 110 3095 360 1389 1719 3070 1106 
1868 2570 259 770 2053 1682 1933 3916 4395 
3526 2904 3537 2359 4008 4387 4435 2845 2275 
5210 5520 3928 2281 3657 956 4735 6056 5427 
751 3044 2201 4550 4987 4912 3701 4950 4601 
5817 4287 5301 1918 1920 4786 2734 4750 5622 
5547 3664 5704 1717 4710 3024 5642 3048 3254 
2620 4155 4053 3745 3838 3617 4559 3750 4178 
3636 2977 4528 2696 4691 1578 2561 3257 3652 
3240 3999 1124 1012 1603 2993 87 2756 273 
2218 2766 593 763 2610 792 3885 1858 1127 
6034 4504 3619 3168 2991 1783 2795 599 3876 
816 2986 4379 2305 5283 5697 5360 5443 5818 
5771 5798 5942 2092 5877 1533 5590 5069 4175 
5661 4757 3352 1386 4991 5790 3078 5629 3528 
5627 2804 6051 2223 5405 4479 2041 5997 4660 
3624 2802 4564 4835 2288 5594 3659 4608 3583 
3511 3992 4507 4091 4854 3165 3599 4999 2052 
3910 3667 4946 4418 4492 3279 3173 3806 4655 
4037 5386 4613 3292 2076 4261 4351 3895 3357 
3678 1018 2110 5091 4844 3721 5264 3249 3489 
2608 4396 1049 4793 4118 5945 2979 5569 4891 
1856 4485 3502 4349 5930 4839 3076 4056 1473 
5130 5937 1857 2976 3918 2047 3925 3612 5444 
6052 4937 3884 5648 3092 3060 4444 5869 5247 
3474 5961 4788 2674 6033 4941 5632 5228 4812 
4603 4519 2835 3433 3594 4270 6002 5786 3897 
3450 5637 1569 2760 2902 6046 5984 5847 4670 
2057 5139 5119 3850 4432 3333 3383 5543 5104 
5447 5351 2276 4354 5234 3562 5193 4160 4677 
1609 5248 5249 5879 3145 4878 5746 4071 5843 
5113 4548 5751 4514 5148 4336 4423 4894 1110 
5801 1025 6013 4687 5063 4984 4578 3736 2195 
5556 5565 4297 3338 3820 2268 2522 4134 6009 
4127 2386 2939 3986 1774 5610 2508 1777 2416 
3152 5668 4326 4743 5956 1771 2864 5499 3994 
5203 5526 3553 4136 3706 5364 4347 5486 4567 
4357 4309 3966 5546 2573 3523 4826 5527 4223 
4116 3559 2786 2313 3319 2702 4766 4340 5347 
4809 1484 4803 6023 3390 5607 3112 5244 5328 
2874 1417 5708 1977 1199 3054 5841 5222 788 
3997 4565 3801 5561 5209 2316 4880 1323 4726 
5908 6065 4461 3781 470 113 4165 2284 4147 
4674 5166 3081 3478 3873 1737 5588 3362 5373 
2688 2860 1293 3494 4276 3388 1760 994 1547 
2091 5029 5497 4869 4776 2271 4148 4968 5237 
3242 768 2866 3072 5699 2601 2472 5851 3575 
5490 1882 5789 3783 4977 5356 3320 2307 1183 
3691 2651 3605 3194 1392 4858 1808 3803 4585 
2803 3417 4420 4563 2489 3385 4378 5979 2872 
4302 4426 3219 3217 1995 4243 1655 1992 4219 
2506 58 3270 1871 2480 3297 2107 2365 2355 
3035 1820 3161 4055 1636 4727 2337 1845 72 
5147 504 2369 2822 4722 2719 2758 2934 2954 
3481 2026 4628 579 3857 4925 5737 4516 5676 
4048 5727 3182 4463 2286 3754 4521 1785 3930 
2270 4425 5107 1778 3370 5562 3654 4467 1649 
5898 5399 5799 5036 5579 1222 3621 3907 3878 
5034 3091 3273 218 5258 4383 2871 741 5397 