# vtk DataFile Version 4.2
Generated by LIGGGHTS
ASCII
DATASET POLYDATA
POINTS 6000 float
-0.0230278 -0.0386526 0.00733252 -0.0210787 -0.0397228 0.0040002 -0.0248946 -0.0374367 0.00399817 
-0.019433 -0.0405707 0.0101618 -0.0151298 -0.0422883 0.00401605 -0.01821 -0.0411487 0.00639479 
-0.0148556 -0.0389788 0.00661968 -0.0151516 -0.04229 0.00884287 -0.0158475 -0.0384868 0.010469 
-0.0176131 -0.0377187 0.00399957 -0.0192334 -0.0374283 0.00764296 -0.0119069 -0.0397351 0.00922003 
-0.0118969 -0.0396055 0.00399996 -0.0113219 -0.0435625 0.00400423 -0.00740795 -0.0443864 0.00399938 
-0.00752684 -0.0443735 0.00799983 -0.00507094 -0.0405626 0.00399915 -0.00861572 -0.041021 0.00579976 
-0.00559939 -0.038307 0.00726034 -0.0114397 -0.0435254 0.00800557 -0.00426017 -0.0420607 0.00762219 
-0.0080937 -0.0408282 0.00976311 -0.00773064 -0.0373923 0.00400024 -0.00447576 -0.0447769 0.0105567 
-0.00343779 -0.0448644 0.00400846 -0.00115435 -0.0413796 0.00399926 -0.0014272 -0.0449363 0.00751027 
-0.00166641 -0.0390428 0.00720614 0.000559367 -0.0449925 0.00399864 0.00257353 -0.0449209 0.00745237 
0.000916352 -0.0415821 0.00890076 0.00414084 -0.0393571 0.0099436 0.00458504 -0.0447517 0.00399918 
0.00655305 -0.044471 0.00747586 0.00894341 -0.0401663 0.00401636 0.00763942 -0.039559 0.00792251 
0.00853987 -0.0441539 0.00401266 0.0101313 -0.0426615 0.00736948 0.0110906 -0.0376699 0.00717295 
0.0124372 -0.0432456 0.00401098 0.0129229 -0.0392775 0.00400166 0.0149419 -0.0387526 0.00741952 
0.0162541 -0.0419249 0.004005 0.0166459 -0.0375579 0.00399976 0.0181175 -0.0411805 0.00747625 
0.019927 -0.0403408 0.00400406 0.0141244 -0.0426696 0.00759711 0.0186258 -0.0371848 0.00745861 
0.0126767 -0.039365 0.0106612 0.022092 -0.0392048 0.00718195 0.0241567 -0.0379317 0.00399936 
-0.0312916 -0.0323202 0.00400574 -0.0295695 -0.0334307 0.0074441 -0.0326224 -0.030985 0.00867739 
-0.0340056 -0.0293831 0.00399885 -0.0305513 -0.0288711 0.00598099 -0.0288079 -0.0300326 0.00941026 
-0.028259 -0.0349828 0.00399863 -0.0230187 -0.0346707 0.00773146 -0.0266892 -0.036233 0.00746468 
-0.0245636 -0.0334522 0.00401938 -0.027578 -0.0307557 0.00400344 -0.0257597 -0.0317318 0.0074457 
-0.0212721 -0.0357245 0.00402539 -0.0211286 -0.0319857 0.00544747 -0.0223801 -0.0311324 0.00949738 
-0.0237778 -0.029307 0.00400426 -0.0178188 -0.0337035 0.00400216 -0.0182078 -0.0296685 0.00399946 
-0.016423 -0.0312161 0.00722672 -0.0141445 -0.032118 0.00400671 -0.0138829 -0.0361145 0.00399948 
-0.0159242 -0.035183 0.00731309 -0.0193041 -0.0335631 0.00870891 -0.0184758 -0.0300507 0.0104747 
-0.0128687 -0.0358935 0.00979842 -0.0130582 -0.0290844 0.00759685 -0.0119721 -0.0329219 0.00727085 
-0.00885067 -0.0368994 0.00996884 -0.0107882 -0.036663 0.00647112 -0.00979856 -0.0336741 0.00399928 
-0.00601846 -0.0323683 0.0039999 -0.0073323 -0.0347145 0.00697442 -0.0083733 -0.0308185 0.006955 
-0.00459203 -0.0318961 0.00771124 -0.00490324 -0.0349045 0.0104392 -0.0108726 -0.0298202 0.00399862 
-0.00830101 -0.0327967 0.0104319 -0.00600367 -0.029456 0.0105479 -0.00378082 -0.0367562 0.0040462 
-0.00218856 -0.0350872 0.00748729 -0.00208759 -0.033133 0.00399924 0.000212389 -0.036414 0.00400026 
0.00296779 -0.0330024 0.00739254 0.00165819 -0.0313153 0.00399943 0.00144568 -0.0366507 0.00807027 
-0.000701051 -0.0311159 0.00722115 0.000233791 -0.0335358 0.0102649 0.00266804 -0.0289805 0.00751154 
-0.00199592 -0.0291311 0.00399967 0.00397807 -0.0349413 0.00400963 0.00541677 -0.0362306 0.00779942 
0.00773187 -0.0363377 0.0039996 0.00554639 -0.0303796 0.0039992 0.00636034 -0.0300081 0.00865125 
0.00738132 -0.0330844 0.00630467 0.00998945 -0.0311084 0.00399804 0.0116796 -0.0352812 0.00400198 
0.011253 -0.0330576 0.00731196 0.00888762 -0.0353857 0.00960686 0.0101139 -0.0292147 0.00751806 
0.00538674 -0.0333695 0.0105971 0.0129354 -0.0354061 0.0101383 0.0138996 -0.0319528 0.00400003 
0.0204769 -0.036364 0.00399932 0.0147769 -0.0348343 0.00663601 0.0166632 -0.0338377 0.0100591 
0.0183811 -0.0315111 0.00727284 0.0175421 -0.0336482 0.00399962 0.0170929 -0.0295158 0.00401125 
0.0148207 -0.0295281 0.00731023 0.0171945 -0.0294608 0.0105308 0.0134359 -0.0314558 0.0105283 
0.0258148 -0.0368739 0.00748335 0.0207387 -0.0312387 0.00400147 0.0214627 -0.0343624 0.00731965 
0.0228185 -0.0305945 0.0073701 0.0274604 -0.035656 0.00402973 0.0236739 -0.0339587 0.00400124 
0.0260636 -0.032907 0.00703218 0.0273058 -0.0306162 0.00399941 0.0239553 -0.0335913 0.0103585 
0.0286504 -0.0298016 0.00767705 0.0296128 -0.0338095 0.00863842 0.030495 -0.0330472 0.00399842 
0.0323176 -0.031298 0.00709719 0.0309027 -0.0288425 0.0040011 -0.0387149 -0.0228879 0.00400314 
-0.0375323 -0.0248027 0.00799325 -0.0400011 -0.0206127 0.00775857 -0.0365071 -0.0262527 0.00400021 
-0.0351681 -0.0280057 0.00757817 -0.0347205 -0.0226442 0.00399972 -0.0321972 -0.0258063 0.00400028 
-0.0335913 -0.0243242 0.00745157 -0.029623 -0.0244472 0.00676127 -0.0316326 -0.0271823 0.00944952 
-0.0310323 -0.0233353 0.0103619 -0.0360464 -0.0211284 0.00745976 -0.0309488 -0.0213062 0.00399944 
-0.0277876 -0.0267591 0.00400303 -0.0261323 -0.0277489 0.00750716 -0.0272361 -0.022793 0.00399933 
-0.0241059 -0.0220137 0.00636295 -0.0240758 -0.0252471 0.00400136 -0.0228286 -0.0255005 0.00785228 
-0.0263425 -0.0239972 0.00903064 -0.0281258 -0.0207592 0.0074672 -0.0211203 -0.0229081 0.0103908 
-0.0208846 -0.0222566 0.00400252 -0.0202728 -0.0285162 0.00725176 -0.0201851 -0.0261936 0.00399919 
-0.0190594 -0.0239667 0.00712568 -0.0145148 -0.0281333 0.00399741 -0.0164839 -0.024632 0.00401173 
-0.0165083 -0.0270828 0.00730517 -0.0130776 -0.0251439 0.00622901 -0.013588 -0.0218592 0.00399993 
-0.0154594 -0.0224619 0.00799975 -0.017311 -0.0206995 0.00489936 -0.0184736 -0.0259083 0.0105863 
-0.00992001 -0.0288071 0.0100578 -0.00675663 -0.0284126 0.00400037 -0.00772141 -0.0244769 0.00399816 
-0.00953931 -0.0270052 0.00650782 -0.00441487 -0.0279324 0.00720897 -0.00675648 -0.0244515 0.00788034 
-0.0100955 -0.0224944 0.00653461 -0.010951 -0.0249099 0.00960854 -0.00892311 -0.0215191 0.0102328 
-0.00495292 -0.0219433 0.0104508 -0.000705107 -0.0284149 0.0105524 -0.00388555 -0.0256043 0.0039991 
-0.00382173 -0.0216048 0.00399915 -0.00368645 -0.0257429 0.0106162 0.00236948 -0.0270826 0.00400449 
0.00292298 -0.0239921 0.00648273 -0.000212889 -0.0240194 0.00400018 -0.000603222 -0.0267542 0.00689902 
-0.00289837 -0.0235134 0.0073902 0.000894002 -0.0245347 0.00988974 -0.00115085 -0.0208696 0.00983194 
0.00307924 -0.0208297 0.00402592 0.0060281 -0.0235428 0.00399928 0.00582683 -0.0269647 0.00606074 
0.00948281 -0.0236619 0.00601074 0.00925118 -0.0271199 0.00400214 0.0065896 -0.0240976 0.0087406 
0.010395 -0.0236672 0.00990352 0.00847407 -0.0271544 0.0105343 0.00622036 -0.0206327 0.00677996 
0.0044627 -0.0270002 0.0104883 0.0124526 -0.0259751 0.00736386 0.012933 -0.0238675 0.00399922 
0.013147 -0.02802 0.0039982 0.0183782 -0.027513 0.00723484 0.016569 -0.0255505 0.00401156 
0.0204699 -0.0264598 0.00399579 0.0181497 -0.0235169 0.00707229 0.0157634 -0.0255891 0.00957089 
0.0143197 -0.0224331 0.00746573 0.0165388 -0.0215147 0.00400206 0.0204598 -0.0223555 0.00400433 
0.0170506 -0.0210735 0.0100543 0.023805 -0.0286638 0.00399968 0.0252619 -0.0274144 0.00751171 
0.0217528 -0.0251817 0.00756426 0.0238988 -0.0244044 0.00401024 0.027236 -0.0266133 0.00400067 
0.0266592 -0.0236882 0.00710572 0.0232682 -0.0215647 0.00678764 0.021147 -0.0282074 0.0101114 
0.0256043 -0.0213191 0.0101853 0.0281947 -0.0266768 0.0101337 0.0262331 -0.0211554 0.00400077 
0.0216169 -0.0213149 0.0104934 0.0298605 -0.0228679 0.00400191 0.0348313 -0.0284544 0.00584289 
0.0320389 -0.0280241 0.00940031 0.0300702 -0.0258111 0.0067102 0.0329832 -0.0254263 0.00399953 
0.035071 -0.0220052 0.00400024 0.0338996 -0.0241162 0.0076648 0.0298451 -0.0228982 0.00945726 
0.0359339 -0.0270923 0.00943599 0.033925 -0.0210478 0.0102298 0.0319322 -0.020756 0.0067013 
0.0369878 -0.025624 0.00399865 0.0378978 -0.0241313 0.0075983 0.0390651 -0.0222042 0.00399987 
0.0396802 -0.0211868 0.0103298 -0.0405916 -0.0193403 0.00400345 -0.041656 -0.0170331 0.00709208 
-0.0425285 -0.0146255 0.00400474 -0.039298 -0.0138231 0.0074631 -0.0375835 -0.0174361 0.00745718 
-0.0386851 -0.0157361 0.0040043 -0.0431052 -0.0128959 0.00828485 -0.032107 -0.0205075 0.00774635 
-0.0365775 -0.0147438 0.0102467 -0.0360705 -0.0187948 0.00400327 -0.0299584 -0.0172359 0.00691182 
-0.0325441 -0.016269 0.00400946 -0.0357469 -0.0135526 0.00564263 -0.0337686 -0.0162825 0.00782484 
-0.0312267 -0.013444 0.00660901 -0.0333027 -0.0124749 0.00988661 -0.0299579 -0.0146365 0.0102549 
-0.0242606 -0.0204556 0.010046 -0.028557 -0.0148804 0.00400002 -0.0276708 -0.0187897 0.00400291 
-0.0220928 -0.0184437 0.00399866 -0.0245799 -0.0153115 0.00399898 -0.0230165 -0.0137305 0.00733091 
-0.0249035 -0.0181216 0.00682604 -0.0269426 -0.0144335 0.00763221 -0.02737 -0.0176723 0.00994161 
-0.0235484 -0.0165242 0.0102394 -0.0208048 -0.0137221 0.00399992 -0.0207377 -0.0201076 0.00737362 
-0.0207778 -0.0136686 0.010647 -0.018395 -0.0169199 0.00400352 -0.0168635 -0.0130041 0.00399976 
-0.0159284 -0.0155948 0.00690742 -0.0145341 -0.0179651 0.0039999 -0.0198557 -0.0161712 0.00765192 
-0.0171741 -0.0189248 0.00875839 -0.012777 -0.0195995 0.00719888 -0.0130317 -0.0142586 0.00399877 
-0.0166468 -0.0132187 0.0100552 -0.0138898 -0.0170744 0.0100937 -0.0126627 -0.0130037 0.010375 
-0.00772761 -0.0204771 0.00400049 -0.0105467 -0.017398 0.00399959 -0.00662265 -0.0166973 0.00469769 
-0.0113695 -0.0154849 0.00742389 -0.0088837 -0.0187023 0.00739408 -0.00747822 -0.0150562 0.0082456 
-0.00498017 -0.0195645 0.00723806 -0.00906196 -0.0136038 0.00400517 -0.00495801 -0.0131286 0.00399949 
0.00265531 -0.0206091 0.00859324 -0.000473743 -0.0204926 0.00588463 -0.00272549 -0.0177593 0.00399947 
0.00124323 -0.0172753 0.00400843 0.00364788 -0.0168481 0.00718257 -0.00367034 -0.0153588 0.00705849 
-0.000240869 -0.0171425 0.00807851 0.00345589 -0.0139384 0.00400572 -0.000932586 -0.0136878 0.00436447 
[...]
POINT_DATA 6000
FIELD FieldData 7
id 1 6000 int
902 755 550 979 574 179 588 1706 14 
441 172 320 244 452 252 114 568 63 
365 1053 1011 382 30 1625 537 139 1 
727 71 118 38 1406 251 51 28 519 
135 117 660 720 20 339 377 230 685 
364 791 123 270 215 291 570 88 1197 
1078 762 315 684 294 1139 584 1436 429 
552 789 1181 773 393 810 6 415 316 
989 425 753 1203 1231 784 351 493 670 
410 825 839 1151 1166 337 1141 333 1044 
46 852 69 235 1061 804 1301 152 782 
182 622 449 138 406 1274 80 285 282 
1091 223 219 1408 835 708 909 85 165 
111 329 176 732 11 1194 870 109 274 
247 471 214 73 988 402 710 437 296 
935 257 499 1445 336 1492 1074 307 547 
1456 561 7 1093 960 648 265 42 145 
1269 517 1097 1647 1366 1157 749 297 778 
543 444 498 276 1055 300 2272 1086 761 
1583 632 995 304 1542 2439 448 1489 2207 
1319 1270 185 1219 848 116 515 949 780 
1861 1826 1701 445 650 411 212 455 1435 
1281 884 712 1003 125 725 640 602 2 
600 1155 677 669 925 398 1153 522 435 
277 548 616 781 847 392 1425 1189 187 
228 178 29 1318 3 350 396 440 81 
531 630 83 917 528 964 374 1294 500 
421 75 1235 646 638 711 1068 466 1523 
752 1449 965 649 1134 1476 2109 803 991 
1060 891 479 1135 1342 1926 1290 982 1133 
2083 716 812 1375 1001 495 1163 1604 112 
1486 838 1355 148 25 454 1537 1549 2056 
911 184 526 464 1057 607 633 807 1485 
1974 750 1684 1981 2042 469 830 686 240 
237 821 1439 1683 1674 931 744 675 642 
345 831 475 317 131 1838 119 1208 256 
581 818 1038 858 238 733 723 1241 737 
58 405 698 169 805 302 614 91 734 
1403 558 512 18 379 432 606 654 313 
308 1452 32 691 56 976 1336 678 713 
278 869 1810 404 1276 926 486 595 1252 
972 822 1222 349 505 221 1244 721 193 
1430 757 1090 1067 693 919 624 358 1058 
764 535 2240 793 533 1326 673 898 1368 
1080 1824 151 1470 974 564 1341 1665 1278 
1247 1190 779 1780 1171 1206 1823 1030 2058 
368 783 161 758 141 2034 1453 1617 188 
987 217 951 1760 1405 1771 222 70 76 
213 97 301 645 1232 1242 102 428 354 
1506 1997 324 565 864 787 1224 403 999 
580 216 1585 520 886 1571 1404 210 34 
395 1257 609 1015 726 576 263 380 906 
330 1023 427 366 369 84 1234 529 1085 
1039 107 885 808 644 503 36 1348 2060 
450 759 1384 1156 491 1369 769 1335 327 
306 905 1468 731 1337 1101 436 511 1346 
1110 1524 1495 10 225 192 623 1380 378 
1087 1529 197 1295 815 1736 813 760 719 
777 355 555 1920 1084 98 724 322 5 
155 1094 1993 1210 920 272 1321 1143 942 
1205 104 1597 249 290 1217 1212 699 785 
1230 8 1386 1312 2313 2025 709 908 261 
407 682 1032 1214 1466 1284 997 1372 211 
459 198 426 383 400 401 551 408 1930 
957 707 635 434 388 103 397 1590 647 
1022 96 1108 944 1560 1072 128 43 771 
1561 1412 236 1551 1175 1147 1357 95 1002 
163 1116 1125 1131 1364 311 1728 1266 739 
108 877 722 667 824 556 376 1330 610 
975 605 1248 745 1264 122 1207 41 239 
1142 269 331 527 1233 913 1112 260 573 
37 554 293 866 224 1275 1286 1036 89 
508 255 1019 381 195 1697 617 814 794 
653 523 582 939 703 389 875 344 1059 
22 323 47 384 433 164 1629 271 874 
124 936 209 241 545 598 627 1443 480 
173 496 208 338 664 153 590 136 310 
87 17 1243 55 1709 538 1287 952 105 
166 1620 829 857 1216 1288 1491 567 927 
865 1422 1158 472 1573 1070 1496 736 643 
1066 1494 836 451 937 1812 1398 1634 356 
16 796 65 1582 335 74 788 183 120 
882 174 790 1291 253 1083 1165 422 409 
1469 4 856 1344 1407 541 510 494 585 
289 352 1089 1169 776 880 82 334 1050 
205 390 99 453 1118 775 443 341 332 
59 175 343 423 149 659 742 154 61 
658 618 1168 665 50 463 19 207 1576 
1043 484 171 206 916 1124 474 168 262 
196 680 900 1095 1340 129 591 1177 1180 
299 1654 1427 715 442 1577 1864 1480 456 
483 892 795 1040 915 705 1130 1006 360 
1150 318 1227 137 465 457 140 90 1007 
1796 488 243 359 115 202 532 372 544 
798 321 1465 946 1459 846 342 147 1359 
340 1339 134 186 275 1237 557 873 613 
928 1075 1107 1117 53 501 1414 1536 1119 
797 1792 2132 1159 298 189 325 23 889 
9 1073 250 740 40 993 851 1320 92 
887 326 146 587 637 266 896 578 273 
462 817 516 420 763 68 1752 1185 424 
1378 280 559 347 859 21 159 539 714 
177 487 288 879 619 832 513 199 668 
319 490 391 689 534 419 130 867 52 
31 227 286 681 970 1747 890 553 834 
60 191 1316 674 1306 914 959 666 295 
446 1564 399 132 121 1817 385 353 328 
100 144 461 13 1024 697 603 254 86 
907 67 231 634 133 258 1211 27 922 
370 418 601 373 1000 1164 524 961 845 
367 357 348 106 983 1048 439 826 127 
572 142 1103 1047 200 862 819 1069 57 
809 828 620 530 1149 1077 688 560 592 
1017 48 2346 1733 998 842 1393 2070 2096 
1238 1990 1360 1735 1379 626 1280 66 2213 
1546 2537 101 1846 1371 589 460 468 841 
1031 62 1376 292 1483 802 1652 363 1307 
735 204 918 542 955 234 1775 1741 1841 
1691 945 1903 94 201 64 652 303 1619 
1883 281 248 268 1827 971 1840 1624 1924 
2175 1365 871 700 948 1451 1776 1801 1204 
2277 1869 1705 1929 1193 1245 978 507 786 
929 625 1283 1971 2049 1963 1191 1761 1626 
1715 969 2086 1111 2214 767 1699 2291 1381 
1678 1899 696 1940 2502 2123 2409 1440 772 
1977 1580 921 992 1137 2102 977 2773 860 
973 1298 894 1781 284 694 1253 1915 1148 
1897 2008 706 502 801 1198 662 156 1145 
143 416 1292 738 35 314 49 1123 1333 
850 657 1419 2327 170 1387 1160 1922 1261 
2237 2093 1790 2478 2149 1482 1739 2248 1004 
1748 1676 1881 1947 1873 2647 2075 2036 481 
1479 897 1994 1931 1870 2003 1880 2529 1772 
2254 2039 1936 167 1811 1660 2298 2407 1842 
2332 2414 2382 2496 2061 1979 2188 1808 2948 
2540 1894 1543 1635 943 1992 1113 1557 2362 
1912 1256 1035 1692 1138 962 1338 218 1431 
1847 861 1128 150 1062 361 827 492 1170 
458 820 1688 1213 371 985 1092 577 1184 
1867 126 1472 629 1802 1765 1071 1588 608 
1401 2173 2297 2097 1809 1345 1383 1641 2000 
930 2340 2094 2106 2423 1254 2716 586 2417 
1447 1409 2491 2004 2285 2038 2309 2321 1657 
1696 2196 1839 2743 2091 2468 1623 2504 2082 
2176 1636 1834 2194 1836 1575 2351 2651 2344 
1109 1477 1950 2361 566 2205 2239 2180 730 
2158 2017 1875 1488 287 1714 2224 2087 1704 
2371 2498 2033 855 1589 1656 1417 1473 1183 
1363 1540 1777 1501 1685 1547 1720 1759 1967 
1773 1968 1512 72 33 1548 1607 1655 1732 
747 628 1539 1354 1013 2148 1347 309 1955 
1115 1358 1562 1172 1240 549 1770 1258 1694 
2292 2062 1786 1559 1911 1616 1586 1161 2028 
1863 1734 1927 692 2745 1996 1984 2259 2377 
1815 2421 2470 2710 966 1900 2072 1954 2171 
2482 2779 2372 2092 2628 2243 1860 1725 1144 
1601 1856 1785 1742 2098 1608 1731 1565 1726 
2507 2110 2026 2408 2246 1302 2155 2252 2201 
2068 1820 872 2187 2170 1396 1323 1622 1756 
346 1879 1591 768 702 2253 2330 2146 1640 
1935 956 1507 2166 1972 1730 1353 1558 1980 
2157 994 2284 113 1065 1550 1362 1909 2174 
1434 1063 1871 1891 477 1129 2114 1397 1874 
1221 1474 1631 1458 883 2326 671 1334 1421 
1311 1953 2459 1021 2883 1356 2050 2023 1104 
990 2399 2226 1893 1273 1239 2616 2113 1179 
2005 1876 1444 899 1282 2137 2215 2554 2563 
1513 1349 1515 1822 2041 1857 2573 2571 2608 
1937 1178 1988 1196 1350 1764 2319 1763 1521 
1919 1649 1392 1672 1956 1661 1778 1793 1502 
2195 1467 1533 2047 1493 2078 2632 2390 2675 
2434 1140 1309 2308 579 1020 1025 1794 2448 
1544 2030 2244 2553 2276 1975 1503 485 2643 
2664 2089 2376 1845 1377 1096 1600 1651 2480 
2051 612 2250 1200 1584 1886 2130 641 1698 
1670 1056 1228 986 26 1046 1305 1885 904 
1052 1713 984 1450 2264 2452 1448 1628 1570 
1727 1859 1606 1505 1892 1795 2015 1082 1658 
833 2317 1902 2143 1202 1898 2002 2040 1250 
1690 1789 1569 2037 1680 996 1921 1677 1769 
1064 1609 2209 1504 2375 1681 2044 1423 571 
751 2024 1262 1960 2203 2043 2584 2009 2270 
2471 1255 2084 1918 2223 2348 2275 2599 754 
1079 1712 1613 1441 1410 1938 93 704 2333 
2679 683 504 12 1572 1105 1666 1026 594 
470 746 1442 1009 1745 1297 1753 2219 1755 
1596 1825 158 1418 1804 2532 2236 1027 1081 
981 1322 1592 245 2343 44 78 1236 1471 
1766 1045 881 1671 1637 362 2389 963 2022 
1016 2366 2118 1611 840 1667 800 1122 1420 
1300 1051 283 2105 2265 1391 1942 1605 651 
1643 1723 1729 1102 1908 967 1400 1814 1268 
2012 1774 2465 1545 1279 2029 1324 1595 1484 
312 2360 1201 2133 2661 3143 1463 1402 1552 
1220 1049 599 1310 1682 888 2281 79 220 
1263 232 1508 157 2152 2500 878 1602 1943 
77 1951 1187 743 1176 954 1455 2045 1464 
718 941 1100 1854 1978 2063 2274 1813 1500 
980 24 447 180 596 1446 938 1182 1511 
672 575 39 1272 1499 1687 1901 1578 893 
748 1850 1598 1223 162 45 1645 1798 1887 
1424 2391 1462 1395 2591 1603 2328 701 514 
1267 2167 2296 2273 1527 1877 1293 1361 621 
1008 1370 1413 2032 1518 2373 593 932 2035 
1076 1120 1199 1229 854 1343 2021 1454 1127 
1844 923 264 901 2016 1522 1952 2053 770 
1933 1328 414 615 1054 1852 1868 2411 2140 
1351 3117 1530 1265 816 489 1033 1567 1303 
799 2441 259 2325 2374 2384 1314 2426 1957 
1327 1438 2354 2100 2551 2631 1332 1532 1429 
1192 1632 1029 1797 1693 536 2475 1711 181 
2523 1218 1304 849 1525 1534 430 1246 1528 
1648 1724 2262 950 583 2197 1034 1541 1329 
506 1432 246 482 1012 1099 2190 386 1126 
1599 631 1554 1490 655 1653 1700 1519 562 
2126 1719 2073 1510 1478 110 756 695 1389 
1818 1271 1260 1718 1014 279 1106 1783 1497 
1162 229 2142 1173 1475 1226 1299 476 1195 
1581 611 823 1621 2574 233 636 1896 2528 
2940 2530 2705 438 1762 1862 1907 1738 1426 
1215 2266 811 1188 663 656 676 478 687 
412 387 863 940 1835 2454 924 903 417 
895 540 1136 1167 194 1916 518 853 1514 
1538 933 546 910 1888 1146 1186 2256 729 
15 1481 160 1010 1028 1807 1749 1308 1535 
1969 1970 413 806 1516 1005 1325 1579 2862 
2403 1390 1317 2458 2336 2444 2605 2617 2134 
2848 1743 2891 2353 1277 2677 2101 2772 3137 
2698 1594 497 2192 2347 2681 2684 2206 2378 
2809 2457 2513 3471 2867 1787 2380 2394 3492 
1890 2122 2460 2479 2752 2586 3397 1668 2580 
1849 868 2412 1917 2971 2598 2069 2567 2556 
2293 2119 2435 2644 1695 2112 1367 1498 2604 
2596 3424 3011 2495 1998 2782 741 2614 2894 
2992 2823 3016 3079 2065 3227 2247 2085 2074 
1788 2494 3073 2125 2856 2648 2449 2547 2969 
2741 3003 3213 2487 2232 968 1995 843 1555 
1928 3077 2740 2322 2785 509 473 774 525 
1630 3534 190 2810 3549 679 1152 876 2329 
2481 3893 2658 3025 3520 2477 2877 2994 2700 
2967 2721 2200 3195 2538 3119 3154 2485 2925 
2320 2652 2831 2557 3224 1889 3358 2818 2892 
3105 2791 2168 2594 2792 3196 3422 2668 2413 
2627 3280 2783 2682 2489 2287 1209 2638 2260 
2055 2010 2198 2230 765 2939 3564 3392 1895 
2001 1517 1982 2128 2115 1639 1313 1251 2542 
3033 1663 1853 3027 2147 604 2703 2602 2930 
1962 1633 1939 2626 2438 2612 1650 2536 1088 
2585 1716 1948 3229 2387 2670 1574 2802 3265 
2127 2963 2493 2428 2212 2578 3231 2936 3462 
3085 2801 2607 2917 2473 2847 2662 3100 2680 
3181 2562 2466 2564 1675 3507 2919 3355 3167 
2873 2368 2734 2637 2131 2733 3341 3014 2926 
3120 2689 2595 953 2199 2225 2730 3286 3207 
4041 2625 2624 2575 1966 3346 2231 3268 2461 
3021 2429 1965 2609 3030 2450 2927 2189 2550 
2355 1382 2640 2431 2211 2672 3035 2080 3295 
1686 2770 2531 2587 2108 3084 3006 2953 2358 
1914 1098 2261 2339 1154 2222 1934 2338 1945 
2410 2606 2510 2432 3336 3344 2667 2757 3066 
2363 2145 2620 1746 2774 2425 3251 1800 3001 
3139 2018 2228 1866 2981 3042 3386 2576 2769 
2430 2934 3283 2723 2913 2834 2674 3090 3247 
1416 2886 3178 2288 837 2234 3242 2819 3000 
3043 2381 2697 2566 2520 3086 2827 2191 2464 
3250 2649 3205 3437 2357 3004 2011 2956 2268 
3081 2286 2316 2693 3390 2524 3172 2949 2786 
2767 3371 3131 2437 2951 2982 1767 3192 2054 
2107 2419 2896 3472 3478 2503 1331 1751 1905 
1828 2227 2245 2020 2732 2750 2335 1872 1757 
3353 2636 2512 2104 2059 2490 2611 2990 2469 
2099 1833 1710 2561 3473 2181 2881 2761 1784 
2724 2899 2318 3074 2970 3158 2685 3151 3076 
2907 2559 2790 2307 2388 2472 3133 2984 2890 
2300 2942 2179 2183 2422 3091 3325 3735 2138 
2937 2433 2533 2935 2645 2269 3222 3833 3467 
3060 3326 1740 3096 2976 3109 2416 1285 2712 
2601 1737 2088 2066 1999 1848 2165 3606 2007 
2397 1566 1411 2855 2162 2379 2156 3012 1352 
2456 3297 3784 1610 2202 3103 2251 563 1721 
1832 639 2959 1461 2613 2738 2263 2663 1768 
1722 2863 1782 2974 2071 2385 1959 2687 2446 
1878 1703 3062 2744 2932 2851 2314 2669 3083 
2548 2522 2271 2759 2938 2208 2735 1865 3365 
3140 3370 3302 3097 3314 3164 2921 3441 3499 
2898 2840 2492 3487 3056 2876 3352 3047 2178 
3445 2728 2808 2185 3018 3187 2706 3664 2581 
2630 3601 2829 2742 2714 2671 3332 3331 2046 
1758 1882 2278 1132 1646 226 2342 1985 2813 
2312 1983 2866 947 2755 2369 2964 1708 2666 
2910 1296 1315 2488 2861 1289 1568 2654 3136 
1114 1249 2420 1563 1949 1374 1799 1612 2013 
2184 1884 2905 1614 2900 1531 1816 3201 3005 
1944 1037 3169 2696 2057 3157 2076 2987 2577 
2139 1986 2141 1460 2865 3142 2349 3214 3276 
2204 3350 1553 1989 3123 2090 3198 3357 3622 
2833 3528 2160 3024 2902 2445 2124 2889 2508 
3190 3054 2718 3200 2541 2885 2678 3171 1415 
3500 2509 3253 2839 2725 2031 2845 1987 2525 
1702 2279 3215 2534 2903 2817 2370 1830 2436 
1669 2280 1487 2518 2304 1754 2653 2217 2704 
2517 2857 2163 267 2392 2129 1259 569 2560 
3045 2875 2778 1225 2302 1385 2807 2249 2383 
2095 3240 2924 2164 2295 3177 1923 2341 2006 
3068 2928 1018 2766 2986 2701 2756 1973 2144 
2516 2973 2545 1556 2610 1858 2345 3134 3255 
2991 1618 2985 2798 3145 2826 3197 2929 2683 
2816 2221 3168 2359 2634 2901 2572 690 3376 
2619 2455 2713 2660 2177 2568 1615 2952 3031 
2544 3099 2707 2592 2238 2961 2440 2656 2879 
2911 3106 2915 2153 2960 3218 1910 1638 2629 
1526 1829 1819 2776 2331 2633 2290 1855 2768 
2659 2447 2398 1642 242 305 2258 2501 2052 
2400 1913 1805 1689 3023 2895 2583 2404 792 
1991 2462 2852 2593 1932 2781 2828 431 3431 
2306 1843 2795 2120 2641 1662 2622 2294 2570 
2484 3095 766 2241 2765 2972 2657 2151 2546 
3070 2515 2497 1904 3256 2315 2955 2048 2364 
2830 2588 2210 2737 2618 3028 2396 3163 2424 
1821 2996 3082 2511 1750 3101 1961 3058 2182 
2999 2751 2352 1831 2235 1851 1679 2116 3107 
2103 1791 3512 2535 2519 1906 1941 2161 2794 
1673 1121 1520 1399 2764 2064 2799 2077 3396 
1627 2869 1388 2299 2395 2527 2589 2283 2289 
2825 3430 2665 3052 2695 3226 3625 3409 3017 
2111 2405 3138 3795 3840 3451 3475 3449 3329 
3363 3794 2451 2639 3464 3223 2216 2787 3191 
3941 4017 3124 3269 3453 3098 2749 3315 2019 
4083 3208 3298 2746 3104 2906 2838 2474 2186 
3067 3509 2846 1664 2882 3132 2811 3122 3361 
3116 3259 3029 3009 3861 3663 3555 3349 2323 
3953 2850 3372 3493 3465 2920 2506 3382 3591 
2711 2775 3379 2418 3032 3421 2569 2135 3008 
3618 3039 3416 3754 2159 2483 3607 3628 3830 
3456 3973 3539 3360 2558 1509 2402 3778 3401 
4025 3684 3598 2871 3634 2859 3202 2590 3760 
3516 3130 3717 3508 3277 2815 3270 1042 3920 
3237 4021 3225 3435 3994 2014 2747 4219 3026 
3219 3147 3553 3019 3732 3057 3102 3580 3381 
3666 3459 3702 1806 3113 3905 3007 2988 3152 
3407 3796 3763 3569 1433 2918 3121 3524 3199 
3447 3144 3182 3345 2282 3088 3800 3319 3825 
3637 3385 3044 3728 3429 3180 3587 3271 2367 
3217 3203 3284 3860 3175 2800 3160 2301 2621 
3914 3075 3013 2843 1041 3688 3375 2912 1707 
3682 1659 3672 1837 2933 3069 3048 3115 2762 
2552 2836 3470 3565 3645 4009 3092 3272 3716 
2702 3211 3354 3348 3498 3556 3267 3718 3428 
3221 3050 3460 3417 3078 2853 3740 3756 3412 
2864 4267 3785 3114 3496 2401 3053 3801 3188 
2916 3586 2874 3550 3692 3055 2943 2582 2688 
3957 3548 2822 1437 2715 2837 2998 3342 3709 
2310 2623 3874 2603 3359 3446 3110 3254 3939 
3128 3293 3065 3641 3402 2233 2442 3636 3884 
3072 3823 2966 3504 3838 3831 3148 3234 4008 
3281 3633 3194 4027 3294 3589 2565 3891 2777 
3887 3616 3179 2878 3824 3330 3080 3629 3558 
3650 3161 2169 2365 3469 3494 3260 2958 3296 
3515 3127 3394 1946 2780 2453 1587 2486 2337 
3662 2691 2870 3184 3600 3210 3366 3020 3915 
2965 2748 3153 3193 2945 2717 3468 3111 3318 
3989 3261 3015 2914 3258 3301 3320 2305 3490 
3378 3712 3912 3541 3174 4129 3560 3612 3722 
2415 3603 2922 2753 1644 3502 3282 3632 3852 
2406 3518 3593 2860 2754 3220 2229 1394 3481 
2796 3681 3765 3022 3246 3305 3189 3546 3093 
3162 2686 2977 3406 3599 3501 2993 3895 2983 
3034 3248 3037 3061 2979 3173 3299 3112 3571 
3156 3278 3170 3966 3380 2858 3535 3150 3991 
3739 3440 1717 3239 2806 2978 3674 2908 3263 
3452 3317 3567 3413 2793 3529 3649 3758 2709 
2334 2555 3753 3238 2257 2739 2758 3185 2136 
2505 3087 3579 2242 3089 3399 2944 3262 2642 
3934 1803 3094 3433 3398 3146 3897 3806 2729 
2821 2311 3334 2760 4097 3400 2868 3489 3135 
3958 2947 3537 3339 3705 2832 3646 3786 2841 
3510 3275 3755 2690 2805 2692 2975 3327 3859 
2521 2324 3488 2220 2842 2393 2923 3436 3466 
2844 3545 3595 1958 2579 3427 3209 2655 3514 
3340 3322 3288 3540 3809 3868 3843 3551 2117 
2962 3038 3675 3266 3457 2467 3811 3051 3480 
2646 3597 2849 3526 2980 3206 3491 3420 3126 
2067 2731 2635 3747 2081 2950 3530 2543 2789 
2676 2797 2814 3614 2708 2880 521 3805 2726 
2720 2788 4043 3367 3810 3405 2514 3647 3411 
3615 3816 2549 2941 3291 2699 3536 2803 3252 
3347 3374 3769 3902 3418 3748 3458 3439 4272 
2997 3933 3655 3639 3812 3981 3497 2804 3708 
3733 3141 3839 3129 3351 3506 3577 3216 3653 
3964 3781 3313 3212 3807 4000 3063 3899 4018 
2931 2763 2303 3183 3337 3770 3724 3403 3461 
3454 3059 3923 3324 3373 3872 3387 3881 3438 
4125 3970 3676 3978 3233 3940 3568 3513 3927 
3931 4038 3523 3547 3869 3149 3228 3723 3727 
3538 2443 3826 4210 3710 3204 3236 3289 3423 
4318 3617 3419 3635 3377 3783 3484 3125 3274 
3832 3627 3694 3774 3738 3306 3948 2427 3846 
3415 2872 3230 4457 3835 2954 3328 3388 3669 
3559 3479 3393 3544 2356 3257 3917 3575 3573 
3924 3343 3790 3956 3592 3482 3638 3836 3803 
2386 3486 3817 3368 2722 3585 3797 3768 3743 
3588 3613 3698 3631 2727 2989 3384 3521 3533 
3609 3118 3777 3677 4287 3916 3851 3323 2350 
3362 3870 3910 3292 3046 3685 4341 3410 3165 
3813 2218 3691 3064 3898 3845 3876 3159 4090 
3333 3604 2615 4078 2784 4107 3855 2650 2719 
3746 3624 3279 3041 3667 3583 3249 3036 3719 
2027 3678 3442 3307 3686 3002 3909 2904 4230 
2893 3312 3232 2888 2957 3857 3689 3432 3071 
2897 3408 2600 3290 3444 2835 3950 3383 3815 
4135 3450 2499 3779 1964 2946 4082 4001 3364 
3904 3245 3700 3967 2884 3310 3321 3552 3040 
3476 3661 4264 3578 3304 3581 3643 4268 3889 
2463 3517 3762 3463 3186 3316 3369 3930 2079 
3730 3828 3736 2771 4073 4006 4128 3729 3311 
3443 3751 3819 3944 3532 3576 3670 3620 3742 
3657 3942 3414 4102 3611 3714 3285 2150 3235 
4310 3176 3959 3799 3977 3879 3703 3608 4192 
3764 3871 3448 2694 4004 3335 4347 4062 3485 
3474 3527 3720 3926 3875 3503 3793 3010 3731 
3273 3561 3511 3858 4178 3679 3847 3404 3602 
4055 3287 3531 3788 3997 3563 4134 3971 3744 
3726 3693 3570 3477 3962 3495 3338 3505 4113 
3300 3610 3707 3704 2887 3389 3543 3906 2526 
3243 3644 3582 4337 3594 3979 2854 2995 3356 
3166 3996 4190 3946 2193 4164 3566 3596 3856 
4042 3798 4074 3574 3621 3455 3922 3308 3804 
4028 4195 3673 3572 3776 3391 4220 3706 3309 
3554 3630 4047 4081 3651 4005 3745 3425 3782 
3854 4351 4148 4019 4170 4154 3434 4171 4158 
3986 3519 4099 3619 3903 2820 4336 3945 3949 
3671 4029 3725 3605 4039 4241 3767 4060 4015 
3690 3789 4016 3648 3841 3642 4359 4051 4046 
3713 3992 3522 3984 3911 3701 3866 3974 4070 
4251 4184 4105 4011 3590 3426 4229 4116 3623 
4052 4153 3955 3750 3894 4067 4413 3640 4166 
4438 4246 3542 3919 3850 4014 4307 3665 3822 
3976 4072 4256 4179 4033 4437 4340 3752 4196 
3773 4209 4235 3987 4284 4370 3834 3737 4297 
3711 4208 4376 3659 3697 3658 3880 4204 3937 
3821 4288 3721 4176 3892 3654 3963 4140 4063 
3883 4365 4405 4237 4216 4478 3867 4103 3864 
4036 4088 4002 4076 4040 4110 3853 4276 4031 
4270 4386 3921 3749 3562 3865 3584 4131 3882 
4540 4384 3995 4383 4400 4049 4328 4193 3771 
4254 4412 4434 4295 3652 3999 4282 4332 2968 
4392 4410 4003 3687 4285 3761 4539 3483 3827 
4303 4494 3820 3741 4708 3683 4022 3626 4226 
3918 3734 4418 4139 4075 4485 3980 4490 3998 
4147 3929 4115 3780 4165 4484 4156 4133 3863 
4595 3972 4160 4417 3849 4261 3842 4255 4023 
4427 4141 4163 4511 4443 4498 4545 4382 4183 
3969 4132 4519 3696 4395 4273 4205 4314 3759 
3908 4796 3907 3968 3975 3901 4149 4633 3699 
3928 4659 4167 4096 4355 4173 3680 3656 3896 
3952 4030 4324 3775 4293 3715 3660 4247 3943 
4187 4174 4112 3772 4274 3844 3965 4521 4315 