# vtk DataFile Version 4.2
Generated by LIGGGHTS
ASCII
DATASET POLYDATA
POINTS 6000 float
-0.0217319 -0.0392452 0.0142825 -0.024668 -0.0376079 0.016496 -0.0216043 -0.0394479 0.0182922 
-0.018024 -0.0412332 0.0147689 -0.0135812 -0.0389756 0.014229 -0.0157833 -0.0381983 0.0174849 
-0.0147751 -0.042411 0.0167894 -0.018045 -0.0412149 0.0188196 -0.0178564 -0.0373047 0.0140473 
-0.0120476 -0.0432427 0.013983 -0.00623409 -0.0445702 0.0139407 -0.00969476 -0.0399134 0.0138843 
-0.00590854 -0.0407045 0.0149158 -0.00914816 -0.0440333 0.0166287 -0.0113984 -0.0403857 0.0175375 
-0.00790397 -0.0376117 0.0167704 -0.0078266 -0.0411985 0.0191811 -0.00543624 -0.0445897 0.0182736 
-0.00449792 -0.039113 0.0183937 -0.00225115 -0.0449145 0.0137297 8.92328e-05 -0.0416547 0.0137931 
0.00127304 -0.0449549 0.0157623 -0.00262403 -0.0422118 0.0166824 -0.000918744 -0.0386218 0.016221 
0.00191859 -0.0411451 0.0174756 -0.000999495 -0.0449673 0.0190872 0.0040056 -0.0407989 0.0138697 
0.00474626 -0.0447305 0.0137787 0.00592524 -0.037287 0.0137991 0.00896758 -0.0439489 0.0141478 
0.00631124 -0.0443929 0.0174603 0.00629296 -0.0403636 0.0171234 0.0102152 -0.0403071 0.0160777 
0.0102419 -0.0438109 0.0180488 0.0128587 -0.0430265 0.0137735 0.0133631 -0.0390614 0.0138894 
0.017149 -0.0375767 0.014161 0.0203593 -0.0400955 0.0136872 0.016626 -0.0415915 0.013633 
0.0140048 -0.0422656 0.0176155 0.0144189 -0.0374639 0.0174892 0.0178878 -0.0412785 0.0174321 
0.0181839 -0.0372638 0.0189337 0.0216984 -0.03926 0.017385 0.0244455 -0.0376758 0.0149262 
-0.0316807 -0.0319373 0.0138588 -0.0293822 -0.0340145 0.0164514 -0.033896 -0.0295102 0.0161658 
-0.0298929 -0.0292792 0.0162608 -0.0317923 -0.0318272 0.0187762 -0.0221707 -0.0313761 0.013968 
-0.0271077 -0.0358968 0.013749 -0.0227615 -0.0353355 0.0138079 -0.0267396 -0.0297283 0.0138398 
-0.0253157 -0.0329963 0.0158605 -0.0275355 -0.0312979 0.0187833 -0.0228589 -0.033596 0.0190867 
-0.0245411 -0.0291979 0.0171522 -0.0270827 -0.0359213 0.019203 -0.0186848 -0.0333696 0.0139485 
-0.0158532 -0.0305211 0.0138361 -0.0144501 -0.035052 0.0141002 -0.0201803 -0.0356357 0.0169081 
-0.0199491 -0.031509 0.0172987 -0.0154112 -0.031623 0.0176695 -0.00501904 -0.0369259 0.0139486 
-0.0114966 -0.0312451 0.0141073 -0.00750599 -0.0305135 0.0138865 -0.00959599 -0.0350981 0.0141369 
-0.0120347 -0.0339483 0.0170934 -0.00671849 -0.0334848 0.016492 -0.00369434 -0.0326821 0.0138438 
0.00226138 -0.0332125 0.0141024 0.000867324 -0.0294353 0.0143627 -0.00255916 -0.0298162 0.0164019 
0.00274271 -0.0369933 0.0162033 -0.00310072 -0.035386 0.0171081 -5.78848e-05 -0.0327928 0.0173566 
0.0038333 -0.0338842 0.0184747 0.00990572 -0.0368945 0.0138288 0.00986288 -0.0328953 0.0138734 
0.00512254 -0.0298336 0.0138719 0.00612314 -0.0334825 0.0151695 0.0084487 -0.0307048 0.01722 
0.0112894 -0.0349617 0.0170504 0.00727832 -0.0365078 0.0175257 0.00478979 -0.0299943 0.0186814 
0.0139798 -0.0350995 0.0140348 0.0171668 -0.031465 0.0137786 0.0130949 -0.0315709 0.0159057 
0.0168544 -0.0342077 0.0166826 0.018904 -0.0302892 0.0172715 0.0151576 -0.0291954 0.0183818 
0.0212337 -0.0300436 0.0138829 0.020907 -0.0360896 0.013826 0.0237866 -0.033224 0.0138156 
0.028095 -0.0311083 0.01366 0.0209799 -0.0337586 0.0170876 0.0275188 -0.0352365 0.0137564 
0.0249193 -0.0341864 0.0177178 0.0271706 -0.0307667 0.0177481 0.0322271 -0.0311729 0.0139285 
0.0299577 -0.0334778 0.016516 0.0343165 -0.0289705 0.0186141 -0.0399702 -0.0206698 0.0140498 
-0.0380665 -0.0239284 0.015375 -0.031284 -0.0263203 0.0139274 -0.0346207 -0.0224037 0.0139049 
-0.0353166 -0.0264467 0.013824 -0.0310673 -0.0228933 0.015995 -0.0362348 -0.0266562 0.0177125 
-0.0322511 -0.0262821 0.0181438 -0.0346055 -0.023006 0.0178601 -0.0227691 -0.0274149 0.0139947 
-0.0214658 -0.021557 0.0137644 -0.027712 -0.0242254 0.0141017 -0.0254131 -0.0209306 0.0140439 
-0.0237013 -0.0240527 0.0159534 -0.0268933 -0.0224757 0.017794 -0.0211272 -0.0271698 0.0177012 
-0.0274134 -0.0264542 0.0176277 -0.0226743 -0.0208127 0.0180789 -0.0176696 -0.0239341 0.0138029 
-0.0137021 -0.023267 0.0137552 -0.0175284 -0.0274848 0.0159745 -0.0135979 -0.0281872 0.0162122 
-0.0197899 -0.0234297 0.0171592 -0.0151855 -0.0244804 0.0173106 -0.0160088 -0.0206732 0.0183234 
-0.010936 -0.0261744 0.0139876 -0.00535232 -0.0272506 0.0148062 -0.010115 -0.0214112 0.0138738 
-0.00787262 -0.0242322 0.015674 -0.00968644 -0.0287944 0.0168079 -0.0112808 -0.0250655 0.0180527 
-0.00961488 -0.02142 0.0179972 -0.00587022 -0.022473 0.018951 -0.00760196 -0.0262616 0.0191196 
-0.00434884 -0.0234622 0.0139154 -0.000327535 -0.0255963 0.0140935 0.00321574 -0.0235575 0.0142928 
0.000173951 -0.020965 0.0140051 -0.00258365 -0.0214058 0.016927 -0.00276848 -0.0253988 0.0172692 
0.000324972 -0.028049 0.0186119 0.00102951 -0.0242153 0.0177075 0.00346104 -0.0270666 0.0162764 
0.00318575 -0.0208723 0.0172877 0.009133 -0.0288278 0.013727 0.00646849 -0.0258411 0.0138005 
0.00692239 -0.0217819 0.0138853 0.0108642 -0.0247895 0.0138343 0.00866061 -0.0252405 0.0171761 
0.00505764 -0.0241565 0.0186072 0.00777488 -0.0213221 0.0177739 0.0117851 -0.0277511 0.016588 
0.012064 -0.0231099 0.0172998 0.0109807 -0.0206155 0.0143508 0.014767 -0.0282371 0.0139399 
0.0148283 -0.0242412 0.0142618 0.0183943 -0.0213906 0.0140437 0.0179513 -0.0264036 0.0157514 
0.0159226 -0.0238001 0.0181102 0.0198175 -0.0229424 0.0175425 0.0210331 -0.0246514 0.0138609 
0.0224898 -0.0208252 0.0138196 0.025059 -0.0240734 0.0142859 0.0252549 -0.0280129 0.0149726 
0.0217148 -0.0271889 0.0169266 0.0238014 -0.0224329 0.0178096 0.0283784 -0.0227362 0.0178847 
0.0252457 -0.0261825 0.0185361 0.0349636 -0.0281058 0.013807 0.033667 -0.0226397 0.01381 
0.0300049 -0.0274785 0.0136009 0.0295968 -0.023467 0.0140959 0.032689 -0.0257862 0.0161413 
0.0293751 -0.0270305 0.01808 0.0367413 -0.0258544 0.01751 0.0324509 -0.0230238 0.0190408 
0.0372443 -0.0246515 0.0135861 0.0392452 -0.0218412 0.0156692 -0.0409955 -0.0168059 0.0138904 
-0.0374955 -0.0148045 0.0138922 -0.0424609 -0.0148104 0.0170598 -0.0410105 -0.0185109 0.0175364 
-0.0384506 -0.0154449 0.0177616 -0.0373385 -0.0200976 0.0175696 -0.0432067 -0.0124944 0.0138813 
-0.0320871 -0.0155794 0.0141347 -0.0364419 -0.0187855 0.0138433 -0.0292908 -0.0199432 0.0139484 
-0.0328784 -0.0192141 0.0156113 -0.0347947 -0.0138678 0.0167307 -0.0297557 -0.0196972 0.0180842 
-0.0318626 -0.0162382 0.0180874 -0.0289626 -0.0129897 0.013833 -0.026594 -0.0169698 0.0139619 
-0.0249682 -0.0133049 0.0139593 -0.0229146 -0.0179867 0.0152246 -0.0281494 -0.015059 0.017165 
-0.0259419 -0.0185205 0.0177967 -0.0241652 -0.0149478 0.0175192 -0.0210659 -0.016904 0.019129 
-0.0195405 -0.0162349 0.0139133 -0.0163039 -0.0201702 0.0138342 -0.0154812 -0.0162658 0.0142094 
-0.0204676 -0.0136027 0.0167863 -0.0193023 -0.0194667 0.0164008 -0.0172683 -0.0164051 0.0179779 
-0.014049 -0.0140275 0.0178069 -0.0129502 -0.0191035 0.0159174 -0.0127022 -0.0133889 0.0140624 
-0.00958678 -0.0173871 0.0141108 -0.00672245 -0.0201193 0.0155561 -0.00928266 -0.0139096 0.0161004 
-0.00601036 -0.0164101 0.0168771 -0.0100794 -0.0173172 0.0181341 -0.0033554 -0.0190001 0.0137102 
-0.00344925 -0.0149231 0.0139567 9.33115e-05 -0.0169574 0.0137303 0.0014554 -0.0131901 0.0138241 
-0.00204215 -0.0162914 0.0175937 0.0019767 -0.0165507 0.0174942 0.00022434 -0.0133481 0.0191341 
0.00365693 -0.0188037 0.0138894 0.00370279 -0.0129459 0.0171974 -0.00379919 -0.0124832 0.0171149 
0.00520131 -0.0151011 0.0141015 0.00808081 -0.0178756 0.0139226 0.0114186 -0.0156165 0.0139871 
0.00849211 -0.0128339 0.0138431 0.00576417 -0.017816 0.0171964 0.0074905 -0.0142091 0.0174666 
0.00974611 -0.0176072 0.0178006 0.0111155 -0.0125825 0.017916 0.0185444 -0.0132258 0.013709 
0.0155659 -0.0169293 0.0139094 0.019539 -0.0175488 0.0141248 0.014801 -0.0204744 0.0156058 
0.0146954 -0.0130822 0.0148675 0.0134034 -0.015929 0.017453 0.0181326 -0.0192618 0.0174575 
0.0173227 -0.0151535 0.0170658 0.0129686 -0.0196412 0.0190741 0.0265384 -0.0203577 0.0141533 
0.0233476 -0.0163641 0.0137175 0.0256496 -0.013044 0.0139346 0.02777 -0.0164232 0.0144454 
0.0212336 -0.0142221 0.016557 0.022259 -0.0184521 0.0170371 0.0250082 -0.0155055 0.0173681 
0.0262655 -0.0192788 0.0181028 0.0283748 -0.0133085 0.0168823 0.036446 -0.0197511 0.0136597 
0.030873 -0.0196618 0.0145649 0.0312878 -0.0135976 0.0138018 0.0337475 -0.0167901 0.013692 
0.0341025 -0.0200008 0.0169607 0.0348767 -0.0134414 0.0156563 0.0310437 -0.0163039 0.0167435 
0.0382517 -0.0153453 0.0136848 0.0423778 -0.0149946 0.0140874 0.0406874 -0.0186559 0.0137053 
0.037238 -0.017453 0.0169872 0.0387789 -0.0130616 0.0169796 0.0407741 -0.0190045 0.0180974 
0.0428623 -0.0133781 0.0177448 -0.0425778 -0.00850488 0.0137984 -0.0405072 -0.00475828 0.0141137 
-0.0391058 -0.00816091 0.015758 -0.0397576 -0.012109 0.0158777 -0.0444667 -0.00664097 0.0168799 
-0.0437253 -0.0105675 0.0173597 -0.0409458 -0.00612585 0.0187068 -0.0366174 -0.0107037 0.0138187 
-0.0327219 -0.011621 0.0137932 -0.0352698 -0.00691873 0.0140822 -0.03061 -0.00806337 0.013828 
-0.0361988 -0.00669606 0.0180817 -0.0331235 -0.00892838 0.0168157 -0.0303984 -0.0060364 0.0173115 
-0.0311496 -0.0123573 0.017436 -0.0367622 -0.0106607 0.0181005 -0.0264122 -0.00536825 0.0139475 
-0.0268498 -0.00954961 0.0138473 -0.0217993 -0.0108647 0.014046 -0.0219828 -0.00667543 0.0142363 
-0.0265224 -0.00530726 0.0179744 -0.0243982 -0.00852424 0.0168435 -0.0273225 -0.0111621 0.0175399 
-0.0213995 -0.00626197 0.0182155 -0.0212724 -0.0102729 0.0190774 -0.0174325 -0.0119835 0.0143635 
-0.0165099 -0.0064046 0.014089 -0.0190807 -0.00875802 0.0160875 -0.01435 -0.0063008 0.0174728 
-0.0174106 -0.0116061 0.01842 -0.014278 -0.0103292 0.0162867 -0.0126856 -0.00757018 0.0138625 
-0.00994134 -0.0104658 0.0141653 -0.00626921 -0.0120776 0.0139935 -0.00697844 -0.00778224 0.0138922 
-0.00912902 -0.00579808 0.0166457 -0.00762767 -0.00989837 0.0174063 -0.011232 -0.00853512 0.0186669 
-0.00557712 -0.00436475 0.0154809 -0.00301859 -0.00722115 0.0137715 -0.00197762 -0.0111367 0.013805 
[...]
POINT_DATA 6000
FIELD FieldData 7
id 1 6000 int
5943 3922 5260 5639 3387 6027 5904 5759 3421 
5932 4682 4744 5545 2984 5081 4703 2878 3326 
4896 2569 4465 1659 1128 34 4206 5227 4737 
5093 3324 2066 2014 3714 302 5949 3335 1154 
1874 3479 2609 5672 5423 4782 2037 6010 5740 
5739 1333 5573 3586 4373 3702 6059 313 3313 
3212 4752 5768 4209 4411 4456 5529 3984 4775 
4106 5977 4439 3032 18 3039 4928 2261 3120 
1891 1088 2148 4123 374 5014 361 2536 5322 
2310 5962 3373 4359 5325 5915 1650 403 2222 
3954 5680 3957 3040 5730 1397 4610 2453 4412 
3709 4013 2666 1098 3022 5346 6037 5052 4006 
143 473 2427 5663 4321 5318 774 1152 6043 
5229 5794 4939 5875 3576 5856 2623 3006 5728 
3216 5059 985 1123 2020 747 5303 5701 5255 
4888 5711 4954 1013 4405 1539 2358 3075 3692 
5281 5348 1939 241 2612 426 209 1767 3375 
628 1955 2843 1352 1607 1347 1236 2114 3753 
609 3459 2768 78 2251 2905 1721 2420 1563 
3260 2227 4867 2136 3359 1687 2922 2257 2650 
2013 2560 5420 525 3521 3882 4484 5297 4853 
4649 5363 679 5929 4128 3892 3710 3 4088 
3558 3923 5097 4719 4553 4267 5304 4570 3549 
6053 5852 126 2135 4689 396 2626 350 3933 
5936 178 654 1354 5586 1584 3311 938 1184 
1129 477 81 1600 664 1576 408 1631 1045 
1730 1221 208 576 1698 1228 2704 1886 1885 
639 2754 2331 496 2857 4139 997 2517 3758 
3071 1305 5040 2392 4032 3010 44 4810 4837 
181 3585 4789 4616 5524 1612 3101 4388 2122 
3455 4365 5684 3382 471 4026 5402 4249 3416 
5217 5106 710 1962 5691 5298 3961 5451 4284 
988 5695 5557 528 4892 2339 5500 606 706 
1145 738 2329 1630 257 274 5181 3913 248 
1189 432 1732 1372 440 1512 1930 1472 383 
582 341 1637 1632 338 886 575 1446 2555 
2659 3045 4191 2654 1711 245 5135 459 2709 
2844 2961 2633 267 1374 5090 3900 2629 4883 
3793 4592 5583 4668 2290 4188 3017 2731 4678 
3530 4450 175 4371 4074 1546 3471 1691 2586 
3208 1903 1715 2206 1449 4060 4362 3534 1741 
268 4087 3968 38 49 5265 720 5846 4080 
4202 3791 3008 251 364 165 5224 2810 435 
2775 329 118 247 858 758 1440 694 522 
2 98 616 214 864 164 301 565 659 
217 1046 1362 381 1272 91 275 173 641 
211 3595 2915 797 1182 551 3851 2600 2911 
3245 1855 399 1526 2081 5664 5084 3408 1195 
5495 4391 3166 1907 4392 3466 160 3432 4948 
4258 1961 3552 2950 4138 3988 2418 1376 4600 
537 117 4569 252 1371 62 4777 3938 1093 
63 316 552 402 502 935 870 550 3453 
789 1307 660 2867 377 1011 170 145 2109 
507 640 1108 1171 153 812 444 368 508 
266 513 306 890 1066 867 538 1000 390 
560 2879 851 61 983 490 200 1168 1749 
1325 2403 572 2182 1792 1969 2325 5815 258 
3665 2077 620 2523 3028 2543 3747 6006 4591 
4513 1306 3409 3082 3545 60 2111 3369 2515 
4667 2940 4791 638 1078 292 421 1445 2113 
1240 3098 2327 2094 48 2863 1523 234 2990 
1790 529 1628 30 468 397 906 330 678 
517 441 857 1534 171 45 1458 1218 1180 
590 840 1267 1709 1177 136 1850 849 311 
1645 420 1246 100 1070 1913 1378 133 795 
853 1320 1490 279 766 663 1514 2161 194 
1069 940 127 31 456 4245 3396 2151 4690 
1136 40 4176 4307 2289 1627 4573 15 3226 
189 4381 229 417 2514 5982 2699 1308 2510 
1934 1060 427 2452 1419 107 1606 2636 88 
1770 762 1424 2366 647 1039 1426 1570 680 
236 3068 1525 1421 952 1300 2778 1304 900 
3662 2583 1642 656 1887 1923 1215 1034 2501 
418 1816 1798 2345 2262 2400 4264 1689 1399 
687 1164 1724 863 2117 2341 2519 1679 2256 
3463 3038 927 387 2283 1535 1211 5742 601 
1520 3963 1807 3566 1047 2869 5896 5367 5272 
4480 5430 546 3327 1757 1311 2326 2097 549 
1269 2385 3399 893 3093 3162 1944 2071 2900 
2383 3600 887 1037 2311 55 5185 1528 3189 
92 242 1805 950 2987 1673 993 2895 3023 
2120 4965 3809 3868 3514 2852 2352 895 13 
478 2751 2235 6021 2064 3919 1791 5743 4082 
3762 299 357 4019 910 2116 1906 819 1146 
5296 5180 3889 3998 4360 5184 1121 483 1713 
1648 3005 3087 3427 2266 1614 3322 1225 412 
1024 2797 3089 2655 4748 2789 2676 2249 2462 
2103 6063 5819 4158 3512 3805 2593 2258 4474 
2454 2794 5868 4164 540 2799 2708 903 367 
5032 3367 1851 637 2962 5302 4501 6017 5724 
4315 3616 2645 5213 1396 5416 5685 4361 5827 
6014 5662 3568 1680 3306 4984 932 4000 4312 
5005 5156 3325 4297 4986 3974 3054 3986 2522 
4586 5481 5592 4534 5085 1540 4322 3737 5385 
2886 5514 1558 5605 4422 5364 2864 3948 4357 
5732 3285 5358 5202 5804 5424 6040 5073 5828 
4919 4464 4103 4471 4582 5823 6029 5822 3833 
4969 2625 5186 3847 1020 3180 3281 3731 1837 
5584 5167 5055 5957 3587 5328 4809 1417 2078 
6023 5848 4446 4821 5241 4151 5696 745 4195 
2784 2939 3991 1439 5665 4935 3781 4042 5956 
2638 4136 5499 470 5478 3013 3081 4674 1087 
5166 3069 2732 3362 4240 2129 5373 5890 4086 
3223 5760 3725 4761 3825 3347 6007 4017 3869 
4683 5515 4303 5026 4544 2008 3531 6032 4153 
3021 5483 4140 3699 4700 2853 4509 4353 4762 
3230 6047 3690 5127 5811 6001 3539 4308 3447 
5134 5189 3030 5913 2301 4433 5426 2524 3932 
2422 4220 3172 3454 3102 4376 3872 3414 4389 
4095 4339 5864 1982 2603 2998 1905 5700 4320 
4828 1871 5278 2982 2107 3478 2896 4382 2229 
3777 2379 2337 4350 1636 5061 2968 3726 2505 
3185 2822 3494 1901 3388 994 20 4447 3668 
4768 4272 4466 3449 2216 4970 5706 5808 4174 
3949 4122 4942 3730 4740 4709 4304 4982 5372 
3723 5536 4427 4746 5282 5406 5290 5718 1065 
5105 3741 3738 4131 5521 2001 1914 216 5299 
2542 917 73 5261 512 1765 5716 2746 5238 
876 4511 4910 3443 1853 2585 5935 2550 1015 
1707 1331 1828 881 682 2602 1633 3057 1437 
2236 1063 1568 26 904 4478 3682 1670 3342 
2959 2156 3220 2861 2130 3681 3136 3103 2842 
986 3161 4205 3323 4448 2739 4114 4159 3469 
72 5393 4298 5147 4893 4078 4628 2875 3677 
4276 4722 2780 3626 5182 4590 3839 4718 3827 
5124 135 4073 5236 2019 1890 531 281 3418 
139 270 969 2698 632 3902 3363 5645 6045 
4434 1787 5504 2992 3834 2809 652 918 4605 
3492 3059 5043 35 339 4556 2916 2303 4741 
371 614 223 1318 411 732 6012 852 629 
282 401 781 520 515 2580 801 1802 308 
1027 726 1829 737 400 734 1910 1466 1043 
2897 4280 1056 612 3413 19 2217 4452 1949 
658 2999 4872 4685 2488 3649 5110 4857 3321 
5050 4909 4745 3798 3570 3391 3238 4403 4597 
3855 4630 4306 4807 2579 4436 4517 4004 4170 
4512 4614 4375 4780 1846 574 2513 2677 4124 
32 850 452 2101 1031 902 1294 1053 429 
767 842 3269 2920 5194 2444 2036 244 948 
2346 1619 4602 2850 1883 1668 2537 1652 979 
2894 69 235 843 2460 123 626 265 204 
314 1055 825 1135 3298 1684 1542 987 848 
1861 365 337 333 410 455 392 1232 188 
352 951 964 558 725 1038 548 1214 354 
238 1257 2793 1471 1738 1259 76 1284 47 
210 580 545 149 2635 742 2960 4459 1693 
2436 666 4252 4932 4711 1958 5566 2955 5991 
5006 3859 4020 4901 5560 2393 3993 3243 5007 
3317 3518 4876 5541 5487 4842 4714 636 5200 
4599 4781 3328 4680 5422 4679 5300 4632 278 
1277 1261 358 1588 2477 1345 1776 649 336 
1021 71 499 1074 1456 1706 1115 684 66 
1336 474 622 1 822 75 773 810 297 
1044 519 498 957 646 1141 1139 1436 221 
713 479 1022 1491 1191 748 380 673 1369 
184 307 635 1561 1216 942 1339 1103 177 
667 1560 532 130 1271 1287 634 1438 2631 
524 1747 1010 1118 619 323 2574 688 1192 
530 23 2511 2776 433 1487 362 4227 1536 
2220 3436 2705 674 874 1317 2665 1750 3126 
1970 373 3058 3822 4035 970 3368 343 446 
5577 2324 5726 4197 3420 5781 2737 1017 3967 
5162 3364 5863 5934 5503 2618 4815 976 500 
2059 2338 2432 869 2490 3588 4002 2387 2883 
1401 2292 2363 1505 608 1722 3184 2512 1782 
691 466 1072 353 984 1872 885 2062 1450 
17 434 740 1462 1095 1071 166 2459 1562 
1288 701 1016 1223 366 2167 1243 865 43 
96 896 1400 1527 129 348 1817 559 328 
122 388 937 319 1186 924 1398 385 1864 
1005 305 3356 431 2972 603 4606 4057 298 
862 826 4100 809 3625 5454 3780 3491 3551 
1621 4926 2475 3316 4348 2588 5103 1564 3052 
2589 828 3615 611 1818 4470 4482 5463 4881 
1390 3980 5787 5174 3908 2549 5989 5150 413 
3536 2118 3544 2423 2022 2478 1859 3110 2263 
484 3305 1768 3210 2356 2748 3353 2104 1052 
3201 2663 2105 2099 3915 3020 2328 162 1420 
2015 1667 2591 2781 3815 2577 1531 2821 1126 
1831 4184 859 3304 67 2095 1556 518 4126 
2190 3675 2995 2398 4135 4098 3581 27 676 
1167 3779 2868 1188 132 4664 1991 4583 121 
811 2622 1538 4268 4394 3810 2299 2825 4345 
86 2463 2499 4069 4199 5231 3647 1028 3405 
2884 2788 961 5419 5158 3848 4180 5404 3590 
5133 5042 5731 3186 5009 4865 5460 6025 3888 
5285 3623 3133 5821 3950 4671 1611 2264 2974 
583 3579 1959 916 4352 2687 3340 3661 3393 
2242 2691 2944 2686 4453 4293 3406 5780 5496 
3262 5549 3540 2642 5575 1932 5973 3041 4701 
5066 2727 4169 3431 4190 5758 5855 5082 5538 
2889 4915 2197 3843 254 4198 3036 5987 5916 
5558 5621 4629 4651 4639 4115 5287 5126 4300 
4641 5417 4705 2726 288 4487 4908 5491 5095 
4850 4978 4256 5312 5931 146 3775 4270 2302 
3444 4277 4635 3594 4933 2902 6046 4526 4334 
3898 4317 2729 5139 5984 5119 5550 3850 5881 
4432 5104 3411 3719 2814 2683 5986 3290 4077 
3460 6000 3333 5193 5234 4596 5615 4108 4899 
3288 5342 4489 2723 5897 5392 5473 4813 2907 
3107 3517 4034 4983 3656 4995 5835 5374 5757 
1662 4617 3849 1521 3840 2714 5458 5359 4687 
4826 3713 1110 5556 4134 5051 5347 4578 5063 
3575 3112 3736 6013 5607 5565 5841 3390 2386 
3152 2508 2268 5528 3338 3820 4829 5013 1363 
4183 1771 5944 4326 1777 6016 3553 5610 5710 
4127 2416 3795 2226 1601 5203 4743 3706 4399 
5526 4581 4502 4238 3873 4567 4347 5486 4562 
3464 5314 5178 5927 2782 3415 2520 4022 5552 
3947 3138 4756 2866 2158 2344 4875 4406 6020 
5045 2595 5972 5626 3603 4766 4723 4749 2195 
6004 4340 1183 2702 5215 5744 4803 5527 1565 
3785 3378 4805 3801 5448 3345 5244 5708 1062 
1774 3994 4461 5563 4565 2316 1323 3997 6065 
5222 4147 3350 5588 1737 5024 4212 113 5813 
5555 1293 4309 4363 2159 3776 3507 5951 1690 
4021 5294 4988 5886 5634 2553 796 3435 3124 
3374 3308 5368 5409 4541 3981 3773 3134 3671 
5539 5421 5048 5366 4295 5316 4500 4409 4973 
5243 4943 4697 5382 3412 5377 2208 5712 5849 
5902 4179 6008 2433 4721 5719 5705 5959 5461 
5564 5903 4462 2434 5948 5910 5531 5775 5440 
5659 5223 1392 788 5390 3846 3381 3019 5489 
1965 1847 3672 3611 2355 2840 2711 2770 2284 
4165 2054 1655 2688 2431 1242 3712 855 1820 
1697 3632 4879 2496 4904 1935 2860 4924 485 
4849 1845 2934 3548 4784 2613 2362 4486 579 
2231 4759 1760 2758 4400 3941 2451 3475 2380 
2919 497 2846 978 3129 2787 3935 3329 3132 
4133 2749 3883 3733 2187 4554 3283 3975 5938 
3653 4232 4229 3861 4111 6058 1705 4364 4033 
2485 3655 3804 3315 4747 4712 4469 2639 2112 
3227 5736 5833 4956 4638 708 3397 5163 3841 
4187 3403 3982 5498 5188 2930 3160 2147 5266 
3295 5412 4257 5220 4358 2785 4101 3807 2245 
2108 1550 2800 3826 3666 3828 2703 2912 1686 
1867 2480 1249 3192 1909 3084 2531 1503 3012 
2202 1751 2958 2503 5995 2640 3035 1315 2051 
321 4727 2365 3297 2369 718 3481 2719 5445 
4330 5918 3857 542 1990 3458 2479 2192 3856 
1625 2353 3953 101 1204 1926 3724 2457 1479 
2049 1245 1998 2891 2378 3769 2811 791 2347 
589 2617 2435 3670 5049 835 2856 4598 2394 
685 662 2772 3639 3767 735 51 2740 2232 
3688 215 85 5384 303 46 111 1148 437 
29 909 645 1092 3379 581 4263 3732 156 
630 296 1403 324 1766 1832 1194 1651 698 
2438 1200 1968 309 3529 2280 2568 981 1585 
1114 1322 463 2656 1708 2406 1799 3296 4094 
4239 1754 5070 2753 4458 5968 4398 1312 4055 
5802 5965 4081 5641 5315 4851 3235 4931 6050 
3962 4342 4049 5769 4338 1275 3824 794 2000 
1922 294 1733 2237 1827 960 2684 315 1492 
1647 42 2277 1160 1947 1181 570 1393 543 
1193 1383 700 711 965 2127 493 172 3137 
2681 1735 755 2038 14 1004 2248 7 2213 
152 1406 804 670 584 3011 829 1452 727 
28 1203 568 415 291 1097 64 1280 989 
1091 256 818 602 379 841 1138 104 1516 
445 785 677 598 198 1511 569 83 384 
2274 207 395 2334 2888 1819 50 2646 2805 
2534 4346 2692 4816 3064 2975 4913 4204 5537 
3389 5121 4923 5952 5678 4269 2615 5027 4622 
4944 4329 2935 4692 5251 4370 5488 4289 5380 
5788 5022 4244 4497 5756 5806 2149 2410 2491 
1574 2173 971 657 2877 3607 1482 2297 3066 
1810 1163 2428 1254 2340 1366 3229 2233 3473 
3231 2018 1197 128 56 1172 883 752 2050 
3100 1090 926 1340 1334 393 671 897 1157 
1358 103 404 206 2060 2439 105 196 591 
555 1626 262 724 564 1002 1219 286 1465 
605 280 2241 798 523 370 1480 142 3099 
124 325 3597 1075 592 453 3218 2100 756 
4571 2132 2530 476 5600 3106 4105 9 5226 
5633 5218 5259 5572 5155 5270 4314 5176 5658 
1762 4675 5764 3503 4843 5242 5703 5582 2722 
3906 4885 5075 5465 5074 4702 5878 4531 5652 
4536 2938 5649 4725 5011 5143 4694 5551 3446 
3128 4046 2738 4254 930 2881 2469 1710 3641 
1945 4940 3939 2606 3685 3251 3065 2335 2620 
2807 1641 1694 707 2023 2977 1258 567 963 
721 2389 3094 2265 1605 2391 1598 1590 2273 
1727 310 250 1385 715 1843 587 451 442 
347 1654 514 472 231 2527 1099 1916 681 
907 1388 461 729 2142 1162 1481 3614 3457 
1579 806 5752 2820 2764 1429 536 5981 4045 
4543 4119 3275 4445 1077 5512 4335 4990 3996 
5381 5108 4993 3985 5616 5083 4068 5023 5850 
4934 4234 3015 5542 4699 5267 5831 4868 5749 
4870 4730 3542 2870 3659 3366 3246 2744 3153 
3837 3583 4155 3745 4608 4528 1953 3177 1803 
3501 3410 3806 2052 1723 800 4613 3398 3209 
2545 4351 3173 4549 2924 2032 482 3885 3895 
2073 4584 4798 516 1653 3442 3400 2144 2110 
3489 3502 2535 2404 4738 1941 3584 4693 5721 
521 2777 5911 3749 2720 3505 5785 1226 4460 
4173 4953 5674 4620 5884 5631 5033 4652 3740 
4141 4012 2367 4442 1956 5922 5254 5438 4163 
5834 5140 6030 5892 4615 3291 5161 5604 3990 
5464 5284 4075 5100 4431 4224 4477 4619 3434 
2447 3599 2965 4341 3511 4999 3546 4152 3165 
6002 3279 3910 4946 4755 4492 4655 3357 2076 
3678 1018 5637 4261 3292 5091 2057 1877 3334 
4485 4118 3249 5173 2608 1049 4891 5569 4056 
5937 5969 5130 5930 4529 5321 5485 1763 5094 
2976 4503 1473 5812 3164 5877 2047 3918 4937 
5919 4861 5921 3266 5698 4157 4203 3582 5585 
5123 4959 5773 5999 5640 2402 4579 5625 5832 
3952 2507 2942 4736 4221 6036 4402 5860 2835 
3433 4603 4037 2760 5847 5786 3897 1569 3450 
5543 5447 5351 1545 3679 5725 4213 3234 5357 
3383 2979 5248 2880 4354 5249 1857 2276 1609 
5428 4677 4160 3788 5394 3612 5657 5276 4349 
4839 5113 5079 5252 3562 5843 6052 5148 4414 
5879 2193 4806 3865 5331 3643 3651 5994 5694 
3759 4011 5225 4266 3523 2890 5436 1773 2786 
4869 4223 4595 5482 642 3559 5410 4116 5246 
5801 5003 5152 6035 1692 2313 3148 2160 3633 
5350 709 1999 4451 5668 5792 2970 5016 5415 
4090 5340 5561 4031 6064 2300 1030 3703 5452 
5391 5365 5138 2413 3799 1937 3881 4561 2430 
2199 3255 1940 2649 4695 5770 1743 4776 5279 
1365 3814 5361 757 5653 2472 2601 3844 3242 
5116 4647 1230 3320 3224 3691 4366 5767 3628 
2307 1042 1882 1977 5839 3194 3864 195 5442 
4836 4880 2874 2137 2581 4790 3965 1256 1199 
5908 3461 131 6048 3874 4296 5209 5192 4380 
4424 5891 4627 2728 3425 5686 2466 2767 3942 
2943 4636 2042 504 5327 571 5762 4228 1736 
1764 4226 1755 1825 1361 5208 1725 3604 5859 
4440 5142 4968 1557 3930 1547 2470 1865 5914 
3819 2693 5307 3386 5441 5432 4410 1826 5399 
3983 3250 3072 2131 4271 5851 5356 4811 1701 
4977 3783 3955 137 3927 4099 5964 2988 3456 
5395 4726 3803 5873 3426 4563 4858 1808 5205 
5782 4818 3385 5979 4367 4585 1992 1646 2024 
3219 5650 5707 4302 2506 3606 4917 2450 3026 
723 4546 2376 2184 5068 2498 3111 1474 6060 
1493 1084 2026 2954 317 3610 1900 5398 5332 
5990 5838 6066 4305 2621 158 3794 2401 3346 
5516 2605 2458 5676 3258 2834 5333 2270 5853 
1179 3354 3300 4510 3130 1143 1806 2827 2594 
5795 4734 5523 5449 5763 5115 4025 2882 5146 
3141 3424 1775 4222 5219 1929 802 3361 5170 
5909 4831 2969 4846 3009 4290 973 4156 4457 
4496 4604 4800 3578 3914 4646 5235 4874 5513 
4493 4211 4355 4518 3580 3591 3729 4292 4083 
5206 5128 190 39 102 2747 1838 58 2080 
2587 3147 4243 2322 272 2910 3852 2063 4819 
4792 777 4014 4023 2163 5008 820 108 77 
2150 1983 4208 93 884 4841 1938 5088 4472 
4259 2005 1377 1461 407 1702 3931 2134 998 
114 3509 2644 5450 1801 5292 2598 2967 871 
1785 4633 3451 4331 2293 1695 2721 3195 3602 
4704 3944 5245 6057 2652 3154 4143 1870 1498 
4052 2567 4963 2647 6041 1899 1971 3122 1748 
2070 1379 1873 2495 2106 838 1676 1238 2848 
2547 2074 4985 176 600 284 894 669 3964 
94 4430 2487 945 80 1061 827 1915 1032 
577 261 3618 3027 277 70 1434 1100 2653 
1592 1404 2532 627 1213 1289 2304 2518 3452 
3263 24 2817 1669 1443 2440 4343 2964 941 
2343 6024 1176 334 4274 1943 4767 4515 1153 
1830 1079 3377 2926 3247 1794 3972 5630 1360 
1924 2538 2336 2971 2556 868 2069 3520 1948 
4241 2712 481 2700 2578 5876 2716 5153 696 
4804 1911 1869 1409 1367 2093 5078 3778 3083 
179 1342 2003 561 1839 2847 991 716 320 
839 588 185 161 761 784 2502 1231 363 
351 382 109 921 359 805 219 201 134 
2752 780 154 97 480 1671 492 438 2521 
936 675 405 8 1029 557 618 672 4377 
1797 3755 1638 2426 596 3215 1499 4650 4920 
3903 3476 3232 4824 5587 2908 4144 140 1987 
220 2045 5362 5830 5753 3282 5651 1753 5612 
2563 3171 3467 6049 5722 3477 3541 6018 3956 
2829 3448 4225 4356 1739 3085 1809 2658 2372 
2175 2200 1624 5602 2836 3428 1746 2228 4125 
2181 4374 2761 2680 3272 3265 2145 3119 1559 
1786 1273 1616 1876 1356 1658 1161 1235 1085 
112 263 1348 808 2028 1927 1620 833 168 
1156 1067 779 1266 578 349 793 1101 974 
1206 57 764 1888 227 553 879 665 1094 
1048 3206 3909 2315 2528 344 3510 613 2551 
1862 2364 1497 2830 1821 2690 3488 2996 4438 
4390 4715 2067 4154 3704 4964 4065 4494 4072 
3440 5518 5330 4783 6062 2841 5344 2333 6038 
2180 5323 4193 5933 3700 4681 5807 5403 4557 
3870 5729 5439 5004 5112 2133 2165 4413 2405 
2007 5466 5683 3048 1716 4005 2611 3893 2493 
3462 3254 1448 4053 3635 3838 3309 2561 2906 
1551 763 2696 651 3257 1703 769 1239 1734 
692 84 2928 2983 1234 771 1175 2296 450 
1444 1158 1643 1329 731 2941 892 759 539 
21 2497 1510 3904 1718 1299 439 2395 933 
2826 3430 3002 959 3929 3310 2980 3480 2695 
3816 4001 2634 5954 5925 1957 4506 5431 4653 
5047 4916 5810 5479 4552 4763 4972 3046 5092 
5974 6061 4194 2029 3205 5164 5257 5214 4845 
3589 5958 5301 3940 1207 3429 5501 5574 3664 
5544 5183 5642 2348 4997 5353 3617 3959 4559 
4691 3652 4091 3999 4507 3636 3750 3470 2724 
2790 4178 3157 5386 3240 1124 2006 3193 87 
2865 1147 1012 1395 4698 273 1603 2610 1432 
430 1524 1422 318 2766 4200 4793 2306 5195 
2798 3076 3646 6034 2373 3619 2294 5283 4673 
2467 5099 5576 2828 4724 5644 1964 816 2986 
5096 3979 4852 3705 2947 599 4230 2660 5798 
4661 4887 5275 6055 3711 4275 4757 5443 3928 
4772 4987 4247 5239 5337 4601 3044 2804 264 
1918 4735 3096 4522 4112 5817 1717 5622 1920 
4786 2734 2288 5547 5125 4710 4854 2481 3274 
4418 3667 3380 3151 4717 1247 4658 2993 3037 
3934 4566 3811 817 4217 4508 3721 1856 4844 
5945 6069 5383 5745 2016 5253 5212 4327 544 
4739 4483 2375 4676 5771 4379 3924 5648 3876 
5137 3958 243 3925 3063 4175 2092 5942 5590 
5961 3078 5661 4991 3352 5334 6051 5627 2223 
4207 4479 5997 5825 4654 5054 4564 5405 2041 
4519 2552 5264 4555 2044 4670 5201 1202 4146 
6044 386 4273 4998 5151 3135 5117 4473 5738 
1795 3875 4796 2295 5620 3145 2541 4728 4886 
3694 1552 5776 562 5021 2084 3884 5747 4548 
4071 5746 4838 5171 5793 4054 4799 2674 4514 
5444 1504 4423 3474 5401 5247 746 4894 4332 
5407 4941 249 3331 5490 5681 5497 4778 5596 
1640 3905 119 1484 2554 2796 4808 4150 3605 
2981 3319 3144 5755 2168 3560 2948 6009 3237 
5618 3515 1954 4624 2763 2792 3547 872 2533 
4729 1656 4010 813 5870 5293 1296 3485 5845 
1946 3355 1351 4918 621 3835 4397 967 1972 
1699 1594 3280 4532 3490 2162 2287 443 3332 
2590 3538 335 2399 1815 5874 3236 4827 237 
3506 2742 4104 3969 966 1613 1007 2178 5867 
5741 2715 5258 3970 226 4716 4454 3717 3018 
4966 4059 2128 744 2043 159 4877 2285 3771 
1489 1411 2278 5295 5702 3543 4189 5912 5336 
2813 4372 6003 3360 5250 3203 3550 5872 5080 
3601 2312 1391 1064 4255 3569 2468 2012 944 
4889 943 218 5885 625 5484 1001 2823 3878 
5034 457 4319 778 2929 5072 2381 5689 5036 
5837 1507 5352 2390 5971 4167 4662 2183 3880 
5145 6026 5673 4862 4437 2945 5953 3417 2443 
2198 5118 3727 730 2079 3832 1035 3270 2408 
4499 3596 4003 4378 5494 3284 1813 1431 2632 
1346 2743 3774 2017 5015 5675 594 4609 1610 
5077 3720 1217 3188 736 3445 1784 2855 6039 
5232 2225 3341 5842 4110 5699 4048 4706 1485 
2412 4957 5772 1059 5966 5177 1435 1338 4855 
2504 4029 3183 5256 5928 2831 1104 2075 3519 