# vtk DataFile Version 4.2
Generated by LIGGGHTS
ASCII
DATASET POLYDATA
POINTS 6000 float
-0.0254592 -0.03706 0.0183838 -0.0218293 -0.0392024 0.0187678 -0.0180836 -0.0411118 0.0184106 
-0.0141859 -0.0399195 0.0182215 -0.00875129 -0.0441136 0.0178417 -0.0102477 -0.0391032 0.0186536 
-0.00584906 -0.0406113 0.0178634 -0.00450394 -0.044457 0.0187372 -0.00172026 -0.0406343 0.0177327 
-0.000205307 -0.0450047 0.0181919 0.00269002 -0.0392552 0.0183775 0.00394243 -0.0445389 0.0185895 
0.00615412 -0.041105 0.0171009 0.00963464 -0.0439586 0.0170304 0.0111726 -0.0401986 0.017109 
0.0152332 -0.0420631 0.0174954 0.0185063 -0.0385113 0.0167392 0.0218217 -0.0389583 0.0190617 
-0.033238 -0.0302649 0.0186827 -0.0292542 -0.0304812 0.018202 -0.0260456 -0.0328452 0.0177043 
-0.0246633 -0.0290622 0.0186492 -0.0216388 -0.0338518 0.0185451 -0.0207417 -0.0298735 0.0180869 
-0.0143106 -0.0320211 0.0184082 -0.013173 -0.0360557 0.0184348 -0.00658489 -0.0364984 0.0179107 
-0.0103337 -0.0324929 0.0178874 -0.00635571 -0.0287746 0.0175687 -0.00501496 -0.0328377 0.0185054 
-0.00257092 -0.036208 0.0178361 -0.00103378 -0.0323867 0.0188976 0.00138436 -0.0352916 0.017426 
0.00270752 -0.030433 0.0179597 0.00572821 -0.0359548 0.0178237 0.00961535 -0.0319307 0.0170467 
0.0108224 -0.0357563 0.0182271 0.0147925 -0.0367627 0.0179527 0.0135486 -0.0327973 0.0173802 
0.0180038 -0.0330837 0.0177827 0.0213309 -0.0353532 0.0173362 0.0259989 -0.0363236 0.0164321 
0.0244632 -0.0326419 0.0167501 0.0334312 -0.0299647 0.0171104 0.0295567 -0.0337455 0.0172783 
-0.0386332 -0.0230218 0.0189789 -0.0361071 -0.0260903 0.0182662 -0.0321089 -0.0263731 0.0183169 
-0.035383 -0.0207991 0.0180074 -0.029845 -0.0214167 0.0187914 -0.0280779 -0.0263124 0.0181355 
-0.024863 -0.023902 0.0187473 -0.0138526 -0.027066 0.0180708 -0.0181361 -0.0268226 0.0177834 
-0.0190204 -0.0211221 0.018095 -0.0155658 -0.0233657 0.017459 -0.0101412 -0.0285391 0.0188478 
-0.0116556 -0.0226768 0.018434 -0.00843728 -0.0250985 0.0175718 -0.00441077 -0.0244897 0.018175 
-0.00230095 -0.0282783 0.0180662 0.0012194 -0.0261698 0.0178282 -0.000944361 -0.0219508 0.0182896 
0.0028786 -0.021049 0.01746 0.0095625 -0.0261207 0.0170169 0.00500371 -0.0249605 0.0183482 
0.00735641 -0.0211489 0.0163717 0.0118636 -0.0224977 0.0174919 0.0148724 -0.0262094 0.0183717 
0.0155283 -0.0209062 0.0171394 0.0184743 -0.0238506 0.0174513 0.022052 -0.0282664 0.0170051 
0.0279006 -0.028822 0.0168274 0.0265657 -0.0238503 0.0169812 0.0225994 -0.0224094 0.0171288 
0.0307646 -0.0240936 0.0172595 0.0357246 -0.0264744 0.0176792 0.0378673 -0.022293 0.0181255 
-0.0418182 -0.0165397 0.0180487 -0.0379523 -0.0156556 0.0186228 -0.0431634 -0.012695 0.0180918 
-0.034117 -0.0170046 0.0184918 -0.0301223 -0.0134194 0.0184799 -0.0296051 -0.0174141 0.018776 
-0.0261368 -0.0195079 0.0192104 -0.0230358 -0.0154454 0.0184165 -0.0156571 -0.0185067 0.0178103 
-0.0192254 -0.0167195 0.0183971 -0.015947 -0.0143704 0.0179776 -0.00462449 -0.0204381 0.0191261 
-0.00909063 -0.018682 0.0175914 -0.0121608 -0.0162436 0.0185444 -0.00493386 -0.0160909 0.0174399 
-0.0121738 -0.012243 0.0184782 -0.00821594 -0.0140066 0.018508 0.000235726 -0.0180692 0.0192042 
-0.0013333 -0.0142093 0.018965 0.00257959 -0.0132278 0.0184167 0.00427666 -0.0172096 0.0191958 
0.00827849 -0.0176222 0.0188643 0.00646265 -0.0140687 0.0176756 0.011956 -0.0184094 0.0173351 
0.0194732 -0.0193786 0.0180197 0.0125455 -0.0143341 0.0183175 0.0162523 -0.0128245 0.0186981 
0.0157556 -0.0169512 0.0191887 0.0260274 -0.0199162 0.0183797 0.0226363 -0.0160548 0.0172298 
0.0266795 -0.0158636 0.0181275 0.030213 -0.0199335 0.0173798 0.0339743 -0.0181409 0.0177222 
0.0308195 -0.0125046 0.0176325 0.0427387 -0.0136934 0.0180253 0.0408069 -0.0180715 0.0169569 
0.0372386 -0.0158859 0.0191363 -0.0440646 -0.00867894 0.0180801 -0.0382351 -0.00764441 0.0187825 
-0.0414253 -0.00524262 0.0184996 -0.0372536 -0.0115102 0.0184791 -0.0337672 -0.0093192 0.0188469 
-0.0299685 -0.00471508 0.0186319 -0.0295609 -0.00944171 0.0187584 -0.0212274 -0.00983774 0.0183716 
-0.0259569 -0.0048925 0.0185229 -0.0254112 -0.00962758 0.0189568 -0.0219507 -0.0058274 0.0188165 
-0.0172531 -0.0103177 0.0182557 -0.0137398 -0.00824668 0.0185521 -0.0148809 -0.00412985 0.0185186 
-0.00467516 -0.0119283 0.0183747 -0.0095661 -0.00876287 0.0186074 -0.00771135 -0.00509452 0.0180598 
-0.00398524 -0.00774199 0.0182965 -0.000839862 -0.0102304 0.0183304 0.00102528 -0.00662892 0.0181008 
-0.00231921 -0.00401235 0.0181665 0.00961131 -0.0115673 0.018284 0.00430029 -0.00893032 0.0178717 
0.00890689 -0.00491938 0.0180814 0.020318 -0.0121347 0.0178733 0.0134114 -0.00992768 0.0185139 
0.0171058 -0.00848446 0.0178475 0.0128725 -0.0059413 0.0181093 0.016477 -0.00416004 0.0179594 
0.0265692 -0.0116809 0.0176616 0.0232191 -0.00920315 0.0182157 0.025499 -0.00596253 0.017585 
0.0207751 -0.00594033 0.0177596 0.0344728 -0.0106886 0.0182052 0.0295519 -0.00861988 0.0179484 
0.0290577 -0.00419971 0.018242 0.0329255 -0.00643923 0.0187561 0.0394968 -0.0106988 0.0184316 
0.0371403 -0.00720909 0.0177914 0.0407009 -0.00522726 0.0179677 0.0429637 -0.00864773 0.0182823 
-0.0448383 -0.003145 0.0184428 -0.0376787 -0.00363825 0.0185302 -0.0398727 -0.000280873 0.0184341 
-0.0449722 0.000847837 0.0186899 -0.0417719 0.00331659 0.0185026 -0.033898 -0.00186223 0.0183629 
-0.0362529 0.0014258 0.0186061 -0.0324259 0.00268223 0.0189998 -0.0221611 -0.0007213 0.0188744 
-0.0261738 -0.000755317 0.0188249 -0.0186709 -0.00269439 0.0184271 -0.0203025 0.00303018 0.0187312 
-0.0165608 0.00131495 0.018621 -0.00561752 -0.00154607 0.0183379 -0.0119171 -0.00143496 0.0192324 
-0.00872556 0.0010971 0.0187243 -0.00498188 0.00276109 0.01847 0.00173415 -0.00264046 0.0187529 
-0.00193776 0.000130866 0.0184462 0.00195804 0.0013811 0.0182632 0.00555632 -0.00159667 0.0179052 
0.00953758 -0.000249622 0.0184515 0.00616766 0.00243124 0.0184471 0.0195592 -0.00160243 0.0179955 
0.0136603 0.000220024 0.0184596 0.0173443 0.00173849 0.0180778 0.0234258 -0.00259348 0.0182709 
0.0269678 -0.000737283 0.0179254 0.0236752 0.00217524 0.0181908 0.0278105 0.00315909 0.0183733 
0.0342419 -0.00167036 0.0177089 0.0307959 0.000281811 0.0184768 0.0383044 -0.00187551 0.0180982 
0.0449948 -0.000440748 0.0179442 0.0414302 0.00166417 0.018462 0.0446293 0.00412442 0.0186435 
0.0375631 0.0025467 0.0190842 -0.0387323 0.00595621 0.018569 -0.0445299 0.00623386 0.0187309 
-0.0408388 0.00935829 0.0185692 -0.0341501 0.0121903 0.0190284 -0.0259941 0.00664723 0.0187438 
-0.0222221 0.00961756 0.0190923 -0.0265821 0.0106094 0.0183798 -0.0151713 0.00538699 0.0184326 
-0.0190289 0.00687081 0.0184213 -0.014466 0.00984297 0.0179595 -0.0181744 0.0108408 0.0191256 
-0.00983786 0.00495832 0.0183044 -0.00613394 0.00659576 0.0181094 -0.00584862 0.0119916 0.0188833 
-0.000867981 0.00442147 0.0184246 0.00311444 0.00521311 0.0185013 -0.00303737 0.00911811 0.0184287 
0.000945965 0.00857746 0.0180359 0.00290365 0.0120953 0.0180491 0.012016 0.00777159 0.018779 
0.00493035 0.00879145 0.0190899 0.00871339 0.010112 0.018767 0.0144952 0.00456061 0.0180627 
0.0124417 0.0118737 0.0186768 0.0160085 0.00824528 0.0184732 0.0164307 0.0122339 0.0185487 
0.020972 0.00532425 0.0179247 0.0248765 0.0059936 0.0185441 0.0287402 0.00700166 0.0190235 
0.0218721 0.0092527 0.0181533 0.0258292 0.00990619 0.0182373 0.0359212 0.00611788 0.0183185 
0.0324731 0.00816385 0.0180804 0.03362 0.01208 0.0178194 0.0296453 0.0109002 0.0189471 
0.0409357 0.00580204 0.0189421 0.0441354 0.00831911 0.0183975 0.0386113 0.00913202 0.0187048 
-0.0407299 0.018958 0.0192399 -0.0388424 0.0154322 0.019163 -0.0303635 0.0135428 0.0187853 
-0.0359166 0.0204716 0.0185353 -0.0277759 0.0165906 0.0184235 -0.023926 0.0181905 0.0190124 
-0.0245714 0.0140766 0.0189428 -0.0276996 0.0206112 0.0185292 -0.0146248 0.013972 0.0188473 
-0.0153956 0.0178785 0.0192431 -0.0102984 0.0129497 0.0183993 -0.00744178 0.0156844 0.0190338 
-0.00831292 0.0196189 0.0189014 -0.0122186 0.020576 0.0191508 -0.00457013 0.0183272 0.0180478 
-0.00291859 0.014786 0.0189624 0.00101096 0.0154862 0.0192244 0.00235588 0.01924 0.0188623 
0.00900614 0.0141304 0.0182411 0.00513859 0.0153208 0.0188311 0.0101468 0.0184008 0.018253 
0.00633714 0.0191213 0.0192504 0.0140046 0.0157964 0.0183467 0.018017 0.0159045 0.0185892 
0.0170364 0.0197932 0.0182988 0.0211867 0.0133641 0.0185054 0.0257774 0.017055 0.0178205 
0.0229582 0.0200533 0.0180745 0.0299307 0.014798 0.0179235 0.0340604 0.0162704 0.0186953 
0.0294872 0.0187744 0.0181329 0.0365066 0.0194731 0.0186196 0.0390747 0.0132528 0.0187417 
0.0430514 0.0129917 0.0192277 0.0407282 0.0189742 0.0189674 -0.0291167 0.0243085 0.0192054 
-0.0312111 0.0277063 0.0188694 -0.035202 0.0280028 0.01915 -0.0216495 0.0218469 0.0183299 
-0.0251659 0.0237406 0.0181013 -0.0265443 0.0274895 0.0185677 -0.0211852 0.0280717 0.018184 
-0.0177023 0.0211539 0.0192495 -0.0145931 0.0238111 0.0189628 -0.0183231 0.0253493 0.0189077 
-0.00933092 0.0234915 0.0191669 -0.00544394 0.0243337 0.0185608 -0.00235527 0.021786 0.0179503 
0.00143332 0.0231348 0.0185958 -0.00165578 0.0257097 0.0185546 0.00362908 0.0265319 0.0181207 
0.00544513 0.0230405 0.0188833 0.00834244 0.0258363 0.0182535 0.0121997 0.0249054 0.0187572 
0.0131877 0.0210182 0.0182049 0.0195642 0.0229336 0.018858 0.0140787 0.0284394 0.0189425 
0.0203904 0.0268462 0.0192566 0.0264865 0.0216006 0.0192487 0.0233996 0.0241806 0.0186824 
0.0247717 0.0279719 0.019165 0.0281415 0.0258109 0.0189351 0.0344187 0.0229897 0.0184838 
0.0304674 0.0225439 0.0190972 0.0361369 0.0266917 0.0184546 0.0388157 0.0227241 0.0180342 
-0.0320852 0.0315272 0.0180765 -0.0281673 0.0349912 0.0182603 -0.024805 0.0327896 0.0181013 
-0.0282337 0.0310555 0.01925 -0.0247115 0.0370417 0.0182081 -0.0210799 0.0342872 0.0182549 
-0.0143696 0.0289965 0.0185935 -0.01837 0.0312604 0.0181259 -0.0153017 0.0339196 0.018158 
-0.00814851 0.0306741 0.0172882 -0.0118389 0.0361485 0.0179897 -0.00810111 0.0346492 0.0181224 
-0.0116006 0.0320651 0.019288 -0.00424525 0.0359341 0.0188747 -4.19674e-05 0.0293852 0.0184146 
[...]
POINT_DATA 6000
FIELD FieldData 7
id 1 6000 int
5943 5639 5932 4744 1128 2984 2569 5227 34 
5093 4465 2066 4737 2609 1874 4782 3479 5740 
5739 3313 313 3702 3421 4456 3032 3039 5545 
18 3120 2261 4439 1891 3324 5962 2536 2222 
1650 5730 403 3040 4412 2666 4610 2013 2227 
6037 143 5052 5363 679 1152 5229 5728 5529 
5856 2623 2020 5303 1013 4405 1088 2310 1939 
426 2612 3375 1767 1347 3753 1236 2768 2905 
2136 2392 78 4867 2560 5040 5420 525 4853 
4649 5402 3 4088 5304 4570 774 3549 2358 
654 2626 1354 396 257 1539 5586 1129 209 
1607 664 1228 2114 576 639 1885 2331 4139 
4837 44 181 3010 3101 1612 4789 4388 4249 
2122 4026 5106 4362 3416 5451 5298 3961 4284 
2339 1630 2329 1584 1732 432 1372 1600 582 
440 1576 408 1637 1698 2704 208 2555 2659 
1305 496 2857 459 4810 4032 3900 2290 5524 
4883 2731 3585 4371 4060 4074 1546 2418 268 
3534 1741 364 5846 5224 165 2810 214 247 
1440 616 383 864 1362 1046 211 381 2844 
3595 3245 2961 2629 2709 3408 4592 5495 3793 
3530 3988 3552 1961 4600 1376 638 3098 935 
1307 529 640 660 1108 2867 758 508 1645 
164 1272 266 560 851 1168 2879 1749 2915 
572 1325 2403 399 5815 4391 258 2077 60 
6006 2515 4591 4258 4667 2111 2510 421 48 
1060 88 1628 30 762 840 1534 1180 1246 
1267 590 100 420 133 1034 1514 853 1320 
2400 1069 3396 2161 3665 2151 4690 2289 1627 
4307 3566 417 2699 546 427 1269 1757 1424 
2366 2385 2071 236 2778 680 1304 3662 1215 
2501 993 2852 687 4264 3463 194 2283 1399 
2256 5742 1211 819 910 5367 1535 5896 1047 
549 483 887 3093 1713 2900 3068 3600 2383 
2583 3089 92 1528 3189 4965 3023 1805 2895 
1689 2352 2258 895 2064 3919 2799 1906 4360 
1146 357 3087 3005 3322 3427 2655 242 1225 
2103 2462 412 2249 3805 4158 4474 5868 540 
2708 367 637 3922 5302 6027 5904 5260 3616 
5822 5759 4315 1396 4682 5662 5081 2878 5827 
3568 6014 3326 4312 374 5156 4123 1659 4896 
4000 3714 4206 3325 5005 4534 1154 302 3335 
2014 5672 5949 5592 5605 6010 2037 1558 5514 
4357 5364 3069 3948 1333 4373 5732 6059 3212 
4411 4752 4209 5768 6040 5424 3387 4775 3984 
3731 4106 4928 3833 4969 2625 6029 5724 4703 
5701 5167 1837 5584 4809 3587 5014 4821 5848 
361 5481 4151 4446 5665 5325 5322 3957 4359 
5478 5423 1439 470 2453 5680 3954 3013 3081 
1397 1098 2922 4013 4240 3709 2732 3022 2129 
3185 4086 4447 2427 3586 5573 4006 473 3725 
4321 3285 5663 3825 4761 5318 5875 5794 3216 
2008 6032 4153 3531 4140 3006 5059 5977 4509 
985 4939 4762 4353 3021 2148 3692 1123 5281 
5255 4954 5055 5134 3447 4308 5915 3373 628 
5348 5189 2422 2524 3932 3872 4935 2843 1955 
1352 3781 3102 2603 4376 4320 1721 609 3459 
2998 4382 2982 3478 4350 3359 2251 1563 3260 
2379 2229 3777 2337 1636 2968 1687 2257 2650 
2505 3726 5147 3388 3494 2822 1901 4276 994 
5346 3521 4365 5297 3882 20 3668 4970 4128 
5929 3710 5706 4484 4982 4174 5808 6043 3558 
3892 3923 5097 4553 3576 4719 4267 6045 5290 
6053 3230 747 4689 2135 5852 1065 5718 126 
5711 350 178 5936 4888 5238 216 3075 241 
3311 1631 938 2746 4511 1015 2754 1730 5700 
1331 881 1707 1828 2517 1905 26 3220 1063 
2896 3136 3103 4478 2420 3161 3758 3071 3681 
2739 2130 986 4448 3323 4159 4616 5182 72 
5393 4628 4893 4078 4298 4722 3677 2875 3481 
2780 2579 3626 3235 3455 5684 471 4590 3382 
3208 1903 3839 2513 5217 4718 5691 1962 4087 
710 281 5194 531 2920 988 5557 5695 4892 
4602 528 5645 5500 917 1145 606 738 706 
3059 3492 274 876 3933 81 1512 1914 3913 
248 629 371 4741 477 1472 682 1184 1930 
401 282 1853 520 1027 575 341 1045 1886 
2236 2654 1221 1632 1568 886 1711 726 1829 
997 267 904 3045 4191 2897 1043 2217 2842 
1949 1374 2861 3798 4452 4872 4685 2999 3649 
4678 4668 3855 3570 4114 3469 3238 4909 4745 
4403 3391 3017 4517 4450 4188 4436 4630 4170 
4004 2206 3471 3938 1691 117 2586 1715 1449 
4569 1846 2677 574 499 1277 720 38 3968 
49 4202 3269 842 71 3008 402 5265 3791 
2775 4080 789 251 2850 1619 123 858 435 
522 377 235 118 329 3298 5181 1189 301 
694 392 2 217 987 188 338 964 565 
659 558 91 275 1257 1232 951 1182 245 
1446 173 3851 641 2793 1471 2960 1738 797 
1526 5135 551 2600 1855 2635 149 742 4711 
5090 2081 2633 4392 1958 658 3993 3317 5566 
3166 4857 5050 5007 5583 1907 3466 160 3518 
5560 4306 175 4138 4948 3432 4807 4714 5200 
4876 5422 3328 4680 537 1078 2327 1093 252 
1445 278 1074 976 500 1371 62 4777 502 
234 870 316 63 1523 552 1401 1456 550 
468 397 3453 517 622 822 1 75 434 
2109 171 507 1011 170 812 145 153 98 
368 1171 306 1709 1066 444 538 748 380 
513 890 390 490 1339 2631 1000 1070 867 
1103 61 2911 1693 983 200 1969 1792 1010 
524 1118 279 2776 1195 5664 2182 2523 2325 
23 874 2511 530 674 5084 3859 2543 3243 
4035 3409 2955 2705 1317 446 3747 3082 2393 
1306 2940 3368 636 3369 3545 2950 5781 3967 
4781 4599 5863 292 1240 2113 1419 2990 1934 
2059 2423 2094 1770 2863 107 1790 2478 2292 
857 466 1570 906 330 1072 678 2104 45 
740 353 2015 441 1458 136 952 1850 1218 
1462 1223 1177 311 366 1913 849 1016 859 
328 3581 129 1490 418 348 795 1378 559 
1817 122 1005 456 766 663 4245 385 1864 
305 298 620 940 31 127 40 3780 3551 
4057 2475 4513 3028 1136 828 4176 1621 15 
4926 2869 611 3226 2514 4381 4573 3615 5272 
1818 4470 3186 4791 2737 5982 1017 229 1308 
3908 2549 1606 1859 3110 1311 2452 2326 2636 
893 1039 1611 2022 3201 916 647 3399 1944 
1525 1426 1037 2328 1959 1052 162 1300 1421 
1420 2686 1831 1667 900 2120 1798 1642 656 
1887 1923 2398 67 3304 4098 1724 1816 2117 
2262 1188 2345 4135 4583 1164 132 863 1991 
2197 4664 811 2519 1679 3038 1028 927 2299 
2825 2463 3405 1520 3963 961 601 2884 2589 
2788 6025 3998 4865 1807 5430 5184 5460 5009 
3888 5821 4480 3327 3950 2097 3162 2974 55 
1648 2944 2687 2302 4352 146 4293 4933 5780 
4184 2311 2642 2987 5185 1614 4453 3444 3431 
1673 950 1932 5973 2729 5575 5855 5082 3460 
3809 3514 4190 3868 2814 3843 5758 2751 2341 
903 478 1791 2235 6021 4108 4629 5621 254 
13 387 86 5743 299 4082 4651 4639 5287 
3762 2116 4019 5419 5296 5158 5180 4705 4487 
4908 4850 3889 5417 1121 4256 5312 2266 3775 
4277 4526 2797 4635 4334 4317 2676 2789 4748 
3512 1024 3898 5139 2683 4077 5819 6063 3411 
3290 3719 5986 6000 5342 4489 4164 2593 5615 
2454 2794 3288 2723 4899 5897 4034 4983 5032 
3367 3107 1851 3517 2962 2726 1662 5073 6017 
4022 4501 4361 2645 5213 3849 5359 5458 2714 
5416 5328 1680 3306 4984 5685 5347 5556 5051 
4134 932 4297 1540 4986 3974 2522 3054 3986 
4586 1771 3390 5565 5841 3152 4322 5085 4422 
2886 2864 3737 5385 4326 5944 1777 4399 5166 
4743 3873 5203 3706 5526 4347 4567 3507 5358 
5202 5804 5368 5409 3464 4464 5828 5823 4103 
4582 4562 3415 3947 2520 4919 5186 3847 4471 
3180 2344 3281 4875 5045 2595 6020 5957 4749 
1020 1417 745 6023 4723 2195 4406 4340 6004 
5241 5696 2784 2638 2939 4195 2434 3991 4805 
3785 1565 3801 4042 3994 4136 5956 5499 4147 
1774 4461 4565 2316 1087 4674 3350 5588 4363 
2159 1737 855 5024 4212 5373 3362 4309 1293 
2860 5951 3776 5886 4021 5634 5890 4924 2553 
796 3435 5760 3124 6007 3347 4683 5515 3223 
3869 4017 4303 3308 3329 3981 4541 5026 4304 
4295 5483 3699 5539 5421 4544 4700 5048 5316 
3690 6047 5127 5811 5913 2853 4943 6001 5243 
3539 2078 4433 4220 2433 6008 2301 4697 4721 
3414 3454 3172 3378 5910 5531 5659 5563 5864 
4828 3846 1982 4339 3019 5489 1871 5278 2711 
2688 2840 2431 2355 4165 2770 5061 1242 3712 
485 1697 3632 1820 4879 1935 2613 2934 1845 
4849 2362 3548 4486 4784 579 4759 2231 1760 
2758 4466 5124 4400 3449 5236 2216 542 4272 
3949 4942 4122 4709 3730 2787 4740 3902 3935 
3132 3129 5536 5372 4427 3723 3653 4746 5282 
5406 2992 4131 3741 5105 3738 3804 5521 3655 
4712 4747 3030 5299 2542 5716 5719 512 5261 
4956 5426 708 4638 4910 4095 3443 2550 5935 
5948 5188 2147 3807 3160 1437 4389 3381 3342 
2245 2108 2912 3682 2107 2480 2959 1686 1655 
3192 1909 3084 1315 2958 1751 2503 2640 5995 
3035 2051 272 718 2365 4727 3297 5070 2369 
5918 5445 4512 2719 3857 4049 3827 4124 2101 
4073 135 429 2019 1890 2479 1990 270 4768 
3418 969 2444 139 2346 632 2698 3363 3724 
2457 2809 4434 1668 4605 3834 5504 1787 918 
652 3769 791 35 5043 2001 339 835 2916 
2303 204 4556 5049 614 781 73 1318 1765 
2740 6012 223 411 732 801 852 2585 308 
2930 515 2580 2602 1802 1092 324 29 437 
1633 1466 3057 737 1910 1550 400 1867 734 
612 1403 1832 1670 2156 1056 1249 3012 2488 
3529 19 309 2406 2280 2202 4205 1799 5110 
3296 4239 4094 5968 1312 4597 2753 4458 4398 
4342 4055 4081 2964 4780 4375 4614 5641 4330 
5315 4851 3962 6050 4931 5769 4338 1275 850 
32 767 452 358 1031 902 1294 1776 1588 
294 1053 336 649 1922 2000 2149 2036 244 
1181 948 684 570 1336 1947 2460 1652 810 
1883 2537 69 1197 2894 979 3137 7 843 
1684 314 848 626 265 1191 825 1055 1135 
568 455 1542 365 1861 410 337 28 333 
818 352 238 725 1214 1038 210 548 47 
379 602 1259 76 1766 666 1284 569 580 
198 598 1511 4280 4252 3413 4459 2436 2568 
4932 2334 2888 2692 3321 5006 4842 3064 5802 
5991 4816 5027 4913 5487 5541 3824 4269 5678 
5965 2615 4944 5362 4679 5300 4632 4370 4692 
4289 5251 5488 5380 4244 5788 5022 2363 2338 
1261 2477 869 4002 1345 1021 2410 4046 474 
1706 773 608 1115 66 2428 2512 498 3066 
1945 1141 297 1044 128 519 17 646 2062 
957 221 1436 1071 926 1139 1491 713 1022 
479 1562 96 1340 1561 673 1369 184 1560 
307 942 635 130 1216 196 2439 545 532 
354 1438 177 667 286 619 634 1271 1287 
523 1192 1536 1747 2574 124 142 323 4571 
325 3099 4227 433 3126 4020 2220 1487 50 
3436 3058 362 2132 2975 1750 4901 2324 3822 
5633 5226 5259 5577 970 4622 343 5503 5726 
5176 1762 5878 3503 5162 4815 4885 5465 4702 
5075 4531 4725 4536 2432 2118 2883 3305 3588 
2490 3128 2387 3544 3184 3446 1505 2263 1722 
1782 3366 691 2356 1953 1694 3641 2663 984 
1872 2105 1288 2459 2577 2099 885 2807 1450 
1095 2095 2591 896 166 865 701 963 2167 
1243 388 1527 43 1654 1400 514 431 1398 
319 4268 937 924 1186 461 231 4606 826 
688 3356 2972 603 806 729 809 862 373 
3491 4100 3625 5454 1564 1077 5752 5103 1429 
189 1970 2665 4348 3316 5218 5658 2588 5512 
1390 3996 5616 3364 5463 4482 3980 5150 4675 
4881 4197 3420 5083 5267 5934 413 5989 2618 
3536 5074 5652 5542 4699 5831 3210 3153 2264 
484 3353 1768 583 3579 2748 3915 3393 3246 
3434 4152 2691 3209 3501 2781 3340 3177 3020 
3262 3546 2821 1803 3406 1126 516 1531 3815 
518 4126 2190 3334 2545 3398 1653 2995 5066 
676 1556 1167 3675 2073 4798 4584 2535 3442 
27 121 2868 2404 1538 3779 5558 521 4738 
5911 3036 3810 2622 5231 4394 2777 4953 5033 
3749 4345 2820 3647 2499 4069 5133 3848 3590 
5674 4173 4141 4180 5404 5042 3052 4335 5834 
4163 4012 5787 3623 5174 5285 4224 5140 5892 
4615 5161 4671 4477 4270 3661 2447 2242 5549 
3594 4655 3433 2835 1018 3897 5496 3041 2608 
3540 3249 2760 3357 4118 4261 1545 4701 5881 
2727 4169 4485 5173 5937 4198 5538 2889 4915 
5485 4056 5094 5969 1473 5916 4115 5987 1763 
4503 4861 2976 4203 4199 5835 5126 4641 4300 
5919 3266 2367 5698 5999 288 4978 5095 5731 
5773 4221 5640 5860 3133 3291 5931 6030 6036 
5464 2902 5847 6046 5984 5119 4432 5543 3850 
3333 5550 5234 2979 5428 3383 5104 5351 5447 
4354 5725 2276 4677 5392 4596 5248 5193 2880 
5473 4839 5113 5249 1609 1857 3562 4813 3656 
2907 5757 4349 5252 3918 5079 5843 3643 4995 
2402 5921 5374 4806 2193 3865 5331 4011 5491 
4617 3759 4756 3138 3840 1521 4826 4687 5972 
3713 5436 2890 1110 2702 3736 5063 3575 4578 
5410 4116 6013 642 3112 2386 2268 5528 5607 
5013 3559 3820 3338 4829 5350 4183 1363 709 
1999 2508 6016 3553 5610 5710 4127 5668 3795 
5561 2226 2416 4581 4238 4502 5891 1937 3881 
2430 4988 5486 2649 5314 5927 1865 1743 3604 
2782 5178 4409 2158 5653 2866 4776 2601 757 
1557 5552 5377 3603 5307 5626 2208 4766 4366 
2472 3224 3814 3691 5527 4803 1183 5215 3783 
3320 4977 5744 5448 5244 3345 1392 5708 5442 
1977 1601 4880 3997 1323 6065 1062 5222 5908 
6064 1199 2728 2284 5813 113 5555 4424 5192 
4380 4627 2466 2496 3942 1690 5294 4228 1764 
2767 2042 2943 4636 571 5327 1736 4226 1755 
1825 1361 5250 3475 3374 497 3773 3671 3883 
4554 5859 3134 4440 5142 5333 1179 4973 4500 
2693 3819 5914 4364 2270 5441 5366 4179 5382 
3412 2639 5902 5712 5849 5736 3250 4271 3386 
3072 5461 5705 5564 5959 2131 5903 5170 3955 
5775 4462 5440 5223 788 2988 3456 5395 5873 
1965 5390 3611 3672 4726 1847 4818 5782 5979 
3385 1992 5650 1646 3219 2024 5707 4302 2506 
4904 321 3026 723 2450 1493 4546 2184 2376 
6060 5068 3111 1084 5398 1900 317 2954 2026 
3610 5332 6066 5838 594 5990 4305 2621 158 
3941 3458 3856 2451 2380 2846 2919 978 2401 
2749 3733 4133 2187 1998 5938 3975 3283 2834 
3451 4232 4229 1705 6058 2594 4033 1806 4025 
2485 5795 2827 3315 5146 4469 4111 5833 2112 
3227 3767 2882 3141 3122 3397 5163 3841 3361 
3403 4187 3982 2969 3295 5498 2785 4358 5266 
4257 4156 4493 5220 4457 2800 3826 2703 4101 
3666 3580 3828 4518 4211 3729 2054 1503 2531 
5128 1838 39 58 2080 2747 3147 2587 4243 
2910 4014 3852 2063 4819 1983 777 4792 5008 
4023 2150 108 77 93 1176 4208 884 1415 
4841 3482 2005 4259 1938 4472 1377 407 1461 
998 2192 1625 1733 101 1926 3953 1204 3509 
2134 2684 2538 2811 1479 2353 2617 1245 2049 
2891 700 2721 1695 3861 2378 2347 2772 589 
1971 3670 2435 1870 4598 2856 2394 662 685 
1748 735 2070 1899 215 3688 3639 303 2232 
5384 1148 51 46 111 2547 3732 5412 909 
4263 3379 296 284 581 894 1651 4355 1194 
2438 698 577 1968 1200 1032 1404 3618 2322 
1322 1585 2656 1114 102 1100 1708 1592 463 
2653 1434 2304 3452 1754 24 3263 1669 4343 
2817 941 1079 2343 6024 2926 4767 5309 334 
4515 794 1830 3931 3247 3377 3972 4751 3890 
2491 960 2277 1827 2237 1574 315 1647 1492 
971 42 3607 1160 1810 1163 1393 543 1193 
2233 711 2877 1383 965 2127 493 172 2681 
1366 755 1869 1735 2038 14 584 1004 2248 
2213 1406 3011 804 152 415 179 670 1452 
829 1280 989 85 291 727 1203 1091 1097 
1138 256 64 645 841 104 1516 156 630 
677 480 785 921 445 805 492 2274 384 
207 83 395 672 1671 438 2521 1819 5537 
981 2805 2646 3389 4920 2534 4346 618 4377 
3476 4204 4923 5952 5121 3903 5753 220 4824 
3171 2935 4497 1943 3282 4329 5612 5651 6049 
3467 5020 3541 5756 5806 5630 1794 6018 5722 
3477 2829 3956 4356 4225 3448 4254 2173 3229 
930 1746 657 3251 2297 1482 1716 1710 707 
1254 2340 2018 2228 3473 3231 2335 1448 1641 
3100 56 1172 1090 752 1598 883 2050 1258 
206 1559 1334 393 1002 1157 897 671 2265 
1358 262 404 1626 2060 1219 1727 105 591 
1480 724 451 605 555 280 1206 564 1465 
370 798 3597 2241 57 227 1888 2315 756 
3218 453 1075 592 3106 9 3909 2100 2528 
5600 476 2530 4105 3488 4438 4390 2996 5270 
4715 5764 1753 1987 4314 5155 5582 5518 3440 
4072 5330 2333 4843 2722 5703 5242 5011 5830 
2563 5323 4193 5933 4681 2938 5551 5143 5729 
5403 3870 5439 5004 2165 4940 2738 2870 4005 
2881 2469 3745 3048 2744 2606 3939 4155 2977 
3685 3065 4528 2620 4691 2696 2389 2924 1551 
2023 1723 2391 800 567 721 310 3094 2032 
2273 482 1605 1843 1590 442 250 2527 347 
1385 1099 1643 715 587 907 2497 2142 1388 
1481 472 1916 681 3614 1226 1510 3904 1718 
2980 1162 2764 1579 3457 4045 3929 1957 3310 
5925 3480 5479 5431 4543 5572 536 5981 5810 
4653 3275 5092 4993 4990 5381 2180 3985 5108 
4934 4763 3046 5974 6061 3906 4068 5023 4234 
3015 6038 5850 5214 3589 4845 5649 4868 4694 
4730 4557 5112 5501 5544 3542 3583 3659 4507 
2965 3837 4559 3410 3599 3511 4608 3910 2052 
3652 4946 4418 4351 3173 3165 3806 4613 1012 
4755 2993 5386 4549 4698 2110 3489 3895 2798 
3885 4793 3721 3076 2610 2144 1941 3400 3502 
1299 2306 4200 5721 4693 5195 5576 2467 3646 
3584 3505 2720 4673 5096 5099 3705 4724 4119 
5785 3740 4887 4852 4620 5884 5631 6055 4652 
5922 2029 4445 5275 1956 5443 4601 5337 5604 
3044 4442 5254 5438 4972 5257 4247 3096 2804 
264 3990 4870 3664 5284 4431 5100 4522 5817 
5547 5749 4619 5574 5125 4341 3279 4999 2076 
6002 4603 3292 5091 5637 5264 4037 4492 3678 
4891 4508 1877 2057 386 3037 3934 4844 4217 
4213 1049 5569 5930 4529 1856 5745 5945 3135 
5212 5130 3164 5253 5321 4676 3979 2016 4379 
3924 5812 2047 4157 5877 4460 3582 5771 5648 
4275 2092 4959 5123 5585 3063 2507 3711 5590 
5942 5627 4402 5625 4579 5832 2942 5054 5239 
5334 4654 2223 2041 4075 5825 5622 4112 4564 
5786 3450 4555 2044 3679 3234 1569 6044 4670 
5151 5357 3788 4273 2295 4796 5620 5394 4998 
3875 4886 4728 4160 3612 5148 5657 5276 5879 
3145 2084 2541 4548 3694 6052 4414 5444 3925 
3884 4937 5747 4071 2674 4838 5961 5401 5694 
3474 5994 3651 3952 4175 4266 4423 6051 4736 
5225 4332 5361 3523 5116 1351 4869 2786 3844 
5482 4223 1882 249 5490 1773 4595 5801 5152 
3148 3332 5246 3864 1692 2160 2313 1042 3633 
5792 2970 5003 5415 4451 5016 4090 5340 2981 
5741 1030 4031 2300 3703 5452 2413 1954 3799 
3515 4624 4561 2199 5365 1940 4010 1656 5770 
4695 1365 3569 1547 2470 3355 4889 5279 5432 
4647 1230 3242 3878 967 4918 1699 5767 5036 
3628 2307 5484 2590 5072 5839 3194 2287 2390 
4836 2137 195 2581 5867 3965 1007 2178 4790 
2874 131 5953 3461 5209 3018 1256 5138 4716 
4296 4966 3874 813 3425 6048 5391 159 5762 
3255 4454 5686 2278 3771 504 3543 5912 5336 
4877 4372 4189 2813 5295 6003 3203 3550 4684 
5208 5516 1725 3930 3130 3258 4968 5699 4510 
2312 4255 5399 1826 5449 1435 1001 4855 5034 
5352 5851 5356 4811 5219 2929 4410 1701 5689 
3983 2381 2183 137 4099 3927 3009 4846 3803 
5964 5971 4563 3426 1808 3920 4858 4585 3717 
3417 2443 5494 4917 3606 1035 2043 4003 4219 
3596 4499 4383 2498 1431 1813 1474 3832 2632 
3774 1346 5675 5015 2743 5080 4609 1610 3720 
5976 3188 1217 5077 736 1784 2855 3794 114 
2605 5292 2458 3222 3354 5853 3346 4331 4704 
2652 1143 4706 5676 977 4612 1580 5523 4734 
3300 5177 4963 5763 5115 5646 1338 5256 2106 
3424 5928 4222 1775 1104 802 1929 772 1931 
5909 5389 4831 2848 973 4290 4496 4646 4430 
4604 4800 3914 5513 3578 5205 5235 4874 5858 
4930 4367 3591 190 4292 5206 4659 416 4083 
5682 5840 3270 2198 3213 703 2953 169 2449 
3284 3772 820 2163 2384 1443 4253 1220 787 
939 1314 1248 3445 5829 5814 2230 222 4089 
2056 1720 5434 5088 1702 3143 3565 4538 1350 
776 5262 3631 1132 2598 1785 5450 2336 1801 
2644 868 2967 2069 4633 1948 5245 2293 3195 
3944 3602 6057 3154 5154 3660 5459 1498 4143 
1873 4052 2567 6041 3056 1086 2647 4237 2495 
1676 1839 1238 838 1387 991 300 1379 2074 
4985 176 600 230 2487 2502 1231 669 3964 
1678 94 3027 945 827 1555 1061 1804 1915 
261 70 1548 1213 8 277 1198 447 1928 
2518 627 2532 1289 980 4274 2440 1224 1153 
2219 33 5647 875 2678 5190 3746 4196 5101 
2196 2582 3663 2209 4294 4428 2010 1618 1644 
1384 5280 554 1019 239 4344 1360 1739 1924 
2700 2556 2658 2971 3520 2680 4241 2712 2372 
481 2578 5876 2716 696 5078 1356 4804 5153 
1165 2003 2529 1911 1409 1367 1616 2093 3778 
3083 1235 561 2847 320 1342 761 716 263 
349 588 839 161 911 1134 109 185 784 
351 382 974 793 4 359 219 201 97 
780 154 59 613 675 405 1797 936 557 
596 3757 1029 2411 4650 4144 3215 3232 2908 
1985 1638 2426 1499 775 1758 140 604 4834 
5955 1567 1789 2087 3696 1033 3921 5733 5411 
5263 4404 3484 5844 3728 2675 4523 1572 5002 
4856 4589 4898 4771 5617 3718 1209 4974 4760 
3085 4125 2175 4374 1809 2836 1624 2200 3893 
5602 3428 2181 3272 3265 3119 2761 2145 1239 
1658 2028 1786 103 1273 1876 1161 168 1175 
112 1085 1156 1348 808 1444 779 764 1067 
578 879 1266 1101 1048 1581 344 253 134 
553 3206 1497 959 665 1094 3510 4181 4154 
2067 1862 4001 2830 1821 3689 2364 4964 2210 
4162 5587 3704 4783 2045 4065 4494 6062 3755 
2923 3535 5344 3314 4797 3700 1602 5866 5906 
2125 6031 2133 5277 4066 5807 5320 1475 285 
1402 3829 2007 4413 2405 5836 5467 1529 4235 
5457 3289 4833 4787 4053 2493 2611 2790 3462 
3254 3750 2906 3838 1703 3309 3999 3257 4178 
3470 3635 2561 2724 84 2983 1734 1124 769 
651 763 430 87 692 2928 1234 759 450 
1329 2296 1432 771 1158 439 21 2941 2828 
731 2395 892 2826 539 3430 933 3002 3816 
5172 4520 3256 4301 2695 5954 5047 4008 5519 
5339 4506 4194 2637 4916 2845 1026 3946 2201 
3640 232 2841 5958 5613 4168 2885 824 5067 
4971 4623 5466 5301 3940 1207 3429 3871 1008 
3853 1423 4505 1295 5642 5683 5353 4997 2559 
4324 5774 3617 3636 5636 4091 3240 2481 3151 
4754 3193 2865 3157 3812 2446 273 3380 1603 
3811 2006 3831 1524 3707 318 1147 1395 6034 
2766 3619 2373 1412 1422 2218 2756 5283 5644 
2294 3339 1260 4504 2986 2947 1964 4230 816 