# vtk DataFile Version 4.2
Generated by LIGGGHTS
ASCII
DATASET POLYDATA
POINTS 6000 float
0.0297693 -0.0334506 0.00924968 -0.0221329 -0.0389318 0.0134414 -0.019107 -0.0404684 0.0109641 
-0.0150577 -0.0394914 0.0111552 -0.0165008 -0.0417745 0.0141973 -0.0175401 -0.0378874 0.0144864 
-0.0140569 -0.0390664 0.0160668 -0.0126039 -0.0428155 0.0156267 -0.0201513 -0.0400955 0.0170035 
-0.0113711 -0.041364 0.0120598 -0.00845862 -0.0441779 0.0118764 -0.00786747 -0.0387827 0.0106735 
-0.00446854 -0.0410919 0.0113371 -0.00481822 -0.0443472 0.0138054 -0.00854918 -0.0401617 0.0149155 
-0.00460728 -0.0390912 0.0152395 -0.00886685 -0.043792 0.016758 -0.0105881 -0.037465 0.0173018 
-0.00173589 -0.0447914 0.0109703 -0.00027881 -0.0373293 0.0111503 0.00339778 -0.0408802 0.0114306 
0.00247523 -0.0448156 0.0122727 -0.000662754 -0.0414062 0.012855 -0.00026128 -0.0381159 0.0153049 
0.00288475 -0.0407942 0.0155398 -0.000859835 -0.0448236 0.015114 0.00308409 -0.0448657 0.0163401 
0.00953201 -0.0438717 0.0109893 0.0120514 -0.0388452 0.0116391 0.00745269 -0.040586 0.0126143 
0.00633943 -0.0444606 0.0133603 0.0108236 -0.043603 0.0151125 0.0104541 -0.0396131 0.0152812 
0.00682352 -0.0403885 0.0169402 0.0134673 -0.0428667 0.0121501 0.0159906 -0.0398028 0.0111168 
0.0189908 -0.0403704 0.0141819 0.0153095 -0.0379147 0.0151486 0.0149616 -0.0423227 0.0161716 
0.0192278 -0.0372218 0.0170433 0.023846 -0.037851 0.0124087 0.0248516 -0.0374431 0.0162997 
-0.0321884 -0.0308457 0.0114781 -0.0293953 -0.0339139 0.0145452 -0.0327589 -0.0308023 0.015619 
-0.0267022 -0.0361393 0.0121297 -0.0278937 -0.0318941 0.0105648 -0.0246225 -0.0297352 0.0118985 
-0.0285839 -0.0289244 0.0137766 -0.0242222 -0.0331738 0.0139029 -0.0261073 -0.0366021 0.0165686 
-0.0207373 -0.0363057 0.0106353 -0.0267168 -0.0312882 0.0169736 -0.0213976 -0.031942 0.0170546 
-0.0211094 -0.0360338 0.0168799 -0.0163444 -0.0353984 0.0112523 -0.0165939 -0.031105 0.0114707 
-0.0201116 -0.032234 0.0130292 -0.01391 -0.0319999 0.0148072 -0.0184317 -0.0295501 0.0156785 
-0.0176742 -0.0340194 0.0156533 -0.0138369 -0.0350914 0.0173581 -0.0115873 -0.036706 0.0134926 
-0.00447732 -0.0367618 0.0114424 -0.00816709 -0.0343763 0.0119139 -0.0100756 -0.030601 0.0130244 
-0.0121892 -0.0334606 0.0109628 -0.0043625 -0.0325369 0.0110569 -0.00645354 -0.0313611 0.0148411 
-0.0070276 -0.035925 0.0155827 -0.0101022 -0.033452 0.0165298 -0.0102636 -0.0291059 0.0169595 
0.000940931 -0.0327389 0.0110943 -0.00193994 -0.0300457 0.0132117 0.00361784 -0.0335437 0.0139626 
-0.00168899 -0.0343926 0.013663 0.00138493 -0.0304217 0.0156019 -0.00320904 -0.0359126 0.0174075 
-0.00242069 -0.0319656 0.016951 0.000988991 -0.0346083 0.0169818 0.00484611 -0.0369955 0.0159269 
0.00439978 -0.0369922 0.011495 0.00442379 -0.0297839 0.0113776 0.00707565 -0.0332254 0.0114213 
0.0121339 -0.0325281 0.0119651 0.00892438 -0.0289148 0.013262 0.00816137 -0.0366746 0.0132702 
0.0120112 -0.0354663 0.0147184 0.00575858 -0.0302808 0.0155636 0.00852306 -0.0331811 0.0156697 
0.0192884 -0.0365458 0.0128574 0.0147796 -0.0355826 0.0117217 0.016719 -0.0311593 0.0115982 
0.0169312 -0.0339575 0.0152412 0.0183583 -0.0295601 0.0166704 0.0208357 -0.0322516 0.0127466 
0.0248352 -0.0325804 0.0118831 0.0276228 -0.035469 0.0126529 0.0273065 -0.0305007 0.015144 
0.0232689 -0.0337399 0.0157736 0.028235 -0.0347465 0.0167243 0.0223757 -0.0294548 0.0169184 
0.03379 -0.0286326 0.00941481 0.0319021 -0.0309521 0.0121297 0.0317924 -0.0317941 0.0167558 
-0.0398265 -0.0204309 0.0107518 -0.0376476 -0.0234927 0.0154707 -0.0353244 -0.0277463 0.0132268 
-0.0343893 -0.0238426 0.0128519 -0.0302019 -0.0248197 0.012659 -0.0325949 -0.0262311 0.0159702 
-0.0316337 -0.022109 0.0164713 -0.0362006 -0.0266974 0.0178081 -0.0248563 -0.0248726 0.0134663 
-0.021049 -0.0239045 0.0111567 -0.0274771 -0.0220448 0.0148336 -0.0236877 -0.028427 0.0155896 
-0.0238795 -0.0206304 0.0164663 -0.0285043 -0.025615 0.0163333 -0.020791 -0.0281672 0.0126633 
-0.0240561 -0.0247064 0.017578 -0.0137582 -0.0284212 0.0127725 -0.0174281 -0.0260274 0.0130732 
-0.0175582 -0.021548 0.0120047 -0.0137985 -0.0239121 0.0115417 -0.014916 -0.0277124 0.016581 
-0.0163666 -0.0231699 0.015775 -0.0198864 -0.0212635 0.0155581 -0.0206201 -0.0253818 0.0156089 
-0.00675239 -0.0286269 0.0118877 -0.0103167 -0.0268956 0.010985 -0.00664907 -0.023472 0.0115391 
-0.0103008 -0.0218063 0.0117017 -0.0083378 -0.025621 0.0145598 -0.0122839 -0.0249687 0.0151814 
-0.00970307 -0.0216764 0.0157893 -0.00436602 -0.0241338 0.0149969 -0.00551608 -0.0273788 0.0171863 
0.0010761 -0.0275404 0.0113345 -0.00342952 -0.0263977 0.0109629 -0.00165424 -0.0223064 0.0116891 
0.0022349 -0.0230488 0.0127085 -0.000699117 -0.0256167 0.0143594 0.00406036 -0.026042 0.0151778 
-0.000149435 -0.0215782 0.015947 0.00390972 -0.0218381 0.0163821 -0.00153638 -0.0280529 0.0176484 
0.0105104 -0.0228808 0.0119418 0.00543463 -0.0256933 0.0113907 0.00645075 -0.0211147 0.0132146 
0.008092 -0.0244446 0.0147382 0.00853819 -0.0277435 0.0171218 0.0111219 -0.0242708 0.017409 
0.0136073 -0.0287004 0.0110335 0.0191089 -0.0281557 0.0127485 0.0157809 -0.0242413 0.0122379 
0.0189279 -0.0212857 0.0122875 0.0127308 -0.0261012 0.0141362 0.0168418 -0.0258182 0.0160176 
0.0152691 -0.0216019 0.0165412 0.0194423 -0.0220063 0.0166696 0.0289249 -0.0278713 0.011988 
0.0235599 -0.0282653 0.0130438 0.0219605 -0.0248319 0.0109499 0.0263641 -0.0242965 0.0118952 
0.0270605 -0.0202899 0.0121699 0.0222671 -0.0253368 0.0158883 0.0265126 -0.0262418 0.0155672 
0.0233633 -0.021545 0.0149364 0.028283 -0.0214867 0.0168532 0.0318906 -0.0206904 0.0126629 
0.0336461 -0.0244351 0.0115184 0.0359382 -0.0270418 0.0138591 0.0306798 -0.0242287 0.0142607 
0.0311831 -0.0279584 0.0156369 0.0347761 -0.0210537 0.0154434 0.0342336 -0.0248182 0.0170241 
0.0383322 -0.0233405 0.0105216 0.0401131 -0.0201662 0.0140183 0.0381533 -0.0234629 0.0160466 
-0.0417592 -0.0161635 0.0143808 -0.0388823 -0.0133789 0.0136016 -0.0379411 -0.0176226 0.0131997 
-0.04318 -0.0125205 0.0155005 -0.0403336 -0.0197769 0.0156584 -0.0346105 -0.0198642 0.0134659 
-0.0305453 -0.0198173 0.0132498 -0.0336087 -0.0161386 0.0121432 -0.0324788 -0.0133486 0.015248 
-0.029143 -0.015928 0.013156 -0.0359796 -0.0155029 0.0161419 -0.036569 -0.0198207 0.0170307 
-0.0321883 -0.0179919 0.017077 -0.0253138 -0.018065 0.0132122 -0.0254602 -0.0139008 0.0131659 
-0.0213314 -0.0185793 0.0129282 -0.0216033 -0.0145153 0.0142945 -0.0282006 -0.0182967 0.0162615 
-0.0247098 -0.0156707 0.0166934 -0.0289588 -0.0143248 0.016949 -0.0139785 -0.0192175 0.0122055 
-0.0138618 -0.0152201 0.0120624 -0.0179561 -0.0167449 0.0115459 -0.0175896 -0.0139529 0.014504 
-0.0134674 -0.0202952 0.0161178 -0.0168721 -0.0183283 0.0152125 -0.0137543 -0.0128906 0.0156741 
-0.0205385 -0.0173478 0.0177544 -0.0198236 -0.0127352 0.0179007 -0.00667726 -0.0151644 0.0129125 
-0.00514058 -0.0191326 0.0109372 -0.010325 -0.0177403 0.0113812 -0.00681002 -0.0188333 0.0151769 
-0.0104503 -0.0171361 0.0157671 -0.00825266 -0.0137846 0.0163608 0.00123807 -0.0190608 0.0113652 
-0.00266465 -0.0145799 0.0129576 0.0019797 -0.0148787 0.0120019 -0.00218674 -0.0186309 0.0139003 
-0.00042875 -0.0121756 0.0155393 6.92712e-05 -0.0161165 0.0163466 -0.0037468 -0.0201378 0.0174262 
-0.00421439 -0.0154336 0.0167452 0.00958484 -0.0184431 0.011657 0.00694257 -0.0153839 0.0124211 
0.0122657 -0.0154731 0.0136593 0.00431093 -0.01798 0.0145614 0.0108245 -0.0196591 0.0154526 
0.00424156 -0.0129179 0.0154525 0.00767628 -0.0150681 0.0163562 0.00706882 -0.0191799 0.0172755 
0.0117881 -0.012887 0.0167186 0.013709 -0.0203118 0.0120724 0.0203994 -0.0151684 0.0123336 
0.0169205 -0.017393 0.0134878 0.0154651 -0.0132273 0.0148035 0.0137129 -0.0170165 0.0172739 
0.0183509 -0.0155187 0.0167641 0.0227127 -0.0199966 0.0112779 0.024888 -0.0149087 0.013558 
0.0207722 -0.0181804 0.0149511 0.0256133 -0.0181574 0.0158958 0.0220085 -0.0121181 0.0155987 
0.028133 -0.0139025 0.0163398 0.0355875 -0.020003 0.0109327 0.029312 -0.0167988 0.0130988 
0.0359648 -0.0133391 0.0134637 0.0341813 -0.0173873 0.013691 0.032101 -0.0144374 0.0155094 
0.0317216 -0.0186972 0.0167677 0.0358093 -0.0120908 0.017647 0.0381209 -0.0171016 0.0122355 
0.0418665 -0.0159883 0.0134432 0.0375641 -0.0178524 0.0161384 0.0392369 -0.0140361 0.0158063 
0.0430503 -0.0127328 0.0163842 0.0417281 -0.0166838 0.0174807 -0.0415932 -0.00548355 0.014082 
-0.0378671 -0.00393245 0.0141015 -0.0440037 -0.00858549 0.014997 -0.0397469 -0.00961289 0.0147866 
-0.0401688 -0.0118764 0.0181339 -0.0411145 -0.00726021 0.0178017 -0.0446197 -0.00536984 0.0173324 
-0.0361606 -0.00775198 0.0139984 -0.0338422 -0.00437124 0.0137786 -0.0324343 -0.00933852 0.0148183 
-0.0360003 -0.0114614 0.0156585 -0.0302306 -0.00410285 0.0156606 -0.0290669 -0.0117446 0.0138754 
-0.034164 -0.0067343 0.0173484 -0.0293736 -0.0103666 0.0178226 -0.0258311 -0.00960958 0.0126169 
-0.0225745 -0.00698868 0.0126326 -0.0287103 -0.00773415 0.0148325 -0.0258179 -0.00492878 0.0151812 
-0.0258147 -0.0118213 0.0166432 -0.0222303 -0.0105578 0.0153222 -0.0202571 -0.0112632 0.0117338 
-0.0155078 -0.0115563 0.0118801 -0.0185896 -0.00716619 0.012337 -0.0145825 -0.00494824 0.0120643 
-0.0139324 -0.00864949 0.0145731 -0.0171962 -0.0047049 0.0152758 -0.0202416 -0.00717425 0.0161366 
-0.0174007 -0.00999071 0.0161712 -0.0114643 -0.0120169 0.0118343 -0.006482 -0.0102563 0.0121623 
-0.0108008 -0.00711737 0.0124023 -0.00711684 -0.00610714 0.0140152 -0.00953094 -0.0101882 0.0148529 
-0.00445809 -0.0114361 0.01557 -0.0104024 -0.00635018 0.0165268 -0.0071128 -0.00858662 0.0176663 
-0.00615058 -0.004466 0.0175418 -0.00209437 -0.010185 0.0122957 -0.00413745 -0.00580607 0.0113268 
-0.000393694 -0.00545906 0.0134606 0.00188028 -0.00896152 0.0142272 -0.0033935 -0.00758932 0.0150718 
0.00264857 -0.00547991 0.0165748 0.0117 -0.0117229 0.0121237 0.00519933 -0.0107697 0.0122042 
0.00882799 -0.00812358 0.0113298 0.00517904 -0.00669156 0.0133248 0.00861324 -0.0113462 0.0148151 
0.0117694 -0.00844976 0.0146112 0.00863593 -0.00579644 0.0158163 0.00490605 -0.00873737 0.0171534 
[...]
POINT_DATA 6000
FIELD FieldData 7
id 1 6000 int
471 1093 48 684 552 466 517 842 1060 
1044 755 498 825 316 14 63 1706 979 
574 69 62 452 2537 244 71 252 1 
791 600 139 537 1741 38 1031 270 1619 
1883 204 1903 835 502 652 638 421 869 
1074 170 822 1269 88 1449 550 1078 499 
1197 265 547 7 2109 1135 762 179 441 
626 415 145 561 1011 1191 1139 425 1290 
588 507 519 632 1141 1715 804 2213 622 
123 1301 365 727 685 51 1652 784 568 
843 230 339 660 2547 248 251 281 662 
870 49 2460 935 20 525 330 1401 1311 
529 278 32 1071 1419 1072 1090 713 646 
1523 427 221 926 1097 991 1452 812 761 
716 1342 479 307 393 444 1157 148 648 
448 1001 276 789 989 333 1542 839 1203 
1583 460 304 46 329 28 848 382 1406 
176 80 411 214 363 852 640 284 118 
522 64 402 732 291 215 708 1148 165 
3 268 35 2810 706 2418 531 126 738 
1628 957 474 1713 647 75 1022 678 707 
128 397 1039 1562 404 1561 349 759 1172 
1085 829 749 1156 380 793 1244 1252 919 
1276 944 184 1436 112 1626 25 1368 377 
1219 949 1381 607 464 1761 2439 337 780 
235 911 1091 782 1151 219 962 109 515 
1061 1440 398 1781 85 156 223 801 492 
894 314 988 274 247 296 694 985 435 
364 143 1318 528 1333 1243 1016 107 2326 
984 1458 2366 136 635 1491 434 168 171 
906 103 262 1369 1108 1216 808 1430 1131 
327 1266 564 982 1357 623 535 673 1171 
803 555 1067 526 650 1824 750 185 1684 
182 1861 1549 1714 1138 161 725 410 138 
11 1155 1057 455 2 841 445 987 1253 
602 921 677 392 282 548 909 669 581 
111 437 440 781 73 1189 1092 1802 629 
350 606 396 257 917 1765 484 45 1462 
916 952 1709 1570 206 590 236 840 153 
1304 1560 366 388 105 1002 721 1494 836 
764 815 1665 731 163 1101 1206 98 779 
65 974 975 469 830 345 995 831 931 
760 818 256 758 951 1036 285 821 925 
222 1453 1232 616 217 97 847 614 1038 
858 301 675 8 277 83 29 91 558 
645 324 630 261 512 178 18 432 34 
654 1065 576 216 1525 849 1177 353 1426 
250 865 483 162 538 310 442 196 1480 
1287 591 937 715 451 1066 122 667 1634 
280 326 368 605 508 269 465 487 419 
37 633 724 4 1169 942 873 1208 1143 
41 488 188 104 354 202 908 882 565 
1205 785 805 1321 699 213 653 1804 783 
1257 405 76 580 1404 70 308 379 211 
384 238 864 582 401 383 886 1372 609 
1732 210 1930 887 166 146 1648 92 1095 
306 795 1180 2167 472 1070 27 859 311 
266 1398 879 513 177 619 634 534 578 
532 553 130 714 689 359 286 253 340 
391 372 1054 1094 659 82 613 1438 585 
541 381 523 344 390 423 271 1532 1214 
47 1471 480 59 936 1766 545 400 682 
598 463 1284 1045 1015 209 403 687 993 
811 13 40 100 133 420 132 129 456 
370 357 288 348 603 461 1465 560 867 
490 1048 439 1888 1271 914 142 890 501 
1117 352 1339 134 1159 1332 1149 53 2132 
1075 665 154 332 323 164 124 1792 1192 
1029 1182 149 1738 1910 1671 341 1901 551 
496 2659 208 44 338 258 863 1211 819 
809 637 86 1164 940 1000 127 200 983 
227 373 601 279 681 688 592 325 57 
298 1969 275 1536 1429 2528 295 1957 666 
557 1693 50 2551 2879 2100 453 2776 362 
618 1043 1272 438 207 1961 2629 2915 1829 
2523 575 910 572 160 862 828 1069 1118 
1195 970 1621 229 1162 1749 60 399 530 
1017 175 446 1390 2515 23 1564 61 874 
2996 1762 2475 636 2111 9 672 2705 2182 
2511 658 797 1922 315 42 1053 1733 172 
429 294 998 767 810 493 66 2444 902 
1376 1371 30 2206 1393 589 2101 1379 1625 
3471 117 2378 2380 1846 2513 2681 2809 234 
2192 1546 135 292 468 1890 1307 2586 1787 
2856 3827 918 1691 2867 542 3269 2019 4232 
3453 3418 2479 2920 500 1294 358 1261 1947 
2149 1492 1336 1456 960 948 543 1926 1827 
700 773 1776 1181 570 297 1245 584 1204 
2346 1748 320 1055 2070 1193 1238 1735 2677 
1971 351 2614 152 2894 1280 1899 2502 2627 
2347 735 670 772 1775 2074 802 3439 3227 
3315 2394 3382 2487 1668 2001 3397 3492 2850 
720 3639 2122 4124 3098 4746 3938 3298 4074 
3008 3416 4362 1115 1588 2173 2327 850 1345 
976 1790 2094 1445 336 1810 649 711 1235 
1366 1163 1383 965 1409 1004 2038 897 752 
1387 1086 300 6 2003 1994 1839 1931 1929 
778 1283 1231 2086 753 929 2214 1963 3105 
955 786 1166 1408 1678 2291 1699 2123 2085 
1483 3073 1841 449 2055 2648 2247 2323 2125 
3493 2752 992 3077 2997 2773 4285 2969 3577 
973 303 2740 3964 2775 3841 5384 4083 710 
3923 3933 3534 1145 4088 5181 3455 3059 679 
473 3313 549 608 1240 2292 2097 1421 1934 
1021 2432 2478 691 56 1358 885 1258 263 
1641 1694 1254 2423 1068 1134 369 972 2028 
1161 1616 1476 2272 898 891 2259 1133 1375 
1486 1696 1604 167 193 1981 566 1936 1537 
2504 2407 1489 2207 1834 2176 1842 1003 1274 
1435 2298 1979 1270 1635 1940 2540 2194 2741 
696 1338 1894 2102 2010 1580 2494 3003 2449 
201 968 1897 1517 509 3213 2230 1995 1639 
945 2232 94 2580 3379 1555 3688 3591 3914 
3147 2711 774 2785 2542 3618 3702 4405 2008 
1152 1630 1962 2626 3212 3549 3006 2636 2263 
2663 2452 1334 2883 2459 2104 17 3110 1757 
3353 1505 2023 883 1348 671 2060 1551 2606 
1872 1023 1734 1412 450 505 84 1822 1953 
1273 503 486 595 2083 95 1058 1335 624 
192 693 1468 1384 533 2056 1974 1355 378 
1823 1080 1575 2082 116 1319 2058 1153 1543 
240 454 2948 218 228 1992 1895 977 1281 
212 884 1137 1826 1431 1977 1198 861 712 
458 860 1720 1298 1692 1547 416 1194 2322 
827 3027 1292 1928 1867 820 604 3033 2953 
371 1853 1915 2438 190 2930 2602 2550 1123 
2339 1354 2329 1472 1088 747 2585 1914 2261 
1837 2863 1606 1300 740 1223 2264 1859 1611 
2105 1450 1444 1727 96 1052 1288 1598 2113 
963 1051 1578 1234 769 1175 43 1590 1795 
1124 1116 1620 495 1337 225 556 1250 436 
1125 1728 1380 1485 807 1264 355 877 1278 
813 1248 119 237 1683 317 475 406 249 
1617 872 1035 1425 686 141 1084 744 1997 
1760 224 1170 150 125 346 642 733 1685 
1242 428 1213 999 169 1548 187 723 1935 
2587 1585 2025 577 1512 520 1968 964 734 
1550 698 313 1184 1539 2148 81 737 302 
1891 1129 1600 477 1955 628 1828 1767 1667 
1424 748 857 2022 680 1944 893 2328 1614 
900 2071 1340 1605 1645 851 1400 567 2778 
1524 283 1422 1158 705 1898 1942 651 1573 
610 892 1427 722 137 462 1150 90 1006 
376 322 1040 457 856 1165 424 1796 197 
260 115 16 409 1459 777 5 1112 272 
1286 1233 422 407 293 205 1405 290 787 
1217 875 255 33 1230 939 1353 89 1312 
1403 58 1629 1032 627 1443 1224 2532 2051 
2219 39 1362 1466 981 1027 1651 1322 2236 
309 1200 1584 374 1397 1730 1221 1607 612 
1874 1698 426 656 1215 1887 583 1528 1225 
1218 1864 896 701 1246 1267 1534 2262 514 
2296 1643 559 1654 347 430 516 328 763 
832 1541 697 1185 587 360 144 695 817 
159 1310 1229 1359 106 1952 342 668 1014 
615 923 880 120 946 489 1567 544 52 
321 617 389 846 776 1050 928 443 334 
186 1033 703 1059 775 180 1073 99 814 
24 1187 447 198 1499 2274 980 641 726 
1056 395 1046 173 19 245 1637 1832 1886 
459 78 1228 408 241 1305 26 305 2266 
2398 1642 299 385 927 1724 1320 1913 1188 
2383 2454 540 418 121 663 231 319 1490 
1378 915 1700 798 907 1510 539 933 1099 
21 1719 110 845 147 1530 1260 1106 1328 
1478 834 1316 191 799 1237 2177 259 2441 
1868 823 1107 1119 889 1314 1327 2354 233 
1854 1797 1819 596 1638 2534 1500 2426 3106 
1464 1511 2911 1446 2217 1487 2961 2555 2280 
2518 938 1576 2857 2704 181 1632 1687 1259 
2136 267 997 664 1612 1024 676 367 2116 
895 31 194 1679 254 2764 1906 756 2161 
4264 387 1103 826 729 1388 766 1538 2241 
1662 1186 1173 1747 1481 1581 2411 1010 1226 
1497 2527 1299 2862 959 1516 2574 2210 2619 
2455 2142 2153 2631 1168 3099 2048 1896 3218 
2364 2544 3436 1862 1414 1821 476 2521 2081 
3689 2793 742 1526 3595 3101 2709 4154 4035 
2324 3432 1855 2331 1711 2999 2290 1146 2256 
853 524 417 1520 546 961 1136 2151 1047 
1005 620 1077 1028 1818 15 2403 2589 2283 
3028 2830 1325 806 674 1306 2315 413 1579 
3409 3052 3206 536 2940 189 1970 1317 2530 
611 2737 3058 3082 343 433 1907 2955 2635 
1750 2393 2633 2844 3466 1801 1360 2096 1451 
978 1990 2605 2353 2891 114 871 2846 3374 
1277 101 2684 2451 3363 3475 3856 3361 2698 
3941 2457 969 3953 2216 3861 3129 3124 3902 
3458 2749 3208 4272 3839 3730 3968 4006 4466 
5236 4073 3834 4768 4569 4942 4447 5124 5760 
5691 1739 971 2237 2175 1849 1840 1647 2277 
1869 1924 2971 2336 2069 2556 2538 2134 1367 
1479 2435 1705 1498 1695 2112 3424 4025 2049 
2617 2772 1870 3137 3011 2495 3132 3122 2882 
2823 4063 2065 2848 2992 2303 2787 3009 3769 
3724 4831 3465 3655 5345 3653 4229 4700 4930 
4187 4122 3741 5194 4777 3935 5858 4718 4605 
5235 4202 5217 4590 3982 4080 4649 5363 4602 
4598 5049 5290 4284 4087 3710 3216 4026 1716 
1809 1482 2000 2477 657 2491 3520 481 1624 
2877 2036 1160 2248 1873 1447 2093 2716 1996 
4237 2847 1676 2309 2119 2652 2320 2332 2075 
2925 625 2039 1111 2791 2596 3016 3684 2604 
2859 3634 3555 1788 1594 2409 2892 3079 3506 
3349 3337 4918 3663 3372 3508 3965 4384 3351 
3867 4540 5128 5723 4263 3770 2694 4530 3772 
4260 4292 5206 4367 4638 4496 5043 4518 4430 
5498 5105 4290 3387 4353 3576 3075 4741 5663 
3714 4703 5348 3039 3421 1650 930 2387 2338 
2297 2212 2510 2410 1574 2428 2127 1770 2340 
2363 2062 1559 3066 1911 1586 1927 2106 2004 
2417 1786 2171 1222 3100 2372 1772 838 2482 
757 1880 2321 2421 2743 3224 1623 2254 1811 
2196 1657 2382 2414 2061 1808 1889 2168 2496 
1660 2362 3280 2682 741 3225 2413 765 3516 
2783 2198 3564 2260 3392 3026 3270 3994 2489 
3346 3435 3729 3727 4219 4003 3217 4243 3538 
5317 3230 2506 3611 4211 5935 4355 3160 3913 
3032 3732 3666 3414 3311 5281 5014 3443 4511 
3984 2746 2135 2569 4000 3324 3479 1710 2490 
2059 3939 4046 2990 3065 2469 1945 2512 2050 
1448 2181 2099 2446 1356 2620 1239 586 1984 
1876 692 36 491 2226 1364 1104 899 2072 
1815 511 1326 644 966 1110 1349 1346 2651 
1900 1470 1836 2042 1144 1950 1701 2087 1875 
1247 943 1109 2188 1557 1589 2624 2344 1113 
1663 1656 1062 361 2115 287 1128 1912 1256 
2033 3860 2747 2128 1251 2672 1967 1313 4021 
1982 1759 2461 4350 3580 3219 2640 2080 1382 
2189 2800 2147 3295 3381 2108 2703 2912 3807 
3373 4478 3084 3019 2222 1707 876 3335 2020 
2358 2612 3102 1659 2310 2453 1768 2738 2118 
1959 3201 1722 2389 2687 2385 3005 1782 3446 
3305 771 2015 833 1703 1202 3083 2317 1147 
739 1496 1082 1122 2002 108 1179 2139 2215 
905 151 10 1529 356 571 736 1690 1142 
996 1190 1087 1295 1533 1920 745 2110 1674 
1467 1780 794 1477 1493 2068 155 1025 131 
1591 1597 1771 702 1386 1020 1544 855 72 
1363 1697 1241 485 1777 2089 2166 1773 3035 
2355 1688 2531 1655 2174 1506 2480 2770 113 
2054 1972 2431 1633 1871 1909 3192 1686 1437 
2982 2623 1939 1331 1013 1347 2114 2245 1154 
3013 2603 1098 1751 2265 2900 3600 2696 2691 
1037 3246 55 3093 3662 1420 2577 3210 2391 
1850 1603 3177 87 2932 2807 3240 1908 800 
318 1391 1723 273 2273 1577 1729 1484 643 
1595 1812 1227 1064 335 1582 1330 1752 140 
1007 243 1291 790 74 1207 239 527 79 
494 1613 2034 1210 866 573 289 1469 1275 
1297 2313 195 1212 1993 2376 1096 1753 2643 
158 1755 22 1794 2767 102 1377 1596 947 
1296 1845 1708 2312 1838 1434 1503 1315 2156 
3012 2503 1670 639 2227 1905 904 1721 1885 
1063 1474 2750 3103 2959 1816 2302 2095 2249 
1531 2447 2987 1385 1798 1831 2341 1527 2591 
2190 3068 1923 2258 2928 2924 3023 2032 246 
506 1432 950 1126 1556 1329 482 1395 3094 
2035 1835 1389 922 386 1554 68 631 1599 
593 1220 621 199 901 888 854 157 2053 
1199 562 2126 913 1344 414 1265 1407 1852 
816 2016 264 232 12 1089 554 510 1455 
77 1303 954 1083 941 1943 1081 1825 1813 
1100 2384 746 2817 2063 878 1983 1985 1592 
1289 2343 1114 1754 2304 569 2653 2392 3413 
1352 1374 1799 1568 1949 881 3758 2666 2739 
2861 1631 1563 2420 1236 2560 3022 986 2129 
3185 242 1805 2655 2852 2400 2501 1689 2197 
2751 1034 2235 2345 2593 2583 67 1817 3431 
924 1167 2404 2120 1991 2545 4184 1653 655 
2484 2073 518 3095 1941 2306 2795 2535 2828 
1519 1783 2294 770 2570 2985 2826 3168 2657 
1127 1951 1933 2221 1844 2152 1475 1615 2572 
2140 2509 3031 1602 1351 1669 3755 2656 2440 
2238 3215 3239 2849 2960 4205 2334 2436 4280 
4346 4403 3243 2805 2754 2905 2768 3726 2654 
3753 2897 2600 2517 4909 4810 2013 3045 2875 
3857 2352 478 3107 412 1673 431 1916 1791 
1514 1851 903 2103 4268 2519 2117 2962 2972 
3396 521 2799 2622 3463 4135 1904 2395 2941 
1718 3430 3597 2497 3904 3457 4043 3614 3117 
3070 3929 2526 3256 3816 4001 2690 3002 3780 
3163 2707 3909 2424 2396 3757 3590 2067 2546 
2646 3563 4065 4070 3859 4105 3822 2975 4482 
3389 4650 3993 2220 3851 4020 4711 4252 3166 
4867 5135 4678 4191 1958 2579 4032 3040 4452 
3762 2794 1121 1399 2064 1535 3367 3405 1627 
2499 1807 2289 2825 2514 2299 2980 3491 2077 
2665 4360 3647 4176 2695 3615 3625 3747 3316 
3226 4865 2549 4391 3967 4345 2588 2325 2618 
3310 3980 3364 3536 4045 4671 4227 2731 3420 
3017 3408 3126 4138 3368 4188 3530 1365 2458 
1743 2644 3509 1998 497 3329 3794 6017 6058 
3773 2639 4133 3449 3975 4400 5178 3708 4683 
3308 3844 4303 4017 3464 1664 3347 3223 3883 
5539 3882 5048 4562 5804 5409 3949 4060 5406 
4600 5282 4484 3869 3285 3723 4128 5808 3668 
4853 5504 4371 4388 4365 4174 868 2598 3104 
2803 1917 2967 3154 4039 3598 3944 2474 2293 
4704 1509 2567 2485 2811 4052 3733 3670 4271 
3451 5736 3767 3141 4663 4111 2079 3029 4033 
5039 5833 3748 4846 4179 4527 4167 4469 5805 
5219 4544 5163 6045 3699 4956 3578 3804 4140 
5909 4556 4874 5846 4740 5106 4985 6007 4747 
4892 4646 5224 4982 6012 5265 5684 6037 4434 
5346 3791 6059 5229 5943 5134 5227 5672 2481 
3025 3195 3830 2412 3893 2200 2658 2680 2578 
2647 2483 2700 2558 2936 2721 1881 3778 4241 
3983 3358 3942 3119 3401 2871 3524 2818 2831 
3130 2282 3621 2668 4036 3116 4437 3907 3927 
3207 3931 4050 3920 3191 5446 4029 5035 5341 
4099 4383 5867 5840 4595 4131 4984 3717 4625 
4433 2014 3738 4800 5205 4659 5775 5127 5390 
5412 5451 5913 5513 4888 5238 4493 5097 4682 
4689 5936 5304 4737 5962 4308 4719 5740 5514 
6010 3737 3336 2611 3251 2552 3229 1800 1948 
3085 3344 3607 3473 2145 3231 3265 2667 2228 
3462 2468 1675 1746 2377 1863 2473 2285 2917 
2763 2557 2529 2470 2779 2792 2091 2733 4407 
2594 2466 2873 3202 3532 1209 3422 953 3987 
2637 3547 2734 3196 3286 2638 1042 2815 4038 
3120 3306 4378 3781 2017 2939 4903 3461 3553 
4499 3284 3203 3801 4255 4302 4796 5065 4461 
3268 5069 5489 3672 3620 3828 3826 4457 5705 
5223 4101 4257 5716 5915 5423 5586 4095 5188 
4910 4935 4147 4357 5322 4782 3954 5680 3069 
4610 5665 4567 5553 2762 2836 3254 4254 3048 
4005 3293 3309 2881 3470 4178 2233 2018 3128 
4374 2561 4089 4498 3272 3151 2761 1658 2745 
3139 2399 2616 1893 2899 1513 2307 2576 1866 
2790 2005 2137 2554 1282 1515 2243 2563 2098 
2351 2240 1636 1725 1860 2205 2564 1601 1919 
2199 2287 1439 1856 2158 2689 1341 1565 2361 
1966 1704 1488 3053 1417 1879 1640 2239 2371 
2429 3486 1183 2609 3846 2450 2927 3550 3390 
4102 4107 3872 3375 4389 4212 4376 3572 3454 
5864 5478 4013 2536 3709 3957 4309 5700 4412 
4279 4372 3745 3588 4002 2870 3184 3020 3641 
3542 4940 3366 3838 3617 3659 1878 3257 2744 
2945 3157 3613 2724 3062 3977 3743 990 1892 
1784 2143 1680 2314 1902 2669 2759 1495 1789 
788 2209 1921 1609 796 2571 1988 2898 2375 
751 1742 1736 1350 719 1764 1262 1672 1196 
1392 2024 2408 1622 1396 2246 1820 2507 1918 
1756 2047 1473 1847 1309 1540 994 2146 956 
2170 2416 2632 1501 2330 768 1507 2575 1558 
3371 2951 2284 3342 3606 2786 3131 3055 2437 
3057 2688 1041 3478 3784 3388 5131 3548 2843 
3459 3777 2998 2732 4382 3260 3682 3359 3362 
4828 4240 2933 2356 3393 3544 2974 3189 3915 
3153 4608 2965 3511 2865 3169 2442 2977 2076 
3895 2006 3248 2141 1769 2057 1877 2164 1018 
2040 1361 1569 1268 824 1293 1130 967 1370 
1076 1504 1960 1008 2661 1649 183 174 1201 
1324 2599 2084 1463 312 2029 2270 920 1502 
1712 331 1255 1105 1441 2223 754 1572 709 
2253 1030 1026 504 579 1079 1140 2448 1666 
2157 1975 2755 470 1980 1418 594 2553 1978 
2397 2030 2250 2664 3472 2162 1566 2813 2379 
2866 2456 2107 2419 3297 2202 2958 2910 3494 
4055 3220 2943 2365 1461 2896 2613 563 2251 
2130 1249 1571 2486 1587 2796 2748 3599 3546 
3089 3162 2642 3406 3410 3501 2686 3209 2983 
2052 1803 3262 1460 1545 1413 1012 1858 1843 
2465 2756 2516 3173 1279 2133 2373 1814 1618 
1518 2090 1973 1454 932 1552 2360 2991 3197 
1120 1343 2348 2929 2021 3266 93 599 704 
1410 1522 1049 2275 2333 718 1176 1508 1263 
2525 1019 2374 1415 2045 1009 1442 226 1702 
2342 2370 1830 2031 2369 2406 2488 2842 2964 
3570 2753 3136 3238 3529 2229 3323 3296 3829 
4298 2780 2860 2184 3481 4707 1394 3087 2242 
3427 2781 3540 2895 2462 3399 3815 2789 3661 
3340 3400 2821 1932 2311 2144 3581 3398 3868 
4334 3304 4549 2641 792 2798 3442 2218 4693 
3678 4126 3958 3619 3190 2816 3811 3339 2765 
3705 3646 4118 2359 690 1402 3526 2634 4395 
2660 1682 2904 3537 2500 3480 2679 2725 2952 
3376 3916 4117 2279 2903 2163 743 3232 2923 
2568 3649 3452 4837 4685 5110 4872 4094 3900 
4883 3317 4932 4139 3681 4668 2650 4592 3793 
4159 3855 5040 3071 4276 2257 2758 2944 3514 
2676 2708 3322 2797 3512 2814 3843 4158 3038 
3809 4635 4098 3290 4082 2467 3675 3517 4995 
2868 3779 2720 4115 4583 4738 5231 3505 4520 
3749 1964 2947 5096 2592 2854 4100 4113 4119 
3704 3510 4181 2978 2027 2957 4390 3951 4438 
4882 3686 2692 3476 5259 3488 5218 5537 2888 
5476 4377 4857 3321 4459 3988 5726 5090 5200 
5495 3245 3010 4616 3585 5422 3805 4164 3411 
1308 2788 3551 2884 3356 4019 3288 2869 3810 
2699 4381 4690 5184 3963 5419 3889 4069 2820 
4348 4571 2463 4057 3908 3186 4926 4392 3566 
4591 5226 5431 3291 4543 4012 4224 3950 4573 
3327 4335 3545 5150 5009 4699 5460 3369 5542 
4791 2950 2543 4767 3138 3943 5522 2782 5957 
4022 3840 4361 5903 4756 4153 5350 5292 5202 
5397 4024 5316 4645 6040 5368 5073 4464 3183 
6019 5395 3415 5416 5768 5515 4086 4427 5706 
5302 3849 5732 5087 5695 5314 4249 5645 5402 
5929 3922 4814 5401 5020 2838 5910 4776 4136 
2804 3556 5308 3863 4331 5151 3671 4143 3412 
4500 5450 3673 5533 4440 4647 5400 4582 4847 
5366 5389 2520 5964 5216 2131 2443 4890 5421 
4989 2874 3785 5026 4103 4604 4657 5795 3426 
6001 3180 4553 5811 5673 5500 5557 3961 4304 
6032 4267 5536 5052 5794 5521 5372 5358 5297 
2427 6053 5426 5573 5260 5318 5142 5420 4456 
5904 2963 2159 4408 2186 2906 3796 3407 4195 
3978 5136 4521 4356 3945 3088 3630 3820 3385 
4250 5329 5277 3790 5712 2919 3853 4369 4156 
5687 3144 3125 2590 4706 5388 3800 5859 3703 
2937 3175 3833 3507 2956 3277 3205 3114 5199 
5719 2225 5448 3803 5767 5682 2357 5170 3587 
5634 3326 2853 3761 5483 4712 4189 3403 5997 
4928 6043 5266 5220 2916 3558 5303 4954 5592 
5759 3586 4534 5059 6016 4439 6048 4463 5882 
5949 5588 5666 3628 3905 2670 3754 3917 3360 
2802 2493 3007 2994 2801 3438 5072 2607 2918 
2662 2702 2981 3894 3763 3001 2931 3181 2562 
3044 3319 2092 3014 3182 5153 2730 2674 2381 
2934 3086 3259 1608 2231 3437 2625 2872 2675 
3237 4311 5540 4358 5189 4467 4826 5531 5261 
5826 4509 5948 2649 5255 5081 5848 4465 4821 
5325 4322 5497 4206 4570 6068 5526 3559 5369 
5449 6067 2335 4182 4053 3635 3992 4246 4691 
3680 3750 3115 4125 1833 4217 2430 3636 4804 
2774 3402 2757 2710 2769 2425 3645 2723 3565 
3283 2834 3090 1937 1954 3345 2628 2041 3092 
2913 1785 1857 1726 2288 2608 2179 2234 2180 
2201 1793 730 2224 2827 2252 1323 2187 2422 
2714 3004 1740 2268 3179 4476 2286 3021 4319 
1965 2211 3081 2301 5506 2878 4123 4214 3236 
3692 3172 2386 2066 3932 5900 5484 4359 4446 
4347 4674 4085 4130 5710 5908 4196 5080 5730 
4644 3854 5240 4975 4419 4559 4618 3685 4155 
4946 4922 4091 5960 4064 4062 2966 3823 4708 
4558 3111 4731 2318 3504 3386 2851 3074 3034 
2717 2472 3140 3302 2208 3370 2559 3076 4058 
1677 2203 1763 2026 1302 1681 2573 1423 1521 
2319 3664 1661 2078 2195 2434 3091 3601 2191 
2308 2390 3445 2278 3875 2178 3991 2949 3188 
2693 1285 2316 2244 3836 3629 4339 3669 2582 
2524 3764 2822 3911 4166 3948 3873 4539 4924 
5492 4320 4726 4454 4248 5474 3515 4192 3204 
4784 5166 3881 2350 3698 4507 3999 3837 3583 
3652 5053 4658 3627 4854 4473 4753 4519 3573 
4696 3292 3858 3707 3193 3276 4755 4566 4717 
4316 1986 3214 2295 3142 3357 2548 3622 2914 
3468 2037 2271 1102 2204 2012 3123 3198 1774 
2349 2584 3528 1865 2728 2160 2009 3352 2808 
2471 1938 3331 3200 2630 3096 1956 2839 4288 
2185 1717 2601 3541 2742 4134 683 1745 4275 
3739 3543 4162 2046 2088 1848 2276 3693 1999 
1758 1737 3330 3650 1411 2855 4283 2337 3161 
4870 3448 3782 1946 2954 2837 3706 3874 3127 
1610 3394 4014 5956 5993 3667 3579 4341 4999 