# vtk DataFile Version 4.2
Generated by LIGGGHTS
ASCII
DATASET POLYDATA
POINTS 6000 float
-0.0251711 -0.0372815 0.0163194 -0.0202767 -0.0388996 0.0166465 -0.0170574 -0.0413558 0.0160336 
-0.0132333 -0.0429146 0.0159482 -0.0129019 -0.0386672 0.0175096 -0.00751775 -0.0443193 0.016993 
-0.00760026 -0.0403793 0.0181885 -0.00345807 -0.0410012 0.0164603 -0.00232434 -0.0448766 0.0172635 
0.00187484 -0.0448578 0.017187 0.000939372 -0.0405709 0.0177151 0.00546186 -0.0402241 0.017409 
0.00595294 -0.0445098 0.0169931 0.00993753 -0.0429684 0.0168941 0.00976265 -0.038371 0.0170868 
0.0159172 -0.0419741 0.0186362 0.0164691 -0.0379748 0.018182 0.01988 -0.04037 0.0177034 
0.0240075 -0.0379018 0.0170905 -0.0303115 -0.0318262 0.0183311 -0.0328111 -0.0297605 0.0153009 
-0.0285392 -0.0344544 0.0157845 -0.0238474 -0.0312111 0.0164562 -0.0212639 -0.035036 0.0169567 
-0.0258814 -0.0338403 0.0190739 -0.0179553 -0.0320178 0.018528 -0.0124279 -0.034003 0.0169446 
-0.0145989 -0.0305273 0.0167673 -0.0162727 -0.0360391 0.017132 -0.0112411 -0.0291948 0.0187856 
-0.00895618 -0.0366391 0.017254 -0.00880549 -0.0322244 0.0171 -0.0049414 -0.0312153 0.017329 
-0.00496465 -0.035209 0.0166451 0.002748 -0.0369791 0.0173971 -0.00141255 -0.0334697 0.0173155 
0.000216657 -0.0296764 0.0175291 0.00229436 -0.0331245 0.0188601 0.0066044 -0.0365978 0.0189321 
0.00970318 -0.0341831 0.0169837 0.0108863 -0.0307146 0.0186903 0.0127137 -0.0364023 0.0189618 
0.0205544 -0.0358071 0.0178719 0.0144474 -0.032162 0.0173362 0.0185233 -0.0323373 0.0176807 
0.0276695 -0.0354825 0.0173037 0.023974 -0.0337037 0.0173611 0.0270634 -0.0309357 0.0175864 
0.0308217 -0.0324731 0.0172682 0.033754 -0.0297286 0.0173488 -0.0369373 -0.0254629 0.0172902 
-0.0394594 -0.0212111 0.0165945 -0.0329407 -0.0229799 0.016858 -0.0307191 -0.026898 0.0190377 
-0.027329 -0.0243314 0.0185419 -0.0223898 -0.0273316 0.0166507 -0.0233348 -0.023191 0.0174657 
-0.0268256 -0.0284553 0.0175176 -0.0266882 -0.0208039 0.0167009 -0.0182403 -0.0233842 0.0163848 
-0.0176307 -0.0276731 0.0165374 -0.013963 -0.0258768 0.0166763 -0.0121823 -0.0218247 0.017237 
-0.0156649 -0.0212532 0.019188 -0.00713863 -0.0280027 0.018456 -0.0100917 -0.0253851 0.0175923 
-0.00610163 -0.0242076 0.0175451 -0.00813506 -0.0206154 0.0165812 0.00385868 -0.0285566 0.0190431 
-0.00337444 -0.0270656 0.0168035 -0.00192538 -0.0217344 0.0173395 0.000390976 -0.0256797 0.0172786 
0.00412811 -0.0205392 0.0176246 0.00427623 -0.0247015 0.0179831 0.0079393 -0.0280189 0.0184586 
0.00820227 -0.0236837 0.0181357 0.0114282 -0.0262122 0.0175396 0.0112096 -0.0210202 0.0181611 
0.0199639 -0.0286221 0.0182843 0.0143921 -0.0235893 0.0182012 0.0180674 -0.0251423 0.0176743 
0.0186211 -0.0211927 0.018257 0.0221583 -0.0253268 0.0175839 0.0262569 -0.0269531 0.0171669 
0.0254269 -0.0230078 0.0176135 0.0283429 -0.0205007 0.0187346 0.0301892 -0.0279015 0.0174007 
0.0296349 -0.0243127 0.0191467 0.0322783 -0.0205818 0.017831 0.0334876 -0.0244213 0.0175178 
0.0378081 -0.0242406 0.0174759 0.0397942 -0.0207891 0.0179449 -0.0421377 -0.0153279 0.0167361 
-0.0354519 -0.0163029 0.0176507 -0.0296934 -0.0179835 0.016196 -0.0353653 -0.0201314 0.0188107 
-0.0259485 -0.0146344 0.0158217 -0.0226772 -0.0192298 0.0167044 -0.0191919 -0.0162716 0.0177001 
-0.0145221 -0.0176523 0.0177254 -0.0159416 -0.0136082 0.0176599 -0.011833 -0.0146001 0.0176385 
-0.0105045 -0.0183522 0.018964 -0.00793325 -0.0162992 0.0165515 -0.00430934 -0.0140286 0.0167273 
-0.00817822 -0.0129508 0.0189084 -0.00341611 -0.0179619 0.0175919 0.000579992 -0.0185992 0.0176513 
-0.000168148 -0.0139196 0.0171824 0.00783547 -0.019049 0.0172857 0.00572287 -0.015483 0.0177184 
0.0112206 -0.0169082 0.0175526 0.00923687 -0.013431 0.0182176 0.0149612 -0.0195895 0.0178445 
0.0147728 -0.0152213 0.0184716 0.0191599 -0.0132611 0.0180554 0.0182378 -0.0172119 0.0181693 
0.0220255 -0.0184732 0.0178848 0.0258583 -0.0173049 0.0187243 0.0252491 -0.0130271 0.0175414 
0.0292592 -0.0151944 0.0186023 0.0363268 -0.0187817 0.0185151 0.0331763 -0.0154219 0.0176823 
0.0355776 -0.0122205 0.0183581 0.0415464 -0.0171972 0.0176988 0.038227 -0.0152072 0.0187227 
0.0429612 -0.0132432 0.0179693 -0.0392531 -0.0112139 0.0175012 -0.0385331 -0.00712329 0.0175777 
-0.0434458 -0.0105225 0.0158195 -0.0443651 -0.0062056 0.0163081 -0.0344843 -0.00921777 0.0171008 
-0.0310218 -0.0060139 0.0172551 -0.0303547 -0.0109303 0.0169074 -0.0352073 -0.00494205 0.0168522 
-0.0276083 -0.00808766 0.0179313 -0.0271728 -0.00407185 0.0177614 -0.0235594 -0.0101856 0.0176154 
-0.0233691 -0.00622484 0.0169421 -0.0198528 -0.0119669 0.0176072 -0.0196356 -0.00792926 0.0168287 
-0.0157675 -0.0089374 0.0171365 -0.0160231 -0.00489736 0.0167435 -0.0124629 -0.0105852 0.0189843 
-0.0120378 -0.00467555 0.0170959 -0.00962569 -0.00812903 0.0174957 -0.0058429 -0.00944334 0.0178256 
-0.00668861 -0.00390062 0.017217 -0.00342107 -0.00619569 0.0174491 -0.00192558 -0.010241 0.0175255 
0.00203477 -0.00993503 0.0169707 0.00331984 -0.00543012 0.0178291 0.00598816 -0.00912973 0.0173614 
0.00999497 -0.00545092 0.0177607 0.00992687 -0.00948097 0.0181952 0.0134242 -0.0116027 0.0173956 
0.0134327 -0.00758329 0.0174914 0.0170421 -0.00989348 0.0176121 0.0169437 -0.00565692 0.0176291 
0.0287867 -0.0112176 0.0183113 0.0222174 -0.0108332 0.019187 0.0219562 -0.00685653 0.0186832 
0.0291369 -0.0072337 0.0178362 0.0324844 -0.0096697 0.0182919 0.0367989 -0.0083283 0.0178557 
0.0336468 -0.00583472 0.0181337 0.0394691 -0.0112926 0.0182057 0.0375121 -0.00425698 0.0178228 
0.0439973 -0.00927798 0.018369 0.0406593 -0.00700486 0.017861 0.0446245 -0.0052849 0.0186426 
-0.0444634 -0.00154882 0.0168195 -0.0411988 0.000943638 0.018208 -0.0370198 0.00390812 0.017638 
-0.0377524 -0.00174523 0.0178331 -0.0444582 0.00312075 0.0167452 -0.0412574 -0.00356275 0.0189787 
-0.0293599 0.00223379 0.0177528 -0.0306864 -0.00179813 0.0179869 -0.0338914 0.000690904 0.0174713 
-0.0234449 -0.00131267 0.0177332 -0.0227647 0.00297004 0.0188808 -0.019792 -0.00339058 0.0169826 
-0.0195819 0.000570205 0.0178456 -0.0146569 -0.0010337 0.0173639 -0.0126047 0.00249201 0.0176068 
-0.0105363 -0.000965746 0.0178081 -0.00484912 0.00348521 0.0176969 -0.00664916 -4.98854e-05 0.0185489 
-0.000300314 -0.003678 0.0176006 0.00308582 -0.00140945 0.0177982 -0.00190709 0.000798604 0.0180475 
0.0017772 0.00238498 0.0184736 0.00682894 -0.00279782 0.0174961 0.00559298 0.00373437 0.0182846 
0.0123945 0.00338113 0.0175647 0.00880896 0.00139116 0.0174245 0.0135287 -0.0035348 0.018172 
0.0201205 -0.00329978 0.0183225 0.0167462 -0.00115074 0.0183142 0.020406 0.00266926 0.0171362 
0.0164104 0.00284291 0.0177963 0.0234745 -0.00111649 0.0183103 0.027455 -0.000760009 0.0184864 
0.0282978 0.00315709 0.0176736 0.0242924 0.00279919 0.0181706 0.0304473 -0.00339693 0.0180643 
0.0343146 -0.00187438 0.0182687 0.0348556 0.00218977 0.0177362 0.0312144 0.000590125 0.0188326 
0.0413269 -0.0030158 0.0180318 0.0380614 -0.000317745 0.0183656 0.0416547 0.000856633 0.016923 
0.0449376 -0.00114249 0.0187448 0.0448934 0.00287577 0.0183393 -0.0409412 0.00517637 0.0168171 
-0.0391324 0.00927635 0.0171151 -0.0437173 0.0102448 0.0172172 -0.032859 0.00461777 0.0186955 
-0.034988 0.00837043 0.017887 -0.0315907 0.0107045 0.0176566 -0.0294712 0.00750606 0.0190336 
-0.0261611 0.00487988 0.0179029 -0.0276373 0.0112331 0.0181727 -0.021988 0.00692999 0.0186506 
-0.023779 0.0124667 0.0182942 -0.0189007 0.00455926 0.017651 -0.0150606 0.00568759 0.0177878 
-0.0198525 0.0107103 0.0178902 -0.015984 0.00958294 0.0179065 -0.00784324 0.00629228 0.0180198 
-0.0110548 0.00971323 0.0178593 -0.00407296 0.00771575 0.0181384 -0.00680139 0.0108639 0.0189281 
-0.00110127 0.00503223 0.017552 -0.00279322 0.0113789 0.0191619 0.00232244 0.00636721 0.0192196 
0.00103309 0.009993 0.0176985 0.00883023 0.00600655 0.0174438 0.00553664 0.00826703 0.0177544 
0.00982363 0.010406 0.0185117 0.0126058 0.00740049 0.0183758 0.0163088 0.00677625 0.0169932 
0.0202155 0.0066987 0.0181286 0.018554 0.0103702 0.0176218 0.0249327 0.00677632 0.0184632 
0.0226286 0.00997532 0.0175754 0.0258586 0.01238 0.0174527 0.0361251 0.00580206 0.0165716 
0.0318203 0.00842941 0.0185162 0.0320565 0.0121548 0.0170748 0.0355464 0.010015 0.0180361 
0.0414727 0.00482114 0.0176247 0.0400687 0.0117308 0.0179879 0.0437723 0.00834745 0.018729 
0.039009 0.00786143 0.0184912 -0.0403858 0.0195034 0.0171016 -0.0423662 0.0139769 0.0185144 
-0.0352072 0.0126612 0.0185785 -0.0364941 0.0193991 0.0180426 -0.0315137 0.014796 0.0184047 
-0.0322965 0.0195838 0.0179058 -0.0267135 0.0151397 0.0174476 -0.0232374 0.0172094 0.017788 
-0.026745 0.0191648 0.0179723 -0.013653 0.0126787 0.0189082 -0.019754 0.0151798 0.0178867 
-0.017924 0.0192535 0.0176183 -0.0157773 0.0158718 0.0176858 -0.00972057 0.0135193 0.017676 
-0.0112862 0.019589 0.0179258 -0.00516909 0.0144616 0.0182402 -0.00787622 0.0173975 0.0179642 
-0.0012007 0.0147788 0.0177225 0.00289464 0.0141735 0.0171378 -0.00279943 0.0187168 0.0185146 
0.00459303 0.0178906 0.0172618 0.00720789 0.0133969 0.0179012 0.0112229 0.0143325 0.0190901 
0.0112284 0.0197891 0.0184988 0.00814511 0.0170938 0.0191862 0.0165707 0.0137638 0.0185429 
0.0178701 0.0185388 0.0181738 0.0141531 0.0169849 0.0184075 0.0211215 0.0139949 0.0172239 
0.0219927 0.018537 0.0177332 0.0253699 0.0163217 0.0181502 0.0290626 0.0147863 0.0174725 
0.0298975 0.0188906 0.0179519 0.0330352 0.016051 0.0175541 0.0336591 0.01985 0.0191585 
0.0375463 0.0185978 0.0166589 0.0374264 0.0148657 0.0185149 0.0424663 0.0146425 0.0165039 
-0.0368378 0.0254529 0.0177637 -0.0295034 0.0226391 0.0181645 -0.0327946 0.0251106 0.0186013 
-0.0219591 0.0211433 0.0177845 -0.0278456 0.0262894 0.0184404 -0.0255025 0.0229614 0.0182788 
-0.0236991 0.0265487 0.0178309 -0.0202261 0.0285285 0.0176898 -0.0151745 0.0222323 0.0178651 
-0.017114 0.0262533 0.0191652 -0.00527997 0.0219841 0.0185459 -0.0114098 0.0235802 0.0181711 
-0.00767673 0.0252944 0.0181269 0.0025457 0.0212168 0.0182528 -0.00129991 0.0224745 0.0182829 
[...]
POINT_DATA 6000
FIELD FieldData 7
id 1 6000 int
1060 684 1053 552 517 755 1044 825 316 
574 71 468 452 139 62 270 600 204 
251 1078 1269 1093 7 466 550 265 1139 
145 179 307 441 415 1011 498 69 626 
588 519 622 51 176 123 230 727 339 
870 291 118 471 364 421 638 427 1336 
646 547 991 822 221 648 561 1097 393 
1157 507 989 839 444 365 789 377 1301 
337 28 329 46 411 235 522 109 85 
677 402 435 111 73 3 274 350 917 
606 18 474 1022 1072 278 1252 1452 1244 
112 673 184 1436 185 1861 526 949 780 
410 1061 725 445 1155 214 841 616 282 
455 440 858 614 324 91 308 34 432 
1732 128 171 434 1243 1561 262 349 310 
759 1369 380 1131 1156 327 803 564 1067 
1101 1171 1684 555 830 182 995 758 818 
1036 951 256 217 987 1232 558 277 301 
8 964 383 379 401 211 886 1372 1015 
45 1304 1095 168 740 590 283 1216 388 
1560 1002 1266 815 764 779 1206 368 65 
633 1208 98 1143 188 942 354 908 1321 
565 1205 785 653 405 76 1214 805 1257 
580 384 627 682 545 400 209 997 206 
353 1426 153 865 538 715 196 1287 591 
1066 836 451 326 465 122 605 508 37 
724 873 41 4 202 1169 882 104 381 
523 390 423 344 59 341 47 1272 551 
338 496 598 480 92 916 887 795 306 
1180 1480 937 311 578 667 859 879 532 
177 359 130 253 286 419 391 1094 846 
541 585 82 154 659 665 1029 164 1471 
124 575 2100 207 149 44 129 456 100 
266 13 1070 27 348 619 1185 689 513 
534 553 372 501 352 340 1117 1075 1339 
53 1107 2132 453 1192 1414 362 874 797 
433 658 672 133 637 258 603 121 357 
1164 490 370 601 288 1048 1465 983 560 
1000 127 890 914 681 57 688 275 295 
1118 1792 557 399 9 61 1043 86 809 
910 31 572 862 828 142 200 620 60 
592 227 298 325 446 1017 1621 1762 175 
530 1564 23 48 1733 998 810 429 172 
978 30 767 14 66 842 902 63 493 
2444 1706 1625 1371 1376 2537 1 252 2101 
117 1546 589 735 1379 1890 135 537 1031 
38 292 791 1741 918 1691 2394 2479 1903 
835 248 1619 843 1883 652 662 502 738 
170 1074 1492 1922 1456 762 499 1197 294 
88 948 315 1181 1926 543 773 425 570 
1193 2070 584 1238 2346 1971 1735 979 1055 
1191 1141 320 1715 351 1899 2894 1280 632 
784 804 955 670 244 1307 2213 152 772 
568 1652 852 284 2547 201 945 660 708 
64 2460 710 973 303 215 720 35 1148 
281 20 49 268 314 706 1145 531 935 
126 32 1311 869 1449 926 1071 358 1294 
649 1445 960 976 711 2109 1135 479 752 
1776 1366 1387 1004 812 297 761 1290 148 
778 300 929 897 6 753 1001 333 1231 
276 304 1678 1699 1381 1283 786 2214 1203 
1542 382 1003 1166 1583 460 1270 1408 848 
363 685 1091 219 223 1440 1406 1781 80 
801 640 732 515 909 156 492 827 94 
296 774 165 894 247 988 985 1092 437 
1189 371 1802 1354 1318 528 178 1123 629 
257 1765 512 747 1184 81 313 2148 302 
529 1039 397 330 678 1421 691 549 1401 
713 404 707 75 1172 972 263 1562 1090 
891 716 1163 1523 1134 749 1276 1342 2259 
1476 898 2272 1086 448 919 25 1375 193 
1219 1549 533 1368 167 1761 1626 2439 1824 
1981 566 782 161 911 1151 607 1319 116 
464 1274 1153 1435 962 1057 138 1138 821 
2 11 125 1425 1281 398 392 1253 1038 
669 602 458 581 169 548 723 83 29 
630 187 1548 734 1213 698 396 216 654 
781 309 520 737 1891 1466 1600 576 1065 
609 1129 1607 374 1584 1874 2292 957 1491 
136 647 1628 2326 984 56 808 829 103 
1085 1108 906 883 369 1734 1023 944 1430 
623 793 595 1335 505 84 757 2056 982 
535 1665 2083 1058 693 624 378 495 1384 
807 650 750 1974 1485 1823 406 1575 469 
1714 285 454 2058 831 237 345 212 931 
249 119 240 222 847 925 346 1997 686 
744 1035 1760 97 783 675 699 642 999 
1405 1230 428 1404 70 1403 1585 58 238 
33 1032 1629 1651 2051 2025 261 864 645 
981 1362 1027 1322 210 1397 582 1730 1930 
459 403 1221 726 1886 78 1424 17 236 
1709 484 635 1016 952 1052 1667 1713 1570 
2264 1234 1412 1340 721 105 43 840 1590 
671 96 1444 366 450 731 1822 769 1116 
1147 163 95 1357 436 1494 556 1728 1337 
225 151 1125 356 975 974 1380 475 1264 
355 1278 813 1087 1248 760 1683 317 1920 
777 260 872 1617 794 1286 141 422 272 
1453 1233 293 224 1084 573 290 213 255 
1353 1217 407 703 89 939 1804 787 447 
1443 2219 39 875 1224 395 641 173 1056 
1592 1374 1114 19 1228 408 1284 1766 241 
1045 1046 1832 26 1236 1612 1568 1462 483 
748 162 1525 2328 900 2022 1614 1598 166 
250 1124 857 1223 1578 1175 567 87 1524 
1158 1250 1422 1942 1496 1795 1573 610 722 
1150 643 1484 1634 877 322 376 457 1006 
197 90 1582 1752 269 1459 115 5 856 
16 239 1112 140 527 913 409 205 880 
186 289 494 1469 613 617 271 180 389 
99 443 1059 334 1813 1187 510 936 775 
1073 1081 814 980 2343 24 1100 2304 198 
463 245 1499 881 2654 2274 938 1901 664 
1637 1576 208 1687 1259 2013 3045 2857 1177 
849 680 1648 1218 893 55 1528 442 851 
2167 1605 1246 1645 651 472 1427 514 705 
1643 2296 1400 430 1898 2032 273 137 634 
892 587 1541 318 462 246 280 487 714 
1040 832 424 1310 668 199 901 488 1054 
1165 1796 321 544 1229 414 1344 1407 120 
489 776 52 1265 1303 332 928 1033 1050 
1438 1854 1314 1327 596 1532 1797 1638 1500 
2911 2280 2534 2217 1632 1511 1671 1182 1910 
1446 2704 1829 2961 2709 2523 2629 181 2331 
2659 1855 2290 993 687 656 1887 420 927 
299 896 146 1864 1267 1215 811 385 1534 
1642 347 701 559 1398 67 2262 516 1188 
1654 697 915 1378 144 21 763 328 817 
1835 386 695 798 360 1952 845 159 1389 
923 1700 1271 1359 946 106 834 342 147 
1014 615 1478 1328 134 1567 1149 1159 799 
259 1868 1119 1475 191 889 233 2354 2631 
2879 2177 1862 2776 618 1896 2153 1821 2426 
742 343 1693 1738 438 1819 1526 2633 2915 
1711 1961 2999 40 1024 2266 2454 132 418 
863 1320 194 663 1817 540 412 1490 461 
387 231 319 518 924 1916 1167 539 907 
279 439 826 1099 1510 1103 1888 867 1388 
1530 1581 933 1260 1481 1332 1237 959 1536 
2528 1316 1173 2862 823 323 666 2574 1516 
2551 2048 1957 2325 2737 1168 50 2705 2475 
2940 611 536 2996 476 2182 1907 1317 3058 
367 676 895 1679 254 1211 1791 756 417 
1146 1906 2161 3762 819 1186 524 373 1047 
853 940 2256 729 546 1136 1069 1747 160 
1969 970 961 1010 15 1077 1028 1195 1299 
1429 1162 1005 229 806 2515 2411 1749 636 
1306 1390 674 413 1579 189 1970 2530 1360 
2096 114 1393 2617 101 2605 1277 3475 2353 
3471 2206 2677 2378 2380 1846 2809 3941 234 
2457 3124 969 2513 802 2347 542 2586 2681 
4272 1787 2856 3453 3827 3315 2019 3724 3492 
2867 3397 3269 2487 3098 3418 2122 3639 2850 
4362 1668 3298 2920 2810 4074 3008 3923 3933 
4088 525 3212 1261 1827 2149 971 1924 1647 
42 700 1204 2277 1801 1479 1869 2134 1245 
1990 2435 1705 1870 2772 1498 2614 2502 1483 
2192 2049 2627 2848 1594 1788 3079 3663 2648 
2074 3227 2085 2323 3439 1841 1775 992 3382 
2752 3493 2773 2001 2775 3077 3534 694 2232 
2580 2418 2740 3059 143 1152 2008 2746 473 
679 1630 2626 3549 1962 2602 2135 1333 1088 
2339 1419 1345 2173 1810 500 1383 1947 336 
850 2327 2000 657 2237 2491 2003 2038 2036 
1676 965 1447 1160 1748 1994 1929 1931 2596 
625 2309 2039 1367 1880 2332 2086 1963 2291 
3073 3105 1660 1811 1111 2496 449 1894 2247 
1842 1580 2540 2123 696 2125 2010 2741 2682 
1338 968 1897 2102 2055 2449 1517 509 2230 
1198 1194 2785 416 1928 3618 1298 190 2322 
3033 577 3027 1915 2542 1853 2703 2438 2585 
2550 2930 2108 2329 1837 1539 2020 2261 1472 
477 1914 2612 1939 2623 628 1013 1098 1809 
608 1588 1240 1021 930 2387 1716 1616 1790 
2094 1254 1115 1641 2340 2478 2423 1911 1409 
1068 1235 2028 1586 838 2004 2248 2417 2106 
1489 1133 1839 1486 1604 1696 1772 2196 2321 
2414 1537 2298 1936 2504 1635 2407 2176 1834 
1701 1657 1979 1940 1826 2194 2948 1543 1895 
943 2188 1992 921 977 884 712 860 1431 
1977 1137 1720 1663 1113 150 2953 1292 861 
1935 820 1170 1688 604 72 1512 1968 1633 
1867 2587 1871 2355 1655 2531 1955 1828 1550 
1331 1670 1909 3192 2245 639 1751 1347 426 
1767 1905 2114 2227 563 2750 1358 1458 2097 
2883 2636 2263 1934 2459 1757 2432 885 2060 
1161 1258 1348 2023 1953 1694 1872 1559 1770 
2050 486 1222 586 644 1876 1927 1984 899 
2399 1468 192 2482 1326 1815 2072 1346 966 
2207 2082 1080 1355 1190 1470 2042 1900 1144 
1950 228 218 2087 1875 1557 1477 1025 361 
1547 1674 1591 1656 1242 131 702 1386 287 
733 1685 1506 1697 485 1241 1363 2166 2089 
2532 2174 102 2480 1838 2376 1845 2767 1296 
1972 2250 1434 1200 612 1503 3012 2156 2503 
3103 2162 2959 3297 1631 1885 1698 2236 1305 
1563 904 1063 1721 1474 2184 2130 107 1300 
1727 2366 1859 2452 1606 2863 1334 2663 1768 
2104 1273 1551 1051 1288 2606 1448 1450 2015 
2113 2446 503 491 1104 36 1364 771 692 
996 1892 1179 990 2226 571 511 1513 10 
1529 1690 905 1349 2209 1295 1742 1533 745 
1142 2110 1736 1350 719 1780 1247 1649 1467 
2507 1493 155 2068 1622 1309 2246 1396 1502 
1597 866 1020 1771 2313 709 920 1544 1030 
1312 1297 1212 1096 1753 22 1794 470 1418 
2755 2643 1755 1596 947 1289 1377 2369 1708 
2312 1978 1315 1799 2666 1949 2202 2861 2488 
2406 2910 3136 2229 1352 986 2420 2560 3022 
3494 2129 4276 1944 2265 3201 1611 1959 2118 
2105 2389 2900 2687 3005 2385 2691 833 1420 
1122 963 1202 1620 2002 1391 1908 2215 1082 
2317 2139 2143 108 739 1227 1064 736 335 
1569 788 1293 1921 1330 243 796 174 1324 
824 183 2034 1210 1207 79 790 331 74 
77 1275 1613 195 1993 554 12 1019 1441 
1026 1263 158 718 746 1089 1825 1943 1442 
594 878 226 2045 2063 1754 2817 1983 2653 
1985 3452 2392 3758 569 2768 3413 3529 2754 
2842 4909 2905 3753 2875 2739 3185 3726 3857 
3681 4139 4810 1037 2071 1816 3246 3093 2987 
3600 3662 1385 2778 1850 1603 3177 2391 2696 
3240 2807 800 2040 1769 2141 2932 1729 1723 
2273 1395 2164 2057 2006 1460 1595 68 1577 
1130 967 1814 1877 1076 1812 1007 2035 1291 
621 1201 1279 2360 1370 157 1220 2016 1522 
1199 599 1552 1343 1120 1410 1083 232 704 
816 2509 1049 1508 690 2725 2374 2275 1455 
1464 941 2384 954 1351 2440 1602 743 1176 
1702 2903 2679 1487 1669 2163 2518 3106 2960 
3215 3239 3389 2923 2555 2793 2334 2897 2436 
4154 2220 4191 4205 2805 4280 2136 267 2600 
2517 2579 1958 1225 2249 2398 2302 2591 583 
305 1798 2447 2383 2095 1531 3068 2258 3023 
950 2928 1831 2341 2190 1527 1556 1923 1012 
3209 1432 1329 1126 1653 506 593 482 2373 
1843 1858 2465 1413 922 631 1554 655 1599 
2484 562 1518 1618 2126 2795 2828 854 888 
264 1519 770 2985 2053 3168 1127 2657 1852 
1951 2441 1933 2152 1844 2221 1615 2238 3163 
2572 2952 2140 2707 3031 2500 3099 3436 3218 
2656 3909 2544 3755 3859 4105 2975 2849 4070 
2955 3595 2393 2521 2324 3822 3432 3530 4227 
3101 4035 3466 4867 242 2751 2400 1805 2655 
3087 1913 2852 1724 478 903 2116 3431 1689 
2197 1034 2501 2345 2583 431 2120 2519 2404 
1991 2235 2545 2311 1941 110 2073 2306 1514 
3095 1932 2622 2535 1719 1783 3396 2241 1904 
2294 2941 2826 2972 1106 1497 2619 2570 3430 
2497 3117 2395 3256 3070 2690 2830 2210 2455 
2364 2315 2424 2396 2546 2526 4001 3590 3082 
2588 3689 2635 3017 2618 3420 2067 3536 2511 
1750 2081 2844 2731 3107 2352 2593 1851 2103 
4264 2117 1673 2814 2708 2794 2764 1538 1121 
1520 1662 2064 2799 3517 4268 3805 766 1807 
1226 1535 2527 2151 1399 1627 3367 1718 1308 
521 2077 3405 1818 1325 2289 2142 2283 2403 
2695 2980 2589 3028 2665 3409 2111 3052 3206 
3226 3625 3816 3615 3929 3291 1451 2458 1365 
1743 2684 871 2451 3363 497 3374 2698 1998 
3794 3856 3953 2216 3861 3653 4006 3902 2639 
3730 3129 2749 2787 4229 4073 4122 3208 4768 
3834 3655 3839 5194 3968 4569 4060 4777 4232 
4124 4746 5124 5217 3710 3938 4590 3982 5181 
3455 3416 4353 3387 3039 3313 3421 1650 1739 
2175 2598 1917 1840 2891 1695 2336 2069 2556 
2971 2538 2967 2567 3509 3137 3011 2495 2652 
3132 2112 2846 3424 2859 4237 2882 3684 2811 
2992 2791 2065 3122 3016 2823 3009 3349 3116 
3465 2969 3555 3372 4831 3965 3351 3770 3741 
2997 3964 3379 4285 3591 5384 4083 3147 3729 
4263 4518 3914 4496 3688 3075 3841 3576 3732 
3913 3311 3702 4405 4000 3984 3414 1707 2569 
3032 3324 3443 5014 3006 2222 3069 1659 2536 
4013 3025 2963 2412 3893 1482 2477 1849 868 
1624 3520 2877 481 3195 2200 2658 2680 1873 
2716 2075 2721 2093 2119 1881 3358 2647 2847 
3119 3778 2320 2254 2529 2604 3224 2925 3524 
2792 2382 2409 1889 2413 3634 741 2594 2168 
3196 2892 3508 2494 3506 2783 2260 4384 3564 
3225 1555 1639 3003 3577 3213 2128 3026 3611 
2747 4219 1995 3580 3666 3230 2506 2711 3219 
3295 4350 2800 3160 876 3375 3373 2147 2912 
4478 3381 3807 4376 3019 4389 3102 1154 2358 
3013 3335 2843 2310 3957 4309 3709 3459 3682 
2453 3359 2297 1574 2212 2481 3229 3336 1948 
3085 2127 2428 3231 3066 2667 3607 2493 3265 
2578 1996 3100 1675 1746 1863 2468 2473 2917 
2743 1623 2372 2466 2557 2091 2763 2092 2344 
2651 1209 3280 1808 2061 2287 2351 953 3286 
2873 2564 2199 765 1109 3392 2198 2362 2624 
1912 3346 1704 2033 2017 1966 1062 1251 1967 
2115 2672 1982 1313 2461 2429 1692 2080 113 
2640 3035 1382 2189 2284 2609 2927 1686 2054 
2982 3084 2770 2431 3057 3342 3478 1041 2603 
1461 1437 2998 4382 3777 3260 2837 4240 3362 
2613 1610 2732 1587 2933 3127 3706 3353 2338 
2410 2510 1710 2490 3251 2611 2762 2836 2552 
1786 2062 1945 1356 2363 1800 3473 2145 2801 
2018 2228 2745 2171 2377 1866 2576 3139 2285 
2723 2757 2421 2779 2005 1110 2098 2470 1515 
2243 1785 2834 2563 1954 2710 1636 1836 1341 
2240 2205 1919 1860 730 2288 1439 1856 1589 
2239 1756 1488 2408 2361 2158 1879 1417 1565 
2187 2224 1847 855 1128 1777 1256 1183 1759 
2330 1540 1473 2146 1773 2951 768 1507 3390 
1501 1558 2786 2664 2107 3472 3784 3606 2456 
3055 2437 2582 2419 2896 2958 3220 3388 2943 
2337 3782 3394 2251 1249 1571 2860 1884 3273 
2486 1394 2796 2719 4742 3289 1946 1505 2512 
3110 1722 2469 3254 2059 2881 3939 4046 2990 
4005 4254 1239 2620 1658 2181 2616 2099 2761 
2561 3065 2233 3151 2554 1784 2790 1893 2307 
1902 2425 2318 2759 2899 1937 3386 2137 1495 
1789 2571 1282 1988 2898 1677 2041 2559 2573 
1262 1601 1725 1196 1764 1392 1726 1763 2026 
1857 1661 1302 1521 2183 1712 2319 2047 2252 
2170 2078 2155 1793 1820 2253 1079 994 956 
1666 1140 2632 2448 2244 2308 2390 2157 1975 
1980 2030 2553 1999 2276 2855 2088 1566 2813 
2379 2866 2964 2397 1411 3852 3650 4283 3632 
3323 4055 3238 2365 4448 3296 3798 2968 4436 
4597 2758 3481 2780 4707 3829 3765 4745 4512 
2505 4183 4807 4714 2738 1782 3305 3446 3048 
3184 2870 4002 3588 1703 3083 3062 3020 3128 
2744 1878 3257 3641 4498 3613 2945 3685 3838 
1680 2314 2851 2669 2724 2966 3074 1268 1986 
1504 3302 1609 2375 2037 2208 1865 3140 2024 
1672 2043 2012 2203 2029 751 312 2009 2808 
2195 1255 93 2599 1918 1938 754 2471 2223 
2718 1956 1105 579 504 683 1009 2333 1572 
2742 1882 1132 2630 1830 2342 2525 1285 3593 
1745 1758 1737 3974 3693 2370 3282 3317 4081 
4078 3604 3567 3649 3570 4298 4837 3518 2753 
4159 4842 4727 4685 2257 3793 4004 4668 2650 
5040 4114 3855 3071 4632 5050 3677 3210 3393 
2974 3189 3542 3544 3366 4608 3169 3743 2577 
2748 3157 2977 3915 2965 3248 2356 2442 2076 
3501 1018 3142 2865 2610 2295 3895 3276 3622 
3193 3858 1008 1361 1545 2661 1102 3123 2548 
2204 3350 2349 2084 2133 1960 2124 932 3352 
2270 2160 3143 2986 3528 1402 1463 220 2348 
2885 2508 2185 3200 2281 2832 2445 2683 1415 
2829 3054 2359 2845 3500 2841 4247 2713 2031 
2279 1987 3376 2901 2678 3263 4385 4239 3232 
4094 2568 4314 4377 2908 4072 4920 4403 3851 
4346 3243 3993 5110 5135 4872 4883 3900 4857 
4932 3988 3040 4032 4789 4592 4616 4452 3585 
3010 3153 3546 3511 3089 2924 3162 2686 2642 
1803 3579 3599 3406 3910 3410 3094 2052 3934 
2983 3262 2993 3037 3450 3434 792 2701 3357 
2756 2516 3173 3400 3334 2833 2798 2021 1973 
3197 2641 2090 2889 1454 3811 3678 3266 3489 
2766 3145 3958 2991 3339 2816 2765 2541 2929 
3190 3646 4118 3255 2634 1682 4395 3526 3537 
2660 4230 3051 2947 2978 2592 4916 3916 2904 
3563 3686 4117 2027 3307 3476 4065 4650 2692 
3488 5476 5259 4882 4020 4188 4252 4711 3321 
3245 5090 5726 2950 3166 4678 4459 5200 3399 
3427 4341 2242 3444 2835 4251 2895 2781 2789 
3340 3661 3540 3165 3433 4184 2462 2821 2144 
3398 3815 3514 3868 3806 3041 2729 4334 4549 
4126 4135 3675 3442 3581 2218 2995 3779 2868 
2467 3457 2720 3904 4693 5231 4738 3705 3597 
3002 4043 3780 2854 3810 3505 1964 2463 4100 
3510 3757 4045 4391 3704 4012 4057 4348 3951 
3408 4482 3980 3310 5226 2646 3368 3545 4671 
4390 4699 5150 4138 3126 2543 3369 2944 2676 
3809 3512 3322 4158 3843 3463 3411 2962 3038 
4098 4082 4164 2797 3288 2880 4635 2788 4360 
2726 2499 4019 3551 3356 3643 4995 2299 2825 
3491 2699 2884 3647 2869 3614 4176 3963 3908 
2514 3747 4865 3316 3967 4345 2549 4571 3364 
3327 5460 2782 4056 3451 3840 3773 4400 4133 
3458 3223 4303 3464 4017 3449 3883 3748 3882 
4179 3183 3769 4700 3935 4447 3347 4466 4605 
4600 4930 4128 4942 5406 4087 4080 5691 5363 
4649 5049 4718 3668 5760 4026 3216 3714 4284 
5663 4682 4737 5105 6059 4782 5514 3104 2803 
2474 2838 1509 4039 3944 3154 2644 3598 4704 
3138 4052 2485 3361 4025 3329 3767 3141 3733 
4663 2303 4063 3337 3191 4918 3920 4029 2079 
5723 4202 4540 3867 5858 4530 5345 5128 4260 
3772 5840 5206 4598 2694 4638 4430 4290 5235 
5043 4367 4292 5846 4703 5935 4741 5412 5716 
5498 5936 4689 3479 5700 5281 5680 5348 4610 
5915 3559 6010 5553 4644 4567 4412 5908 5080 
2159 3970 2558 2700 2483 2906 3830 2936 2186 
3796 4521 3978 4241 3360 3401 2293 3942 3983 
3820 3385 3670 2831 2668 2818 3907 2871 3130 
4156 2282 4036 3516 3202 3422 5035 1042 3207 
3532 3259 2489 3727 3270 4378 3217 3994 2638 
3538 3781 2815 4302 4355 4003 4211 4243 3860 
4796 3620 5317 5069 5065 5489 4257 4511 3672 
4457 3828 3826 5705 5188 4101 3872 5586 3954 
3454 4095 5322 5423 4359 4147 5337 4372 5478 
4279 4828 5730 5665 4975 5864 5434 4248 4784 
4422 3344 3754 3628 3899 2670 3438 1806 4406 
3113 2994 3407 3763 3462 2802 3007 1433 3657 
4195 3787 3569 2931 2607 3181 2918 2981 2662 
4125 3760 3001 2733 2919 3319 2562 3182 2590 
3283 2926 3144 4818 2734 3014 4038 2637 2689 
3120 2730 3237 3086 3044 2939 3435 3053 3553 
3277 3587 4021 3846 3268 1965 3203 3486 3801 
4255 2872 3550 2450 3236 3932 4085 4212 5484 
2688 5131 3873 3572 3610 4347 4455 3204 4454 
3515 5474 4196 4192 3881 4823 4051 2350 4014 
5152 3469 2715 4363 4587 4790 3905 4578 3917 
4178 4182 4217 4053 4580 3115 2335 1833 3152 
4318 3565 2988 3814 3419 4576 3504 3042 2702 
3090 3211 3645 3092 3354 3247 3199 2628 2674 
2131 2934 3507 3355 2942 2937 2913 2608 3000 
1608 2225 2234 2464 2595 1731 2371 3030 2201 
2498 2625 2231 2956 3284 2357 2575 1640 2268 
3021 3081 2401 4166 2316 2524 3692 3172 2693 
2211 2301 3371 3586 3744 3629 4107 4539 3131 
3448 3948 4924 2822 4320 3638 3548 3874 3161 
4679 3626 4870 3835 5169 4722 4330 5688 2954 
4375 4851 3328 3962 4750 4220 4951 4586 4194 
5370 4981 3309 3293 3992 3470 3635 4468 4150 
4328 4691 4246 3680 4802 4779 3272 2774 2430 
4374 3636 4804 3750 4062 3522 2819 1416 3072 
2769 2685 3823 2907 3402 4708 3365 3234 2388 
1423 3076 2179 2044 3242 3158 2492 3164 2886 
2180 2827 2381 1178 2533 2433 2422 2300 3091 
1740 3004 2191 3437 1323 2269 2675 1778 3109 
3496 2671 3174 2416 2916 2011 2286 2712 3326 
2066 3179 3330 1848 2887 3836 2949 2878 3080 
5028 4339 2007 2165 4417 3764 3742 4324 3669 
4312 4517 4884 2169 4497 4781 4925 4760 4450 
4170 4599 4370 4542 4557 5017 4028 5717 5642 
4940 3617 3745 4559 4946 4155 4922 4618 5360 
4528 4089 4558 3977 4091 4064 4419 3485 4193 
3111 3261 2717 2522 3884 3573 4731 3790 1774 
3214 2472 1681 3370 2735 3148 3989 3056 3499 
2584 3047 3018 3487 2840 2876 2581 3294 3096 
2434 3331 2839 2178 2935 3601 3664 3187 3560 
3445 2278 3739 2714 2601 3824 3609 1646 4134 
1644 3991 2046 3603 3332 3502 4226 3118 4287 
4845 2415 5816 2722 4702 5924 4780 3064 4944 
4824 4296 5300 5075 5587 5991 5524 4630 4868 
4306 4244 4725 4876 4692 5320 5143 4948 6009 
4730 4913 3659 3583 3698 4507 5053 4529 4658 
3624 3837 3999 4696 3707 4753 4593 3627 5269 
4898 2914 3292 3495 4261 4717 4755 4492 4316 
3034 2271 2921 3468 1553 4058 3959 3734 2902 
3683 3198 3156 3299 3024 1989 3691 4008 3966 
3571 2728 1717 3134 3171 3170 3380 3786 3112 
3253 3312 3159 3440 3541 3876 2806 3521 2858 
5027 4204 3817 3700 3674 3866 4090 4323 3946 
3543 4144 3903 4343 3644 4614 3890 4816 5658 
4895 5652 5616 4470 5764 5007 4680 5487 5541 
4289 2615 5560 5084 5006 5678 5580 5422 5495 
4901 4258 5380 4885 4531 5662 3667 4519 3768 
3652 4603 4473 4854 4999 5993 5725 5637 4907 
2760 5386 4418 4142 4566 4655 5786 4152 4961 
2973 3318 4613 2979 2305 3721 4379 3847 5066 