# vtk DataFile Version 4.2
Generated by LIGGGHTS
ASCII
DATASET POLYDATA
POINTS 6000 float
0.00904535 -0.0396584 0.00416462 0.0194506 -0.0404268 0.00433011 0.0100502 -0.03561 0.00442255 
0.0157236 -0.035964 0.00398998 -0.0227176 -0.0382343 0.0040101 -0.0248877 -0.0374596 0.00728008 
-0.0177326 -0.0413448 0.0040341 -0.0203653 -0.0399678 0.00677747 -0.0151583 -0.0383892 0.00546958 
-0.013606 -0.0428158 0.00486742 -0.0164865 -0.0416179 0.00784504 -0.0128598 -0.0430629 0.00895738 
-0.0112905 -0.0396773 0.00399369 -0.00287993 -0.0448116 0.00406695 -0.0040149 -0.0372372 0.00403295 
-0.00885042 -0.0439441 0.00448339 -0.00697152 -0.0403708 0.00415386 -0.0057831 -0.0446146 0.00723114 
-0.0111264 -0.037623 0.00740705 -0.00398241 -0.0410328 0.00746531 -0.00735829 -0.0388437 0.00789963 
-0.00903024 -0.0440917 0.00951102 0.00501756 -0.0389426 0.00397685 0.00119801 -0.0449588 0.00402291 
-0.00201784 -0.040896 0.00398736 0.00180424 -0.0411255 0.00530326 0.00379209 -0.0447082 0.00708037 
-0.000666074 -0.043688 0.00744363 -0.000465467 -0.0384572 0.00732679 0.00203077 -0.0413332 0.0092733 
0.00637197 -0.0429375 0.00409162 0.0106615 -0.043709 0.00398853 0.00722057 -0.0372671 0.00710288 
0.00572107 -0.0410487 0.00761972 0.00864827 -0.0439691 0.00765346 0.0149003 -0.0416504 0.004243 
0.0127842 -0.038444 0.00534043 0.016725 -0.039025 0.00690579 0.0125289 -0.0427813 0.00739465 
0.0133565 -0.0393352 0.00923318 0.016606 -0.0417324 0.0101295 0.0228078 -0.0378579 0.00553303 
0.0212908 -0.0395888 0.00880389 0.0254462 -0.03617 0.00806036 -0.0292139 -0.0308912 0.0040559 
-0.0330983 -0.0300791 0.00474086 -0.0343301 -0.0289267 0.0085094 -0.0315175 -0.0318715 0.00874135 
-0.0261095 -0.0353384 0.0040088 -0.0251991 -0.0312099 0.00457705 -0.0219331 -0.0339375 0.0040307 
-0.021655 -0.0293409 0.00415393 -0.0292207 -0.0341627 0.00638629 -0.0208412 -0.0360874 0.00803109 
-0.0273248 -0.0294125 0.00769005 -0.0246361 -0.03292 0.00857291 -0.0188077 -0.0372844 0.00419343 
-0.0144168 -0.0346579 0.00399941 -0.018139 -0.0313156 0.00412385 -0.0147635 -0.02918 0.00400051 
-0.0173716 -0.0343466 0.00671284 -0.020618 -0.0319056 0.00737045 -0.014716 -0.0301404 0.00786929 
-0.0129218 -0.0340377 0.007651 -0.00848852 -0.0351675 0.00409813 -0.0116809 -0.0316299 0.00473235 
-0.00844495 -0.0292203 0.00402119 -0.00496476 -0.0309814 0.00553381 -0.00574382 -0.0351179 0.00700297 
-0.00852009 -0.0321046 0.00717309 -0.00207212 -0.0336823 0.00402248 -0.00158456 -0.0289503 0.00408541 
0.00176677 -0.0312516 0.00421833 0.0022954 -0.0346972 0.00777087 -0.00164576 -0.032503 0.00783102 
0.00664885 -0.0323425 0.00402411 0.00367219 -0.035032 0.00401657 0.00901011 -0.029936 0.00649459 
0.0107721 -0.0363476 0.00867136 0.00492855 -0.0302412 0.00710632 0.00748328 -0.0333996 0.00814048 
0.0109481 -0.033728 0.0117445 0.0120085 -0.0317236 0.00404981 0.0192451 -0.0354265 0.00661521 
0.0189184 -0.0289685 0.00681521 0.0162576 -0.0318867 0.00458276 0.0145494 -0.0352091 0.00775542 
0.0124948 -0.0314241 0.00803266 0.0175602 -0.0325765 0.0089526 0.0204119 -0.0318848 0.00412623 
0.0262483 -0.0364839 0.00403117 0.0262511 -0.0292479 0.00403176 0.0288825 -0.0343741 0.00637493 
0.0246782 -0.0330819 0.00547616 0.0285772 -0.0304164 0.0070693 0.0218607 -0.0314127 0.00802087 
0.0315035 -0.0319967 0.00418505 0.0344694 -0.0288828 0.005925 0.0322951 -0.0312762 0.00824743 
-0.0401304 -0.0204004 0.00415415 -0.0380925 -0.0238218 0.00462879 -0.039267 -0.0215619 0.00793726 
-0.0320009 -0.0247151 0.00409458 -0.0358241 -0.0271621 0.0047921 -0.030706 -0.0270443 0.00738909 
-0.0333261 -0.0224621 0.00770095 -0.0282039 -0.0267707 0.00408447 -0.0240083 -0.0256615 0.00400948 
-0.028662 -0.0221709 0.00510875 -0.0225829 -0.02165 0.00414192 -0.0232862 -0.0275949 0.00747392 
-0.0262738 -0.0246954 0.00714469 -0.0138305 -0.0207307 0.00397466 -0.0130551 -0.0246752 0.00414006 
-0.0167167 -0.0259338 0.00529754 -0.0205299 -0.0246867 0.00576744 -0.0152131 -0.0227462 0.00713894 
-0.019156 -0.0277289 0.00797109 -0.0114142 -0.0278671 0.00666922 -0.00837711 -0.0251538 0.0040037 
-0.00981406 -0.0212434 0.00494933 -0.00396306 -0.0253509 0.00400279 -0.00589223 -0.0220679 0.0052851 
-0.00627329 -0.0271307 0.00679616 -0.00915355 -0.0242469 0.0077707 0.0036763 -0.0272897 0.00415492 
0.000123682 -0.0250427 0.00399555 -0.00218234 -0.0210422 0.00407521 0.00179607 -0.02075 0.00417336 
0.000161572 -0.0273474 0.00774106 0.00282373 -0.0242476 0.00708787 -0.00134141 -0.0236076 0.00745874 
0.0120541 -0.0266698 0.00426915 0.00769833 -0.0269255 0.00400036 0.00640455 -0.0223309 0.00429919 
0.0110771 -0.0230898 0.00614654 0.00979411 -0.0266117 0.00879107 0.00730697 -0.0233071 0.00819676 
0.0190857 -0.0258779 0.00398089 0.0148635 -0.0238163 0.00409553 0.0181545 -0.022571 0.00621434 
0.0148827 -0.0203808 0.00728299 0.0151644 -0.025903 0.00774692 0.022675 -0.0235547 0.00405182 
0.022885 -0.0275623 0.006141 0.020936 -0.0200533 0.00479011 0.0248745 -0.0242206 0.00742623 
0.0209982 -0.0242753 0.00857805 0.0365623 -0.0260832 0.00400976 0.0315021 -0.0202802 0.00411832 
0.0309221 -0.0279885 0.00400586 0.0294377 -0.0237043 0.00502318 0.0333896 -0.0234384 0.00591091 
0.0371625 -0.0253029 0.00801901 0.0312851 -0.0274043 0.00791639 0.0386807 -0.0228326 0.00493418 
0.0392032 -0.0218441 0.00886511 -0.0422098 -0.015097 0.00402139 -0.0371884 -0.0151926 0.00402715 
-0.0396825 -0.0171652 0.00656677 -0.0373032 -0.0133544 0.00758593 -0.0318187 -0.0196482 0.00499842 
-0.0332194 -0.0158283 0.00412014 -0.0291496 -0.014813 0.00409057 -0.0363506 -0.0193792 0.00515104 
-0.0321731 -0.01236 0.00573808 -0.0341922 -0.0177039 0.00812073 -0.0289513 -0.0140972 0.00806531 
-0.0251131 -0.0175824 0.00400305 -0.022845 -0.0136873 0.00536575 -0.0280814 -0.0184182 0.00655025 
-0.0237525 -0.0195104 0.00726908 -0.017791 -0.0199905 0.00429762 -0.0200059 -0.0165807 0.00491126 
-0.0133809 -0.0167571 0.00399452 -0.0160458 -0.013807 0.00438582 -0.0197855 -0.0196867 0.00778885 
-0.0124451 -0.0189819 0.00734352 -0.0197628 -0.0139478 0.00795159 -0.0155385 -0.0162866 0.00752885 
-0.0057712 -0.0183106 0.00399342 -0.00947902 -0.0170761 0.00521577 -0.0112388 -0.0132932 0.00542786 
-0.00628654 -0.0137944 0.00403513 -0.00517682 -0.0160267 0.00731032 -0.00804594 -0.0192929 0.00819893 
-0.00246334 -0.0152671 0.00427326 0.00362815 -0.0136837 0.00410106 0.00113789 -0.0164156 0.00577771 
-0.00273804 -0.0194807 0.00771493 -0.00204635 -0.0131324 0.00803005 0.0121865 -0.0198396 0.00409662 
0.00516434 -0.018652 0.00558655 0.00898043 -0.0190158 0.00680128 0.0110988 -0.0145647 0.00401964 
0.00724384 -0.0153443 0.00470722 0.00510541 -0.0156026 0.00814666 0.0105526 -0.014718 0.00798422 
0.0170733 -0.0194213 0.0039906 0.0144725 -0.0165135 0.00486732 0.0177358 -0.014081 0.00489113 
0.014413 -0.0131269 0.00698927 0.0187895 -0.0175597 0.00719765 0.027804 -0.0196611 0.00551733 
0.0212727 -0.0160093 0.00425644 0.0280034 -0.0152634 0.00517546 0.0240533 -0.0134586 0.00554022 
0.0245824 -0.0173872 0.00632055 0.0357809 -0.0199518 0.00429165 0.0320324 -0.0159317 0.00429825 
0.0350999 -0.0129325 0.00410874 0.0326058 -0.0192937 0.00784749 0.0347612 -0.015002 0.00758001 
0.0405125 -0.0192436 0.00408343 0.0422286 -0.0153544 0.00398971 0.0380432 -0.015919 0.00434459 
0.0415346 -0.0172721 0.00741392 0.0376305 -0.0181507 0.0077923 0.038961 -0.0138046 0.00774344 
-0.0440599 -0.00827588 0.00406828 -0.0434566 -0.0116979 0.00596566 -0.0396939 -0.0116431 0.00398498 
-0.0392218 -0.0067049 0.00424182 -0.039546 -0.0100294 0.00764411 -0.0441755 -0.00759611 0.00800434 
-0.0396632 -0.00508815 0.00785119 -0.0356806 -0.0113092 0.00405838 -0.0295031 -0.00990678 0.00402028 
-0.0351037 -0.00721187 0.00407973 -0.0315614 -0.00716772 0.00637539 -0.0349506 -0.00885045 0.00776832 
-0.0257495 -0.0112885 0.00401754 -0.0225412 -0.00584374 0.00494271 -0.0225798 -0.00974422 0.00593638 
-0.0264808 -0.00648481 0.00544491 -0.0270832 -0.0105927 0.0077109 -0.0188161 -0.0109899 0.00506354 
-0.0153251 -0.00934756 0.004032 -0.0183423 -0.00696738 0.00546863 -0.0122848 -0.00605051 0.00538273 
-0.0141962 -0.0116636 0.00801945 -0.01524 -0.00750866 0.00801862 -0.0098429 -0.0092074 0.00487973 
-0.00833941 -0.00415534 0.00490258 -0.0062475 -0.00745364 0.00593909 -0.00652516 -0.0117899 0.00753471 
-0.00943379 -0.00701752 0.00843261 0.00019865 -0.0117381 0.00486724 -0.00359475 -0.0104489 0.00496535 
-0.00212767 -0.00581296 0.00489123 0.00164565 -0.00413684 0.00590936 0.00199896 -0.0120193 0.00844721 
0.000642155 -0.00810159 0.00675606 -0.00302599 -0.0077258 0.00831011 0.00446945 -0.0089175 0.00529991 
0.00810811 -0.0111441 0.00429642 0.0124832 -0.0106458 0.00447981 0.0103428 -0.00727325 0.00516856 
0.00750619 -0.00443685 0.00551226 0.00610006 -0.011609 0.0077814 0.00735451 -0.00776289 0.00788836 
0.0101493 -0.0107168 0.00788683 0.0202009 -0.0110658 0.00588421 0.0163923 -0.0099325 0.0050798 
0.0145183 -0.00591698 0.00540199 0.0186026 -0.00654319 0.00494388 0.0138703 -0.00901558 0.00811955 
0.0244151 -0.00937124 0.00512113 0.0277607 -0.00739358 0.00615824 0.0243357 -0.00536741 0.005342 
0.02731 -0.011548 0.00687777 0.0216501 -0.00763923 0.00744737 0.0315914 -0.0116712 0.00596887 
0.0317704 -0.00763036 0.00623037 0.0347125 -0.00492843 0.00652205 0.0361291 -0.00916164 0.00715117 
0.0433185 -0.0113816 0.00506822 0.0391945 -0.0114333 0.00408829 0.0380324 -0.00706392 0.0042336 
0.0414941 -0.00542959 0.00667909 0.04423 -0.00828298 0.00749104 0.0448486 -0.00370021 0.0080351 
-0.0376788 0.00210504 0.00406879 -0.0429647 -0.00430202 0.00573642 -0.0410773 -0.00111026 0.00411689 
-0.0449828 0.000390509 0.00403522 -0.0413837 0.00233408 0.00665524 -0.038109 -0.00100294 0.00694474 
-0.0449108 -0.00126029 0.00766087 -0.0297026 -0.00354352 0.00427058 -0.0354213 -0.00195476 0.00407002 
-0.0311973 0.000384198 0.00401621 -0.0343922 0.00143974 0.00625809 -0.0340532 -0.00413596 0.00731868 
-0.0300195 0.000532986 0.00782267 -0.032378 0.00479537 0.00799481 -0.0267794 0.000437211 0.0047487 
-0.0255208 0.00437523 0.00411574 -0.0217972 0.00241053 0.00457377 -0.0231613 -0.00168948 0.0050028 
[...]
POINT_DATA 6000
FIELD FieldData 7
id 1 6000 int
652 49 3298 471 252 316 1546 537 1307 
292 117 2513 1741 2479 2867 1691 1903 3269 
1031 2019 1890 2586 502 281 1883 870 3418 
3453 1668 4232 720 3382 2775 2122 2920 4124 
4074 4362 3098 5217 4590 20 4087 525 552 
842 1060 30 574 2444 3471 1 452 2101 
1706 1715 62 123 244 670 71 2894 632 
139 270 38 622 1652 918 468 1619 204 
843 835 2394 64 3639 662 3938 660 973 
4746 3008 3416 118 215 710 248 4080 2810 
531 268 935 2418 1318 2740 314 528 435 
170 1074 1311 48 466 773 1078 810 63 
517 1139 684 1044 825 626 519 498 152 
1055 791 415 588 51 365 568 2213 339 
600 727 329 685 176 382 291 230 46 
2752 80 2547 402 251 522 85 708 274 
247 165 988 35 606 350 364 73 917 
1962 1123 1354 2339 1401 1269 529 976 762 
499 822 88 646 427 550 441 221 2109 
297 2537 145 1011 812 265 1191 1452 1097 
1301 1141 307 789 955 351 1203 1091 848 
784 1583 852 1406 411 109 640 219 1061 
732 223 392 156 515 437 214 440 614 
1189 396 781 178 257 216 1765 512 654 
313 747 18 1713 1628 330 397 1039 647 
2292 1072 713 75 1022 474 479 1561 404 
171 128 1135 444 1157 1436 393 1626 507 
184 333 839 2439 28 1542 377 1861 460 
337 911 235 1440 455 841 2 398 1138 
921 282 1038 616 558 677 858 308 864 
91 645 432 401 582 1732 34 1065 1930 
1372 609 886 2326 2663 107 2636 984 2263 
2366 678 434 906 1458 957 1358 17 1491 
96 840 635 883 671 380 1108 1234 262 
1216 1131 1369 673 1101 1219 1156 1171 1206 
410 758 185 1232 725 987 217 301 1257 
76 1214 379 580 211 1046 19 384 1362 
383 682 400 1632 1045 1397 408 938 2863 
484 916 1426 2452 1606 748 857 3110 2113 
136 1243 740 45 236 1570 1016 590 865 
206 1727 1340 366 153 1560 388 196 1002 
591 105 1066 368 98 578 177 942 508 
286 565 523 354 659 545 344 390 598 
1272 245 1182 1471 1766 1511 173 1446 341 
338 1829 1576 2704 44 208 2517 664 997 
2857 1944 1525 2022 1424 3201 2778 893 483 
1304 887 166 1534 538 1095 1267 851 250 
1645 1070 306 1287 311 667 122 937 513 
879 1094 130 532 352 134 164 557 1738 
50 124 2776 666 207 1792 2915 3595 1043 
575 2659 2961 1687 2331 1855 849 2328 1648 
1642 583 1215 2383 1177 1887 656 100 1246 
2167 1724 701 266 1180 859 27 348 370 
798 688 1465 490 867 57 1339 325 2132 
23 1693 672 2955 343 2635 1958 2523 2633 
2324 1711 3466 2290 687 2249 2266 242 2398 
305 418 129 299 993 795 132 1320 1864 
40 420 385 133 603 461 1000 279 200 
983 127 1969 2528 1077 862 1621 1536 530 
592 4105 1970 399 2511 2182 636 1564 2844 
811 13 927 1164 540 367 258 31 1211 
86 601 910 637 940 417 819 288 2764 
572 1162 2515 620 828 229 373 970 175 
1195 61 160 60 902 2684 429 978 234 
969 3856 1277 3363 101 2380 3953 135 3724 
3941 2457 3458 3902 2749 3132 3129 2001 542 
3968 3827 4073 3834 3730 3839 3653 5236 4768 
4777 4569 4718 5760 4556 4740 4942 3668 4202 
5124 4602 5363 4365 4434 5691 4026 1449 1376 
1294 1922 2206 493 767 1371 1053 1181 2346 
294 1990 1846 2677 589 1625 3137 1735 1393 
2192 2353 2049 69 2809 2856 2378 3227 2992 
3122 3861 2347 735 3492 2850 1787 1775 3208 
3315 2303 3655 2460 3397 4122 4605 3935 4985 
5106 3741 5194 5181 5049 5384 5265 5846 4649 
706 1145 3 3923 3933 4088 3710 3455 473 
126 738 2008 679 3313 500 421 2327 66 
1456 1093 32 1336 869 358 850 1261 711 
14 172 755 1193 570 179 948 979 543 
584 1004 804 320 1231 1238 1283 2614 300 
2070 2681 1379 2074 1280 2502 1678 1899 2627 
1483 2848 363 802 772 2085 3439 2065 1788 
4831 3663 992 2487 2969 2997 3982 303 801 
284 3059 3964 1148 3379 3841 985 694 3534 
774 3576 1333 2329 2626 1630 3212 143 3549 
3702 1837 2135 1152 3006 2746 1419 638 2094 
1345 1588 2477 930 1197 1523 649 278 1163 
1445 336 1810 2491 926 991 7 1776 897 
1342 752 1366 1387 561 761 547 749 425 
716 148 778 167 276 304 1761 1290 786 
448 1699 3073 2086 2648 449 2291 2323 1166 
2247 2123 3493 201 2055 1841 1897 3077 1781 
2773 2741 2449 94 2580 894 968 945 581 
1555 4263 3914 3591 2542 2232 111 371 909 
1092 296 2785 1853 629 1194 2930 2438 1914 
1802 81 1472 2612 2585 1184 2602 2358 576 
1088 1539 2148 2261 1013 2020 1939 1115 1021 
608 1240 2097 2510 2338 2432 1071 1562 1790 
691 56 2478 1254 2423 2340 1770 1694 1172 
1085 829 707 1090 263 2028 369 1068 1616 
1134 759 793 349 112 1244 1252 25 944 
1276 989 1381 1067 1001 919 526 1368 2056 
780 782 1270 1151 464 1338 1057 1274 607 
1003 161 445 962 138 2102 1253 821 860 
1281 11 492 1198 630 548 238 827 669 
83 1548 416 125 3027 1292 861 29 324 
210 1403 1968 261 734 577 1585 1512 520 
964 737 1891 1600 477 1550 1466 2550 1828 
1584 209 302 374 1955 1129 1221 1347 628 
1767 1874 549 1421 1934 1757 2883 1768 3353 
2990 2059 1505 1722 2104 885 1641 1334 2023 
2389 2459 1953 2606 2015 168 2060 103 1444 
1734 1348 1258 1051 1430 450 1412 982 808 
535 1357 769 1023 1337 650 803 1684 555 
327 1824 1665 974 975 1058 1380 469 818 
633 1036 830 949 182 1155 995 1453 602 
951 256 97 222 925 1321 346 847 675 
805 405 1032 8 480 783 277 70 169 
447 698 1404 1284 395 981 1056 1200 1651 
1322 2236 1592 726 1259 1832 1730 1027 1352 
881 1670 904 1607 1015 1228 1886 1236 241 
403 459 78 1631 1305 1885 1462 1611 1859 
2264 3305 2900 2118 1959 2385 2974 162 952 
3005 1300 963 2691 2105 1288 1590 721 1450 
1620 1598 567 2265 1266 731 1175 310 815 
283 1494 1422 779 564 451 605 764 836 
1634 269 714 326 465 724 4 359 1208 
419 202 873 1169 65 391 488 188 104 
785 1205 381 613 653 882 213 59 47 
423 198 1532 271 1804 814 1671 936 596 
641 2274 463 627 2280 2217 2334 1568 149 
2654 2897 569 1910 2754 2136 3045 1637 3753 
26 2905 2768 2560 1612 2687 3600 1614 3189 
3093 3546 1052 2071 1709 1667 353 900 1218 
3662 1037 1816 2577 1420 1605 1223 1400 1385 
442 1850 2391 43 1480 472 1654 892 715 
514 1643 651 2296 1158 1427 689 280 634 
587 697 534 695 915 845 1271 890 553 
53 106 253 501 1159 1316 340 665 154 
82 1075 1117 1438 1332 541 323 1192 438 
1862 1029 1638 1107 2911 2793 1819 618 453 
3243 1797 2534 4154 2521 4280 496 742 2555 
551 1526 2600 3851 2999 4909 4452 4810 267 
2579 181 1901 4592 4032 680 55 2302 1225 
1528 3068 92 3089 2642 2987 1798 1831 2341 
896 2095 1531 1923 2591 2781 2190 950 559 
1527 2262 1398 1378 328 1556 347 516 67 
1126 1185 907 231 560 1048 319 1099 1103 
439 619 1747 142 914 1888 1581 933 1957 
959 275 2879 227 1414 3099 2631 1516 1429 
2475 2551 2210 1896 433 9 362 3689 476 
3436 2081 2100 1821 2705 874 2629 2220 4711 
1487 4020 3389 2709 658 797 3432 3993 2393 
4035 4867 3988 4459 1961 3101 146 2258 2501 
3087 2655 1913 2400 1689 3023 2197 2852 1805 
1034 3431 2583 2462 2895 456 121 1817 676 
1679 2345 1188 2235 431 2404 663 1510 756 
194 387 1490 826 729 1186 681 2574 853 
2315 1226 298 1388 3396 3206 1118 2830 806 
295 189 1390 1762 611 2996 1168 536 3058 
446 4227 1750 2940 3822 3408 5726 3017 3420 
1907 3126 4188 2731 3166 2454 2751 1024 863 
2116 895 254 1906 357 2161 1146 1520 809 
2256 766 3762 546 524 1069 1136 1749 15 
961 1028 1010 1818 2283 1005 1807 2403 2289 
674 3409 3052 1579 3615 2325 3747 3028 1325 
1017 1306 413 3226 1317 2737 4865 2111 3082 
998 2605 1360 2451 3475 114 2846 3374 871 
2216 4303 3975 2698 2639 3449 3773 3464 4033 
1998 4400 4133 3223 3124 4466 4544 4272 4017 
2787 5406 4006 3883 3347 4484 4229 5808 4371 
4447 3949 4853 4128 5645 3869 5695 4600 5504 
4174 4388 5684 5224 4249 5929 5358 4267 4982 
6037 5346 1827 1492 1647 971 42 1733 1245 
1926 1204 315 2277 1695 2069 1801 1971 2891 
2617 2772 1479 2435 2811 2134 1705 2495 2882 
3769 3767 4663 4063 3141 4111 4700 4187 5833 
3009 3361 4469 3920 5282 1664 4179 4131 3804 
3723 6045 5163 3699 4747 5483 4956 5536 6007 
3961 4598 5043 5557 4304 5290 4892 5913 5500 
3791 5297 5451 3216 4284 5663 6012 6059 5105 
5097 5304 4353 3387 3039 4682 4703 1650 3714 
2173 1482 1809 960 1947 2000 2149 1160 2237 
3520 1739 481 2038 2036 700 1869 965 1873 
2093 2538 4237 1748 1994 1676 1929 1931 2119 
1367 1870 2039 3011 2791 1594 2596 3016 3116 
3555 5345 3079 4846 3351 3349 3867 5723 4918 
3337 4930 3465 4530 5858 3372 4874 3772 4638 
4430 3688 5235 4496 5498 4290 4646 4405 3913 
3230 3311 5935 4741 5716 3032 3421 3984 5281 
3075 4000 3443 3324 5014 2569 1659 3479 657 
2387 1716 3229 2611 2212 1383 2297 2428 2127 
2877 3231 1574 2233 2716 3607 3251 2003 1235 
1409 1586 2248 2106 3100 929 648 1086 753 
1839 1963 1375 6 838 1447 1604 1772 2214 
3105 625 1489 1811 1111 2407 1834 2254 3508 
1842 2892 2125 2783 4384 2409 2382 4285 3770 
3577 2494 3727 2694 3965 3026 4260 4518 3213 
2322 3147 4083 3729 1995 3033 190 3611 4003 
3732 3618 1915 2147 4355 3580 3807 3666 2711 
4257 3295 2108 876 3102 1707 4511 3414 3872 
3373 5915 3375 2222 2623 2310 3013 3335 4013 
2536 5680 2410 3939 2469 4046 2738 4254 3048 
3617 2363 2062 1945 3066 1710 1356 3473 2620 
2881 1911 2050 1161 1559 1927 486 1876 1786 
1658 1239 2616 898 2272 891 1476 2259 1133 
586 491 595 1936 193 2298 1981 1319 533 
1537 566 2504 1696 192 1080 1408 1435 1894 
1979 1580 696 1635 1543 2540 2682 116 509 
712 458 1517 3003 977 1639 1720 2010 884 
820 1928 1170 1298 604 1685 2640 2747 2703 
1633 1213 1867 2953 2587 2912 2531 2080 1655 
3957 1909 309 2245 1437 3192 3381 1751 1686 
1331 1154 426 2114 2603 2843 3459 3709 2453 
3128 2490 3588 3446 4002 2870 3641 4940 3745 
3992 3838 3659 1782 2512 1872 2181 2099 3065 
2446 3257 1551 833 1273 1448 692 1202 771 
1147 3083 2317 972 2083 505 623 1335 84 
1822 503 436 95 1974 831 225 495 624 
1355 1714 1549 345 285 2058 750 1823 760 
931 1683 240 1425 141 744 150 212 290 
686 1233 1997 699 1629 999 33 187 733 
2174 1405 723 1224 1443 1935 1434 2532 1315 
102 1838 1503 39 1871 2480 612 1949 2959 
2156 2503 3103 3297 1249 2896 2227 1698 1905 
1063 1563 639 1098 2420 2998 2130 3184 3544 
3542 3393 3366 3583 4608 4155 4507 1703 3020 
3685 2356 2744 3999 4091 1578 800 2696 87 
1122 2442 1603 3169 1124 1898 1573 318 722 
1524 2002 1795 462 163 610 376 487 877 
807 137 1310 1040 37 1143 1286 1054 322 
1459 41 1165 120 115 908 1073 585 617 
422 1050 180 1217 775 980 99 875 703 
1100 1187 2219 24 4205 1114 3413 2304 1289 
2488 1374 4837 2392 2861 4139 1799 3012 5110 
3529 2202 4668 2842 2666 3758 3726 2013 2875 
2129 3022 2739 2257 3857 3915 3210 3153 2965 
3579 3511 4854 3627 3246 2748 2686 3837 2977 
3501 3410 3652 3599 4418 2807 2273 3177 1723 
3240 2928 1395 2993 2006 430 705 2032 246 
273 1432 1577 144 360 1359 1700 763 1541 
1952 110 1389 489 147 1229 1149 372 342 
1237 2177 834 1796 615 2153 191 2354 332 
443 889 1119 928 2238 799 2426 1499 3755 
1854 1464 1500 1314 2440 2923 3106 2518 2656 
2960 2436 4932 3215 2805 4191 4403 4159 4872 
4094 3900 4883 4685 5007 3681 3040 3793 3585 
5040 3010 3855 4616 3162 4999 3667 3434 2447 
3406 3444 1803 4341 3910 4907 3279 4555 3209 
3262 3094 2924 3165 2052 3173 2983 1012 3806 
2821 1329 1843 2545 482 2373 1858 3398 655 
1167 2241 21 539 2073 1530 1653 518 1719 
2941 1260 2484 2862 2619 1481 1173 1106 2048 
2544 2396 3757 2526 2455 3163 2572 3909 3218 
3859 4070 2067 4650 2849 2646 4882 2027 3232 
4377 4252 4065 4346 3488 3321 2692 2888 5135 
3245 5664 5495 4138 5541 5090 5583 5560 5991 
5577 4258 4678 5200 2242 3427 3340 3661 4251 
3540 3399 3815 2352 2789 4334 2944 3514 2311 
3868 4184 903 1673 1991 1932 2117 2519 1538 
924 2972 1916 2120 2622 4135 1941 1497 2411 
2142 3816 2527 1299 3929 3597 2497 2364 3625 
3590 4001 2424 3563 4348 3780 3510 4045 2588 
2975 2530 4390 2618 2978 4543 4438 4482 2543 
3368 5226 3369 4791 5259 5815 5150 2950 3530 
4815 3552 412 2593 2676 3322 478 1791 3107 
1851 3809 2103 2962 4264 1514 1662 2799 2064 
4268 1399 3463 1535 1047 2151 3405 2695 2589 
2077 1627 2825 3491 521 4360 2869 3647 3316 
2514 3310 2549 2665 4391 4345 4176 3967 4571 
3364 3536 3186 4671 3291 3545 3980 2096 1451 
2644 3509 497 2458 3794 3451 1743 5927 3138 
3329 5178 6058 2782 3308 4756 3844 5539 3882 
5515 4683 5804 5409 4562 3947 5026 4153 5368 
5706 4427 4086 5298 4709 4970 4060 3892 5794 
5402 3521 3825 4321 3285 4761 2427 5372 5052 
5739 4209 5318 4373 3922 5529 5420 5573 5229 
1924 2175 1840 1849 2200 2483 2336 2721 2967 
2556 2971 3154 2598 2567 3424 3944 3733 4052 
2112 4704 2485 4143 2823 5048 3708 5219 4890 
5366 5522 4847 3412 5736 5389 4167 5421 5964 
4989 5673 4437 3738 3578 6001 4140 5127 5811 
5424 2853 5521 6043 6032 2916 5875 4553 4762 
6029 6027 3558 4888 5943 5134 4689 3586 6053 
5728 4719 4534 5059 5303 5936 5514 4737 5255 
5672 2481 2558 1624 2658 2412 3893 2680 2700 
2906 2994 3358 2647 3983 1881 3265 3945 3195 
3401 1498 2309 2652 4025 2818 3670 2320 2859 
3684 3029 2668 2831 5039 3130 3907 4036 3748 
3191 4029 2079 3516 4527 5446 4378 5388 4383 
4540 5205 5840 5128 5909 4659 3426 4595 4625 
4433 3403 4800 4712 5513 5206 5775 5266 4493 
5426 5390 3030 5223 5412 5705 5261 4457 5188 
5220 5238 4509 5718 5948 5348 4782 5586 3954 
4308 4465 5962 6010 5322 4910 5701 5740 4610 
4357 5553 2836 3254 3336 2335 2552 3905 2493 
1746 2018 3085 4125 4374 2228 2145 3462 1675 
2847 1996 2578 2745 1984 2171 2372 3139 2667 
3119 2925 3778 2482 2075 1880 2321 1623 2557 
2576 1222 2529 3224 2196 2332 2414 3634 2604 
2743 3524 1808 2282 2168 741 1660 3506 1889 
3280 3225 5035 3532 2489 4292 3564 3270 2260 
3392 3538 3781 3994 4021 4219 2506 4211 4367 
4243 3217 3672 5317 3828 3160 4350 3826 4101 
2649 5531 2800 4095 4389 5423 4935 3692 3454 
5478 5864 5665 3069 5700 4412 4567 4248 5080 
4005 4053 3293 4178 2670 3470 3437 3565 3635 
4498 2761 3309 3272 4804 3151 2757 3402 3750 
2430 1104 899 2936 2377 1893 2899 2801 2769 
2966 1866 2417 1486 644 2004 757 1513 4576 
2399 2207 1384 1657 1326 2072 1815 2176 2194 
454 1940 2082 1900 1701 2496 2948 218 2362 
2651 1137 2230 2198 1895 1663 1992 1113 1826 
2355 1688 1692 1697 3860 2128 1251 2672 113 
1062 1313 3219 3084 2770 3035 3342 2189 2431 
1382 3550 4478 3777 3478 3019 4376 3057 1041 
4212 3359 3682 4828 4309 3362 5730 4240 4784 
3948 4192 4454 4924 3636 4559 4246 4691 4443 
3680 3377 4217 4328 4802 2561 4089 2945 3977 
4064 4062 4419 4558 2226 1878 3062 2724 1892 
3743 2898 4708 36 693 1116 1082 1364 990 
1179 1349 2143 1728 1468 1125 1264 378 511 
151 739 10 1575 1153 237 1485 317 813 
1278 406 1190 872 272 1035 642 1084 119 
228 1431 1242 2051 787 58 2025 1506 1312 
428 1230 2376 485 1353 1596 2767 2054 1296 
1377 2162 2982 3220 2419 2107 2250 3784 2337 
2365 2732 1721 1474 986 4382 3494 3260 1461 
2251 3388 563 2613 2837 3829 5053 4658 3698 
4946 4618 4922 3485 5765 3157 4528 3613 3858 
4696 4731 3573 1908 2932 2314 3276 2141 2865 
4755 3292 1250 1391 1496 1942 2139 1769 1877 
108 2057 832 1150 355 556 90 424 260 
457 16 475 880 856 544 1007 197 409 
846 407 334 777 205 389 186 510 293 
1059 939 1081 1813 2643 255 1825 2369 2653 
2343 1754 947 2958 1983 2813 2910 2312 1708 
3136 2229 2406 3323 4298 4055 3798 3185 4276 
2860 4114 2184 3238 2780 4519 4753 5269 3842 
4593 4084 5993 3707 4717 3193 5264 5018 6002 
5117 3248 2076 2756 3895 5386 2610 1018 4655 
3622 4566 1835 1484 506 1729 1413 386 2465 
1814 1460 817 923 668 159 1554 922 68 
199 946 1478 259 1014 1567 1519 901 1328 
414 1868 233 1327 776 1455 52 1033 1475 
2384 3031 1669 1351 3239 2817 941 743 2063 
3452 3317 2163 4920 1985 4239 2908 3570 3649 
5050 4857 4901 2753 5487 4306 3518 4842 4876 
2650 3071 5524 4004 4714 3677 4789 4630 5637 
4473 5310 4603 5786 4145 3146 5725 4662 5207 
4152 3450 2760 3041 3934 3037 5549 3334 3897 
5777 3400 2144 593 4549 792 4613 2766 4351 
3489 2294 3095 2306 1783 631 2795 2798 2985 
2641 2441 3256 1904 2826 823 2570 3117 3070 
2828 2546 2707 1615 1933 2221 1844 2500 3686 
2140 3526 4395 4964 3476 5537 2952 5476 4715 
5270 2568 5155 5566 4536 5764 4314 4269 5006 
5633 3903 5678 4948 5781 5084 4781 4680 4531 
5162 4885 5422 4692 4270 2835 5809 3594 3433 
2729 3679 3775 4453 4526 4933 4293 5780 4277 
4701 5185 2814 3581 3304 3843 4126 4190 2868 
5575 4698 4583 3038 3675 2535 3779 2720 3442 
4738 2467 3430 2395 1718 2980 2690 3002 3904 
3614 3810 5231 2854 4043 4100 4606 5431 3704 
4069 4181 5981 2592 2946 5454 4335 3951 3996 
5989 5600 5103 4990 4506 5218 4197 5542 6006 
4881 5934 5176 5787 5174 5574 4667 5863 5074 
5503 2797 4352 4635 3719 2708 4158 3805 3512 
3288 4748 4164 2794 4995 3367 2499 2299 3517 
1308 4082 4115 1121 3551 2788 4381 3356 2884 
3963 2463 5982 4690 5184 5742 2699 4057 3908 
4012 4392 4224 4926 4591 6025 3665 5367 3566 
4573 3327 5009 3950 5460 5512 4480 4699 4477 
5161 4440 4647 3088 1365 3840 5712 3671 4541 
3819 4687 4022 2520 4500 5316 4409 6017 5377 
4582 3531 4464 5314 5768 4103 3725 5202 6040 
5428 4411 4919 5732 5073 4775 5302 4752 5055 
2645 5416 5944 4106 4501 4297 3616 4315 5260 
5904 868 3104 5400 4039 4361 1917 4222 5455 
5208 5232 2293 4271 4331 4734 6057 2919 5058 
4980 5256 3927 5839 1806 4462 5828 5938 4295 
5034 5849 4604 3415 2131 4943 4099 3144 5359 
5243 3180 3021 4697 3326 4563 5796 2878 5299 
4896 3690 5711 4928 5227 2984 5639 4954 5932 
4463 6048 5592 4148 4744 5759 5949 2963 3973 
1800 3407 3025 4250 2607 4132 2662 3812 3942 
4241 3630 5750 2474 5533 2562 5153 2838 2871 
2931 2763 2381 3673 2917 5903 3800 3283 3621 
3207 1677 3547 953 5341 3987 2443 4657 2433 
6011 6047 2674 5867 5682 3587 4499 3785 5199 
5719 5170 3731 4988 2301 4939 5506 2252 3932 
5081 4570 3172 5189 5481 5563 5442 6016 4439 
4821 4123 5584 5614 4322 4502 3737 6068 5882 
2762 3959 3830 3863 4016 3047 3490 1509 5876 
4754 5912 5157 5072 2468 2473 3267 3648 2918 
3182 2183 5025 4407 2307 1863 2792 4580 2470 
3202 2466 2361 2873 5805 3277 3196 2638 2594 
1042 3114 1209 765 4984 3306 4302 3717 2014 
2872 2939 3846 4461 5997 4189 5065 4220 4214 
5278 5489 5340 2524 5826 6065 5696 5848 4347 
4674 4147 4196 4206 5325 3610 2011 5526 5710 
5484 5203 4279 5319 5951 5908 4318 3754 4760 
5077 2819 3995 5688 2771 2710 3274 5159 6005 
3090 3774 4751 1833 2425 3561 3504 2790 2318 
5147 3894 2759 2554 1902 2779 4058 2564 2091 
3152 1346 2421 2061 2005 1110 2240 2137 1836 
1470 1875 2351 1636 1950 2188 2158 1977 3346 
1109 1656 2413 3435 361 1256 2624 287 2017 
3620 2461 1967 2609 1501 1759 1982 2450 2284 
3486 2927 2951 3390 4358 4107 5131 4359 2688 
4320 4446 3236 3081 4102 5085 4130 2933 3873 
4372 3911 5474 4085 5166 4792 4185 3628 4636 
3522 5923 2774 2717 3074 5599 5646 3370 2685 
5309 5596 3214 3823 3148 4150 5000 1789 1553 
996 3034 1680 2851 1784 2209 1601 1690 1529 
905 1142 1736 1495 1087 1467 1295 794 1144 
1247 943 1617 224 249 1760 1591 702 1674 
1547 1096 1241 72 131 1753 1794 1363 2786 
1972 1845 2166 3606 2437 2582 2379 2822 3629 
3548 2943 3161 2088 3572 4166 5681 4539 2750 
1587 3782 2486 3127 3394 5670 3917 2445 5709 
4037 5647 2388 3111 3419 2584 5351 5456 5432 
3497 4656 2548 3261 4316 2914 4161 4142 2160 
736 2040 1595 2164 3142 2215 1569 3357 1921 
356 1812 1227 1064 1582 643 1752 571 1006 
5 1248 1112 140 239 1920 1220 289 494 
1469 527 573 1613 89 1755 746 158 1089 
878 1297 22 3472 1442 1411 1978 3852 2964 
1566 1418 2456 4448 3296 4597 4727 4722 4078 
1571 2968 2796 4707 4745 3481 1946 1394 2758 
2719 4807 3768 5990 5068 3683 5609 3482 4421 
2044 5060 4898 5138 2803 4866 4007 2243 4337 
4492 3495 3318 3891 3468 3234 5496 3528 1361 
2295 2833 2516 1545 2305 967 2986 2701 1076 
2090 2035 2126 1618 621 1599 1130 2991 1291 
1518 321 1265 888 1344 854 1852 1407 157 
2657 913 1951 954 1303 2725 2509 77 554 
1602 4343 2903 226 1702 1943 2370 1176 2374 
4913 2342 3282 3644 1830 2031 4824 3263 4081 
4599 5300 4370 3064 2615 5968 4458 2505 4450 
4632 4517 4679 4512 4375 3701 5559 5222 4076 
5562 4962 5967 5671 4829 5847 4961 5973 3696 
4877 5636 2902 4213 5597 3258 5066 3721 4584 
4379 4844 4354 5963 1973 1127 2218 3678 3646 
3958 3811 3619 3885 2765 4490 2053 770 3339 
3457 3168 2152 2816 3705 4113 2904 3916 4387 
5172 690 1682 3376 4661 4772 2679 2957 4916 
4895 4783 4117 2713 2279 5518 3946 5810 3700 
4234 5658 4072 4816 5465 5027 5952 4068 4622 
5108 5251 5143 3503 5075 5878 4702 4851 5488 
4725 2938 5380 4244 5343 4432 5693 5056 3898 
6063 5766 5119 4533 5543 5984 4077 4937 5602 
4098 5881 2995 3036 2727 5758 4798 5082 5615 
4664 3584 4693 4169 5099 4504 4651 5916 4520 
4953 1964 2820 4119 3505 4198 3749 4911 5519 
5925 3307 4300 5785 3480 5954 3275 2893 4652 