# vtk DataFile Version 4.2
Generated by LIGGGHTS
ASCII
DATASET POLYDATA
POINTS 6000 float
0.0362394 -0.00026195 0.00399477 0.0360597 0.0268111 0.0039917 -0.0224104 -0.0390207 0.00397146 
-0.0254038 -0.0371376 0.00646952 -0.0188388 -0.0408158 0.00490057 -0.0147248 -0.0419898 0.0039943 
-0.0139673 -0.0374578 0.00536609 -0.0174377 -0.0379553 0.00752869 -0.00491118 -0.0381996 0.00547965 
-0.0112013 -0.0405001 0.00597713 -0.00922002 -0.0440265 0.00565529 -0.0074386 -0.0408047 0.00733667 
-0.000248301 -0.041082 0.00580091 -0.000953198 -0.0449605 0.0064856 0.00256496 -0.0382424 0.0066245 
0.00772192 -0.044249 0.00532065 0.00930593 -0.0402831 0.00523906 0.00511521 -0.0417078 0.00730078 
0.00647761 -0.0377375 0.00753094 0.0132167 -0.0428889 0.00498343 0.0134289 -0.0389083 0.00518994 
0.0170314 -0.0416517 0.00541483 0.0178918 -0.037669 0.00662033 0.0209521 -0.039614 0.00461769 
-0.031341 -0.0322696 0.00569105 -0.027505 -0.0302238 0.00638129 -0.0220819 -0.0307586 0.00696618 
-0.0204105 -0.0354894 0.00511615 -0.0164914 -0.0341902 0.00624217 -0.0180812 -0.0305017 0.00688449 
-0.0141836 -0.0309005 0.00588998 -0.00961927 -0.0367549 0.0061915 -0.0101689 -0.0315034 0.00628925 
-0.00605532 -0.0306371 0.00665083 -0.000676813 -0.0359949 0.00532414 -0.00243126 -0.0323526 0.00657473 
0.000842202 -0.0300019 0.00648737 0.00351113 -0.0343808 0.00587888 0.00609807 -0.0310399 0.00598301 
0.0085563 -0.0344303 0.00585247 0.0100932 -0.0302866 0.006761 0.0123572 -0.0349444 0.00414896 
0.0179368 -0.0309661 0.00402897 0.0156011 -0.0343126 0.00644495 0.0197681 -0.0321314 0.00750917 
0.0273197 -0.0308378 0.00398969 0.0217598 -0.0357463 0.00408416 0.0267486 -0.0360327 0.00403954 
0.0237684 -0.0287528 0.00423007 0.0239957 -0.0327566 0.00588882 0.0241685 -0.0375481 0.00705964 
0.0305149 -0.0328346 0.00573893 -0.0391246 -0.0220859 0.00637974 -0.0302521 -0.0275889 0.00764005 
-0.0354034 -0.023503 0.00589852 -0.0313799 -0.0237904 0.00619056 -0.0236169 -0.0221996 0.00490123 
-0.0270555 -0.0237186 0.00627569 -0.0249508 -0.0271317 0.00671348 -0.0164517 -0.0212852 0.00664514 
-0.0166916 -0.0267195 0.00586868 -0.0205805 -0.0270048 0.0071342 -0.0124903 -0.02136 0.00748845 
-0.00962599 -0.0242992 0.007278 -0.0128555 -0.027166 0.00754289 0.000595006 -0.0219723 0.00549818 
-0.00288237 -0.0281498 0.00631913 0.000539093 -0.0260325 0.00607095 0.00519366 -0.0233414 0.00559797 
0.00921622 -0.02606 0.00536663 0.00956286 -0.0215593 0.00398861 0.00464623 -0.0272959 0.00659208 
0.0130837 -0.0245244 0.00530185 0.015067 -0.0280986 0.00511123 0.0174899 -0.0247719 0.00461061 
0.0270328 -0.022056 0.00407886 0.0210886 -0.0230168 0.00421024 0.024437 -0.0248219 0.0054987 
0.0208311 -0.0274683 0.00667377 0.0332359 -0.030163 0.00404662 0.0277907 -0.0263988 0.0040323 
0.033357 -0.0226243 0.00399784 0.0301231 -0.0236801 0.00606251 0.0352051 -0.0278775 0.00784296 
0.0301864 -0.0287476 0.00627392 0.0344853 -0.0235313 0.00790006 0.0357927 -0.027002 0.00400003 
0.0378167 -0.0238635 0.00551534 -0.0401832 -0.0188145 0.00397262 -0.0402388 -0.0126644 0.00466256 
-0.0430169 -0.0122071 0.00788912 -0.0417458 -0.0160583 0.00665296 -0.0364062 -0.0138731 0.0040066 
-0.0340732 -0.0172171 0.00416137 -0.0300304 -0.0189224 0.00497637 -0.0335484 -0.0199367 0.00756009 
-0.0371749 -0.0184551 0.00658952 -0.0306734 -0.0150361 0.00673978 -0.0214014 -0.0149555 0.00551988 
-0.0275299 -0.0123324 0.00583995 -0.0264632 -0.0195274 0.00671289 -0.0252896 -0.0156593 0.00627832 
-0.0205564 -0.0193988 0.00649295 -0.0159558 -0.0173859 0.00581128 -0.0130263 -0.0137775 0.00731278 
-0.00877438 -0.0198028 0.00687158 -0.00265215 -0.019684 0.00618675 0.000753588 -0.0175799 0.00594535 
2.08166e-05 -0.0136535 0.00627351 -0.0039016 -0.0156684 0.00693168 0.0043967 -0.019404 0.0049722 
0.00408822 -0.0148778 0.005162 0.00794882 -0.0172005 0.00459656 0.00743747 -0.0127103 0.00449079 
0.0120528 -0.0162776 0.0040134 0.0102626 -0.0144044 0.0073435 0.010736 -0.0185593 0.00711898 
0.0162953 -0.0160857 0.00435145 0.0135008 -0.0204444 0.00449082 0.0176214 -0.0208073 0.00505005 
0.0146125 -0.0177827 0.00777024 0.0176368 -0.0126063 0.00585213 0.021025 -0.0189976 0.00405232 
0.0266673 -0.0150669 0.00401826 0.020775 -0.0146407 0.00400612 0.0204668 -0.0167873 0.0073445 
0.0239566 -0.0206522 0.00624078 0.024476 -0.0166216 0.00703292 0.0218645 -0.0125079 0.00800533 
0.0320101 -0.0179817 0.00408896 0.0283949 -0.0186965 0.00587126 0.0354625 -0.0158879 0.00476957 
0.0359897 -0.0199723 0.00561911 0.0300557 -0.0142516 0.00642108 0.0325163 -0.0198002 0.00761915 
0.0399343 -0.0204702 0.00410808 0.0397848 -0.0158726 0.00402904 0.041146 -0.017973 0.00721052 
0.0378655 -0.0131119 0.00640951 0.0425449 -0.0142033 0.00805311 -0.0419234 -0.00907853 0.00516108 
-0.039501 -0.00592933 0.00624724 -0.044741 -0.00469312 0.00674937 -0.036253 -0.00431693 0.00437776 
-0.03498 -0.0081704 0.00445626 -0.0312964 -0.0108491 0.00553757 -0.0371628 -0.0105607 0.00722797 
-0.0322807 -0.00737725 0.00745854 -0.0234346 -0.0111505 0.00464938 -0.0231769 -0.00485559 0.00499349 
-0.0284046 -0.00648542 0.00596933 -0.0226203 -0.00822024 0.00741284 -0.0193208 -0.00634115 0.00504867 
-0.0191943 -0.0116029 0.00503801 -0.0165824 -0.00906346 0.00685686 -0.0142871 -0.00577578 0.00673633 
-0.0102046 -0.00607474 0.00648417 -0.00716875 -0.00975206 0.0064043 -0.0125568 -0.0093876 0.00714439 
-0.00355092 -0.00783091 0.00530055 -0.0036126 -0.0119257 0.00549156 0.00259258 -0.0106275 0.0055058 
0.000987255 -0.00682724 0.00578375 0.00640322 -0.00849258 0.00509293 0.0102942 -0.0056333 0.00455932 
0.0115748 -0.0117857 0.00408315 0.00459418 -0.00548805 0.00734847 0.0152592 -0.00968901 0.00413308 
0.0142219 -0.00599409 0.00557221 0.0181358 -0.00724506 0.00666582 0.024294 -0.0117478 0.00398599 
0.0216825 -0.00556764 0.00399809 0.0256442 -0.00719109 0.00422415 0.0206775 -0.0096608 0.00404397 
0.0255677 -0.00984807 0.00728526 0.0250178 -0.00402788 0.00677702 0.0222668 -0.00694152 0.00771207 
0.0328598 -0.0127065 0.00402006 0.0294738 -0.010069 0.00415537 0.0328021 -0.00619199 0.00461027 
0.033654 -0.00977239 0.00662928 0.0288504 -0.00614237 0.00639998 0.0298114 -0.0096893 0.0081228 
0.0356799 -0.00681617 0.0085134 0.0429502 -0.013349 0.00403531 0.0397262 -0.0103143 0.00410955 
0.0373379 -0.00691353 0.00403041 0.0441839 -0.00735862 0.00399659 0.0406461 -0.00635543 0.00630791 
0.0427507 -0.0099824 0.00666761 0.0443887 -0.00729981 0.00914441 -0.0426239 0.00219984 0.00399076 
-0.0418924 -0.00309342 0.00418809 -0.0448792 -0.000752891 0.005852 -0.0388628 0.00246542 0.00541664 
-0.0387186 -0.00163185 0.00615173 -0.03529 -4.32751e-05 0.00466492 -0.0318247 0.00101338 0.00647257 
-0.0326303 -0.00285474 0.00574856 -0.025746 -0.00205686 0.00630909 -0.0239935 0.00148818 0.00704324 
-0.0271971 0.00390049 0.0077388 -0.0210608 -0.00154663 0.00670433 -0.017076 0.000287753 0.00685038 
-0.0201968 0.00289544 0.00655306 -0.0175959 -0.00362569 0.00751786 -0.0137645 -0.00188985 0.00563419 
-0.011736 0.00177506 0.00558687 -0.00760246 -0.00324268 0.00537888 -0.00566609 0.00379342 0.00524134 
-0.00867597 -1.5744e-05 0.00751717 -0.00480534 -5.78477e-05 0.00605974 -0.00358461 -0.00380415 0.00522368 
-0.00188211 0.00245255 0.00481289 0.002806 0.00167197 0.00520902 0.000267646 -0.00285967 0.00596884 
0.00400892 -0.00212713 0.00473612 0.00672773 0.00094948 0.00476839 0.010551 -0.000239909 0.00481544 
0.00775352 -0.0027267 0.00632206 0.00923862 0.002771 0.00751619 0.0153763 2.58228e-05 0.00400005 
0.0129983 0.00288947 0.00547184 0.0173976 -0.00362794 0.00443429 0.0124716 -0.00274605 0.00732273 
0.0179616 0.000291744 0.00724393 0.0226773 -0.000374672 0.00439345 0.0201167 0.00362022 0.00397955 
0.0272204 -0.00177605 0.00399705 0.0231363 0.00327261 0.00671713 0.020689 -0.00294082 0.00699023 
0.0254693 -0.000134299 0.00761204 0.0323195 0.00117952 0.0040986 0.0310637 -0.00256486 0.00536747 
0.0285249 0.00243939 0.0041616 0.0362582 -0.00348319 0.00641415 0.0326385 0.00239572 0.00792476 
0.0331488 -0.00255875 0.0087819 0.0447573 -0.00329777 0.00417319 0.0395504 -0.00327691 0.00399128 
0.0404622 0.00237536 0.00409617 0.0447749 0.000902156 0.00404875 0.041721 -0.000726157 0.0063226 
0.0374733 0.00216514 0.00699315 0.0395883 -0.00287468 0.00910702 0.0448191 -0.00335374 0.00842935 
0.0404366 0.00485736 0.00725445 0.044967 0.000640962 0.00819017 -0.0437579 0.0104265 0.00446479 
-0.03961 0.0114259 0.00478032 -0.0380497 0.00757179 0.00630761 -0.0335573 0.00755167 0.0052906 
-0.035106 0.00408357 0.00673457 -0.0331874 0.0112898 0.00686463 -0.030132 0.00873982 0.00715027 
-0.0310985 0.00489138 0.00764633 -0.0226634 0.00931532 0.00630194 -0.0263695 0.00783014 0.00604645 
-0.0232989 0.00541829 0.00693103 -0.0257969 0.0117995 0.00589274 -0.0196901 0.00688333 0.00516995 
-0.0165677 0.00421186 0.00546442 -0.0149359 0.00933554 0.00564443 -0.0189885 0.0108234 0.00577546 
-0.013146 0.00573371 0.00690725 -0.00945642 0.00507224 0.00547543 -0.0075376 0.0085383 0.00485768 
-0.00535912 0.0118235 0.00408354 -0.0110665 0.00915133 0.00670063 -0.00310259 0.00692312 0.00473555 
-0.00149635 0.0106422 0.00416325 0.0023574 0.00845614 0.00423682 0.00159962 0.00519268 0.00671843 
0.0112117 0.00936702 0.00399213 0.00484925 0.00516173 0.00414319 0.0054841 0.0113246 0.00417857 
0.00886314 0.00468963 0.00397237 0.00747311 0.008061 0.00566763 0.0112416 0.00641669 0.00668144 
0.0143675 0.0121197 0.00470102 0.0152788 0.00805658 0.00464404 0.0170914 0.00487608 0.0063592 
0.0192474 0.011022 0.00621716 0.0212606 0.00828543 0.00399677 0.0239754 0.012674 0.00421389 
0.0246657 0.0058498 0.00406121 0.0224027 0.0073393 0.00773555 0.0264405 0.00974862 0.00540095 
0.0272198 0.00576687 0.0072995 0.0333814 0.00532172 0.00398826 0.0294756 0.00676767 0.00417603 
0.0344782 0.00901416 0.00511595 0.0305355 0.010478 0.00550484 0.0358624 0.0057424 0.00822175 
0.0339589 0.0131188 0.00801758 0.0425217 0.00592288 0.003996 0.0375211 0.00553214 0.00429066 
0.043878 0.0096528 0.00448344 0.0374289 0.0116042 0.00402463 0.0447482 0.00453185 0.0070408 
[...]
POINT_DATA 6000
FIELD FieldData 7
id 1 6000 int
3747 546 3313 1333 3387 4682 3984 4456 1891 
2261 1659 34 2536 302 1650 5740 1154 3479 
3954 1874 1397 5730 3709 4412 6059 5529 4570 
1837 2020 350 1013 2148 4405 1539 2612 426 
1767 2222 1347 403 3753 3040 2251 2905 3260 
2136 4610 2666 3359 2922 1098 3022 473 1152 
679 5052 3933 6053 774 178 2626 5304 257 
5586 654 664 209 1607 1228 2114 576 1236 
1698 2768 78 4867 2331 2650 1563 2227 1687 
5040 44 1901 2505 2968 2013 1612 5420 4249 
4388 5402 5929 4088 3558 5097 6043 5500 5181 
4284 5451 2329 1630 3913 432 1584 1600 408 
341 582 1576 575 208 2704 459 3045 639 
2857 496 4139 997 2961 4032 4810 4883 1305 
2392 4837 3900 181 3010 5524 4616 2290 4159 
2560 3585 4789 4450 2579 4026 3 4371 3416 
5298 3961 4649 988 5224 4080 5846 364 2810 
247 858 1440 616 440 214 91 383 1637 
1046 2555 797 2659 245 2844 3245 4452 3793 
2709 5495 2629 4592 5583 5090 4678 3432 1907 
175 5560 4909 3988 3101 4188 2731 3530 4948 
3017 4630 4600 4060 1546 3938 3534 4362 720 
5265 402 660 935 165 640 377 118 758 
368 659 164 217 275 864 390 1272 1362 
211 1182 551 3595 2911 1195 2915 1526 1855 
399 3408 2523 160 4035 2633 5084 2393 3166 
5815 1961 3368 3466 3552 60 6006 4258 2950 
636 4714 4138 5781 5200 117 537 4777 502 
1741 1371 870 3453 1011 1307 2867 468 2109 
1171 1108 171 444 508 306 513 153 266 
560 983 1471 1749 381 2879 61 1010 530 
572 1168 2182 620 1325 3028 3409 2543 4391 
446 2940 4392 4591 15 3364 3226 2111 1306 
3369 3082 4667 2737 3545 611 638 1376 292 
2863 48 421 3098 2327 529 88 30 441 
517 1628 906 857 1534 840 590 1070 1304 
1246 1180 1645 851 420 795 1913 129 853 
200 456 194 1490 1005 298 1514 1069 2403 
127 40 3396 258 4307 2151 4513 2077 1807 
1627 2289 3316 2515 2514 5982 1308 1017 3908 
2699 2510 2113 2094 1060 427 762 2452 647 
1570 1424 2366 1770 330 236 2778 3068 45 
1421 1300 900 1267 1798 100 1215 418 1034 
1378 2400 1320 133 927 2519 1679 31 2283 
4690 1146 1520 1535 2884 2589 5742 3963 4381 
5367 3566 2869 417 229 1757 1311 2326 1944 
1269 549 1713 887 2385 2071 680 2900 3600 
2383 3189 3005 1528 92 1673 3662 1805 2583 
1816 993 2341 687 2501 2852 1689 3463 299 
3038 1164 819 1211 387 2116 86 601 910 
4360 1906 3889 5184 1047 3998 5896 3087 1648 
1225 412 1614 2655 1024 2593 2895 2258 2249 
2462 5819 4965 3023 2454 2352 540 903 367 
13 3762 2064 2799 637 313 3421 5932 3032 
3039 5759 4744 5639 2569 4737 4439 5093 5014 
4465 1128 2066 4000 4206 361 3324 5322 3120 
3335 5325 5962 3714 5672 4359 4123 5949 5423 
2609 2037 4782 1558 2453 3069 6010 3948 4357 
5166 3873 2732 4240 5373 5573 5229 5318 5739 
3212 3586 1123 3006 3216 5852 3702 4209 4106 
5059 2623 5856 5255 5701 4689 4703 3075 5189 
4954 374 18 1088 5303 5348 5915 5281 1939 
3692 2310 628 3375 3373 3102 2843 4935 5864 
470 5478 3957 2998 3013 2603 5680 1721 3478 
3081 2337 4013 2129 5890 2822 3362 2860 2257 
3185 3388 4924 6037 5297 3825 2427 143 4719 
5794 5663 4321 4761 4304 2339 126 3923 4353 
3576 2008 985 396 1354 5936 216 81 3549 
747 5238 2542 5716 2358 938 1129 3311 2746 
1184 3443 241 4910 3932 2550 1631 1730 1015 
1955 1331 1352 1707 4376 5700 3872 2754 1885 
881 609 1063 1905 4478 2982 3682 2517 3459 
3220 2420 2130 4382 3777 986 3136 3323 3161 
3726 3071 2739 2229 1636 2379 485 4893 4722 
5393 5147 4276 3494 994 4628 3481 2875 3626 
4006 5346 4365 4853 4484 3521 1962 3892 3710 
4128 5557 5695 4174 4982 5372 606 4553 1065 
738 4267 1145 2135 4892 3059 274 694 4741 
1914 248 917 371 73 515 1732 1372 477 
629 1930 876 520 1853 1472 2585 1802 1632 
1045 401 886 682 1828 726 1221 737 400 
1886 1568 1466 904 2236 1670 3057 1056 26 
2897 1374 3758 2861 4205 2842 2156 3103 2202 
3681 1949 3798 4668 3238 4685 4448 72 4114 
3855 4745 3469 3391 4298 4597 4078 3677 2780 
4436 4512 5182 2719 4780 5363 5684 2122 525 
3455 4124 5217 20 4590 471 528 710 531 
5106 3008 5194 281 1668 5645 435 3791 706 
2775 4602 4605 2460 235 3492 522 3298 614 
843 1189 1861 223 987 35 411 1512 565 
392 781 558 282 455 338 964 238 1027 
1259 173 1829 1446 308 210 734 1284 4191 
2654 2600 1711 1043 2793 4280 1910 569 2436 
19 267 5135 2217 2999 658 3321 4872 3413 
5991 1799 4857 5050 3570 3317 3518 5110 5006 
2753 5007 4517 4403 4614 5641 4931 4306 4004 
4807 3328 4170 4375 5315 4692 4851 4087 2418 
4074 268 3208 2206 2586 3471 1846 1715 1903 
2513 850 49 1619 38 4202 2920 3269 71 
2537 842 2677 2850 1883 251 789 123 810 
1652 98 329 1542 507 1684 221 365 410 
2 352 942 301 1232 673 188 725 354 
548 76 951 1257 641 47 545 1214 1438 
198 598 1738 3851 2960 149 1693 580 666 
4459 124 1511 1487 2635 1958 742 5664 4227 
3859 2705 4711 2081 3993 2955 4842 5566 3822 
4901 3243 343 5541 5577 5487 4370 5678 4269 
5422 4876 4680 4599 4632 4679 5300 5162 4885 
5251 4569 1449 252 1691 452 574 1277 1093 
278 358 1115 62 316 3968 552 1074 63 
499 1706 1456 622 822 1 550 1141 1044 
297 773 1071 812 170 136 145 748 1139 
1436 1491 1562 635 890 538 380 1066 667 
1560 177 532 1369 1287 867 2631 1339 1103 
619 1747 490 1271 142 634 286 323 1969 
1792 1118 1192 524 2574 2776 1536 688 23 
362 2325 874 674 3126 373 433 2511 2530 
3436 1077 2665 2324 1750 1317 1564 1621 3058 
1970 970 1762 828 4881 5726 4482 4197 5465 
4781 4791 5863 2618 4815 5503 5074 5652 1078 
1445 1240 500 976 2338 1261 3588 234 107 
1523 1790 2990 2292 1401 2363 397 678 466 
75 740 353 984 1072 434 474 1218 1850 
1458 1095 1223 1462 1243 166 865 1709 1177 
311 348 366 1016 2167 388 896 1527 328 
43 1000 122 1817 385 937 1398 1186 431 
603 279 766 4606 1864 3356 809 729 940 
862 4100 3780 2475 5454 3625 3491 5752 5103 
189 3665 4176 4926 4348 1136 3052 5512 2588 
3590 3186 4470 4573 3615 5463 5150 5787 1390 
3980 5285 5542 2549 3967 413 5989 3536 5934 
4699 1934 2059 1419 1606 2423 1859 2636 2478 
2263 2883 484 3353 1768 2104 2022 1426 1525 
2663 1052 3201 2015 952 1642 162 2328 1420 
1667 2781 2591 1126 1887 656 1923 859 849 
1831 67 3581 1556 518 2262 1724 559 2398 
4135 27 121 319 305 676 924 3779 1991 
132 663 2299 2622 2972 4268 826 1538 4394 
2161 4245 2825 4057 4115 2463 2499 5231 2820 
3647 2788 961 3551 3848 4345 5042 6025 4335 
1818 4480 5404 5272 5430 4865 5009 3950 3327 
4671 2097 3110 1611 2264 2974 3399 1039 483 
893 1959 3093 3162 2944 2691 916 2687 4352 
242 1037 2302 55 3444 5185 2311 2987 2686 
4293 950 2642 5575 2120 4184 3868 4453 4701 
3304 1932 2345 1188 2117 2197 4098 4190 4583 
3843 863 5758 1791 811 254 4264 3036 4198 
5916 3405 2256 4664 5621 5296 3810 1028 4651 
4983 4199 5419 288 4019 4256 5417 4705 4487 
5158 5931 4850 1121 5460 5312 3888 5821 146 
2266 3427 3089 2676 3322 2797 4933 4635 4334 
2103 2789 3431 4748 3809 2729 3512 3898 2814 
6063 2708 2751 895 3805 3514 4158 2235 478 
3719 4164 2794 4474 5615 1399 3107 1851 4995 
4082 3919 5743 4108 5032 4629 4899 5987 3288 
6021 5180 4034 2962 357 3367 3517 4617 2726 
1662 5773 5260 5943 3616 5081 2984 4896 5904 
2878 5545 5227 3326 5827 5156 4446 2014 5481 
4534 1540 4042 5592 4312 3737 2638 4586 1439 
5085 4322 5514 4136 2886 4422 2864 4743 5605 
5364 3706 5526 3350 4399 4567 4347 2159 5951 
3507 5634 5486 1690 5294 4309 3435 3285 4752 
4373 5732 4501 3922 5728 4939 6027 4775 5302 
5768 5977 3833 3731 5724 4308 4509 4928 5584 
5055 5167 3587 4821 5848 2422 5241 5696 5956 
4151 2434 5665 3414 3781 5278 5499 1982 5563 
5024 4461 5489 4147 4674 1737 5588 2840 113 
2284 1087 2688 4363 4212 3776 855 1242 4021 
3632 2496 5061 1293 2553 3548 1820 5886 2613 
4759 796 4849 2362 1736 3882 4086 3223 5706 
5358 3725 3531 5875 5804 3347 5483 4153 5718 
4762 6029 5424 6032 5105 3021 3690 3230 4888 
5261 5711 5299 3030 5134 5426 3447 5127 4220 
5266 2524 4095 5935 3172 5188 3454 5948 3807 
5531 3295 4389 4339 2245 3381 3019 1437 3826 
2912 2711 4320 2896 1871 4828 2355 1686 3342 
2107 1655 3084 4165 1503 4350 2431 1751 2480 
5995 3035 4879 1697 321 2958 3712 3297 718 
4486 1845 2231 272 3026 2934 2758 4784 2369 
579 1760 108 1084 4259 5445 5918 4305 3668 
4447 4272 3949 4942 4466 5124 4427 4970 6045 
5536 4709 5808 4122 3723 4746 5282 5043 5290 
3738 2001 5521 5913 1318 1765 4712 2740 512 
4638 708 303 4511 437 2147 2930 3160 3688 
5412 4257 3732 5220 2602 1633 2800 1550 324 
2108 2785 2438 2703 2959 612 1867 3192 3529 
1909 1585 3012 2531 2488 1249 2503 1315 2051 
1708 3296 2365 5968 2640 4055 4081 2910 4727 
5070 4049 1312 2150 1830 3235 4330 3857 5769 
2005 3377 5691 3382 4073 4718 4768 3839 270 
3827 2479 1890 4434 139 1787 3418 969 2809 
918 3834 2992 2698 5504 339 2916 4556 204 
2303 652 5049 835 2856 732 314 852 6012 
215 2232 848 4598 662 291 1148 2580 801 
909 29 85 3379 156 581 284 4263 921 
1766 1092 645 1403 1194 630 698 1651 296 
1200 1832 981 309 2334 2280 463 395 1322 
1114 4932 3649 2406 2568 2656 4094 2805 4913 
4920 1754 4239 3064 4398 5802 5121 5753 4458 
2615 4342 5965 3824 1275 6024 3541 3962 6050 
4289 5788 4244 4338 794 5756 5630 3477 1031 
1053 902 2101 135 429 767 2000 1922 294 
2444 244 2036 2346 1197 2894 632 1947 1181 
69 626 265 979 1055 791 3137 7 2213 
1191 825 337 307 1406 1135 568 333 28 
152 727 1097 1219 1038 818 1138 104 841 
1203 602 64 256 445 379 677 1516 384 
1075 785 83 480 2274 492 1671 1819 50 
4252 207 453 3106 438 672 2534 2646 4377 
2220 4020 2888 5600 2692 3389 3488 4346 5537 
4072 2975 5633 4816 4314 4204 4824 4923 3503 
4622 5027 5952 4944 2722 4329 5242 5362 5729 
5380 5488 4536 4702 4725 5022 4497 5806 5551 
3870 5722 32 1294 1588 2477 1776 336 1345 
2149 649 657 608 948 684 1336 66 3066 
2491 1163 519 646 957 1022 498 1172 56 
128 713 479 184 393 1561 2439 96 926 
1157 1358 671 1626 130 196 1216 105 605 
591 555 451 1206 1465 523 798 3597 57 
280 227 1888 3099 325 4571 3218 592 9 
2100 3909 2315 1957 2067 2132 476 4105 2996 
4438 4390 5270 5218 5259 5572 5155 5226 3420 
5658 5764 4993 5518 5582 5176 5878 5083 4068 
4843 4675 5850 5011 4531 5075 5649 5143 2938 
4557 2432 869 2490 4002 2387 2410 3128 4046 
1505 1722 1021 691 2512 1710 3641 1694 1945 
2428 17 885 1872 2459 2062 1334 2389 1953 
1450 1641 701 1288 963 721 1340 1605 3094 
1727 2265 2273 1002 1400 1654 250 310 514 
1480 1099 1385 231 715 1843 472 1388 681 
2241 1916 370 2142 3904 1481 1226 2497 1510 
461 756 1162 806 4119 3929 3457 1579 2764 
3310 3480 1429 536 5981 4620 4543 4045 4653 
3275 4445 4990 3996 4141 5108 4763 3985 5174 
5023 4234 5616 5267 5284 5381 3015 4845 4431 
4868 5831 5749 4730 4870 4694 5544 2118 3544 
3446 3305 3210 3184 2748 2356 3366 3153 2744 
3837 1782 2105 3915 3020 2099 3177 2807 3246 
1803 2577 3501 2924 2095 2821 3209 1531 2545 
3398 1167 3675 2190 4126 4584 2073 3442 1653 
516 2527 2404 2535 4738 1941 3584 4693 1299 
3614 521 3749 2720 5785 3505 4652 4069 5674 
5033 4173 4300 5884 4887 4460 3740 5698 5631 
5133 4180 4012 2367 5834 4442 4163 5922 4615 
5892 3623 5140 3291 5161 5125 3990 5100 5604 
4224 4477 5574 4619 5183 583 3579 3434 2447 
2965 3340 3393 3546 2242 4152 2835 3406 3262 
3815 3540 5496 3041 5780 5549 4351 3357 5973 
5066 4798 2727 4169 2995 3334 4118 5173 2868 
4915 5082 2889 5969 4485 5538 4056 5321 2777 
5911 5558 2723 5094 1763 4503 5485 4349 4861 
4953 5126 5919 5287 4641 4978 2907 3266 4203 
2402 5491 5731 5095 5640 5999 4579 4221 3133 
5625 5832 6030 5464 6036 5860 4402 3661 3775 
4270 4277 2902 6046 3594 2760 5984 4526 5881 
4317 4077 5855 5119 5550 3850 5139 3249 4432 
5104 2683 3290 3411 3460 5986 6000 3333 5234 
5193 3383 2979 5248 2880 5392 5342 4489 5897 
5868 4596 4813 5757 5473 5079 5921 4639 5835 
3656 5374 3651 4806 5331 4908 2193 3759 5225 
4011 4315 5416 5662 3325 3986 6014 4297 3974 
932 2386 4986 5005 2939 5944 2508 1771 5385 
2522 3152 5610 4127 5710 2268 4326 5203 3994 
1777 6016 1601 3553 2416 2226 4561 6064 3795 
2300 5391 4502 4581 5813 4238 5891 2430 1937 
4424 3881 504 4010 4988 2649 2943 2042 4695 
5327 5770 1764 1825 4411 6040 5073 5828 6017 
2645 5822 5186 4969 5213 3847 1396 3568 1020 
5685 4361 4984 5957 745 5328 2784 4809 1417 
5841 3785 3801 3991 4195 4565 1323 5448 4805 
4880 1774 3997 6065 5192 2316 5908 131 5222 
2043 2024 1646 2728 4380 4627 5650 4302 3425 
5686 3771 5555 4904 2767 2184 4636 4546 3942 
571 159 2466 3543 4228 1493 4226 2026 1755 
5398 5250 5080 2954 1361 5332 5990 5077 4683 
4017 5314 5368 5202 6007 5515 3699 4464 5026 
4103 4919 5539 2625 4140 5811 6047 6001 3539 
3180 2853 3281 4697 2301 4433 3378 5719 2078 
4462 6008 2433 5910 5223 3846 4358 5659 5440 
5390 3456 5782 1965 3672 1847 3611 4818 5979 
1992 2770 39 3219 58 2587 5707 2747 2506 
3270 2054 1935 723 6060 4917 5068 2450 1035 
4014 317 77 2376 4819 3610 1900 4023 3111 
6066 3445 1610 594 2621 1938 4208 5838 5088 
1784 3720 1377 158 1702 3565 3730 4303 5760 
3449 2216 3329 3869 4740 3129 3653 5406 4544 
2787 3935 3883 5048 4131 3804 3315 3741 3397 
4700 4229 4469 3227 5833 5243 5775 4747 5705 
3841 3403 4956 5163 4290 5909 5498 4457 4496 
3982 4800 5513 4430 4604 4646 4493 3666 4101 
4355 3828 4211 4518 3580 3591 5128 3147 4292 
4367 3729 190 102 1838 2080 1100 2322 1224 
4243 2953 3852 2063 4792 24 820 777 2219 
703 2343 1983 4274 93 2163 2817 884 5008 
1153 1415 941 1176 1461 4841 4767 5309 4538 
4472 3247 407 3972 3931 3890 5262 3143 1132 
5236 2019 542 3363 3458 1625 3856 2353 3902 
3724 3769 3132 1479 2811 4232 2049 2378 2394 
685 3655 2347 3767 735 5384 3639 46 51 
111 2547 4985 1091 894 94 3964 3914 2487 
1061 945 669 1968 1915 261 3618 1032 827 
577 3027 1548 8 1434 618 1592 1404 627 
2532 2518 2653 980 2304 3452 3476 3263 1289 
1985 1669 3171 4343 3467 2964 4144 334 2440 
604 1943 2935 1079 3282 5651 2926 6049 4515 
4751 3921 2563 2829 3448 4589 1794 4428 5002 
4523 2675 3953 1990 1733 2237 960 2192 315 
1926 2277 101 2684 1204 1647 2538 2457 543 
1393 172 1383 1245 1193 493 711 2038 589 
755 2681 804 1735 670 3011 14 179 415 
1452 588 989 561 600 2074 784 839 1280 
761 161 201 185 109 219 382 154 780 
805 675 97 405 613 59 936 962 1205 
2521 4154 1821 1797 557 1638 2426 1029 4650 
1464 3757 596 1499 3755 3215 3232 6062 2923 
4065 2908 3440 3903 220 5587 140 1987 2045 
5866 5830 2333 5612 4413 4356 1753 2133 3956 
2165 6018 2007 4225 4974 5467 4856 4588 1492 
1827 1574 2173 2877 930 3229 1160 971 1482 
3607 42 3085 570 1810 1254 2233 2340 1366 
1746 3231 2127 752 883 1090 2050 1235 103 
897 2248 1616 263 1085 2060 404 829 808 
168 1067 262 112 359 724 564 1156 578 
764 879 1266 253 1101 3206 344 553 134 
2551 959 665 1094 1117 2396 2210 1896 2528 
1862 3510 2364 3689 2411 1414 2893 4715 3704 
5810 4964 4783 4916 3535 4194 2978 3046 5330 
4934 5323 2180 2841 3700 5807 5703 3906 5933 
5439 4193 6038 3429 3871 5457 5403 5004 5112 
5836 2405 3289 4833 3638 4542 4254 2738 2881 
2297 2469 4005 3048 1716 3939 2606 2018 3251 
3065 707 2620 3473 4125 3838 1598 2023 2391 
2977 567 1551 1258 2696 2928 442 206 1590 
651 2296 1234 430 731 1048 587 347 1643 
1329 2941 539 21 907 439 892 2294 1718 
1497 2395 933 3002 2690 2826 1173 3430 2695 
2830 3816 2980 4001 5954 4911 1964 4181 5172 
3640 5431 5925 5519 4506 5047 3946 4772 6056 
6061 5974 5092 4972 2029 3044 3205 1918 3940 
3589 5257 5214 3664 5958 5301 5466 4786 5642 
5683 5501 4324 5089 5353 5704 3542 2870 3617 
4940 4155 3685 3745 3659 4608 4528 3410 4559 
3806 1723 800 2052 4613 3652 5386 3173 482 
4549 2032 2983 1012 3895 3885 1395 2610 273 
2993 2766 2144 3400 3502 3489 4698 2798 4200 
2306 2373 3619 4793 3646 5099 5721 2467 2828 
5195 4520 5576 4724 5096 3076 5644 4852 2634 
3705 4673 2947 599 4230 3876 4661 4157 5479 
6055 5585 4552 4275 4757 264 1956 5254 5438 
5275 2507 4247 5337 3711 2804 4601 4479 5817 
4075 4522 3096 4654 4112 5622 1717 1920 5405 
2288 4997 4710 5547 3583 4341 3511 3599 4507 
4946 4999 3165 6002 3433 3910 3292 3279 4655 
2076 4492 4755 5637 1018 3678 4261 3037 5091 
3934 3721 2057 2608 2110 4891 1049 4508 1856 
5937 5569 5930 5130 4529 3164 5745 5253 4676 
5812 2976 3979 1473 6052 2047 3918 5877 3582 
5771 2092 4959 3925 5123 3063 4175 5942 3352 
5590 5661 1504 5239 2942 4736 3952 4266 5334 
5627 6051 2223 4207 5997 4941 5825 5054 4564 
2041 4603 5786 5847 3897 3450 4555 4670 1569 
5264 5543 5447 1877 5351 3679 1545 5725 3234 
5357 4213 6044 386 4273 4354 5249 1857 2276 
5428 4677 4160 3788 5394 5657 1609 5276 4839 
5113 5252 3612 3562 5843 5148 4414 4937 5879 
2084 5444 5694 3865 5994 3643 4423 5747 3474 
5247 4332 5407 5556 4578 5063 3306 5565 4134 
3338 3820 5350 709 5528 4829 4031 5668 1030 
1363 5452 1999 2413 3515 2533 5561 3703 3799 
5365 4454 1656 1940 4624 2763 4177 5530 2199 
3255 4877 5870 5293 1296 3786 4299 4729 2813 
1946 1740 4372 3485 4929 5845 5912 3550 4582 
3849 5359 5458 3713 4471 3840 4687 2344 1680 
2714 5347 4749 3736 2702 6023 3054 2195 3390 
5013 5607 3112 1977 1062 3345 5244 5442 2874 
4451 1199 4183 4790 4296 1256 6048 3874 5138 
3461 2408 2285 3717 1411 1566 813 5702 1506 
3867 5762 5 2278 5713 4260 878 6003 4733 
5336 4189 1950 3784 2498 3203 1217 2632 4609 
3774 3658 3360 2342 5015 2855 5191 4684 3464 
3773 5178 4022 4562 5823 4295 5421 2520 3947 
5409 5552 3415 2595 4875 5366 4943 4723 5382 
5377 5045 6020 4340 1565 4721 6004 4156 4803 
5564 1392 2988 5461 5903 4858 3426 788 4726 
5205 5873 5395 4585 5708 4563 3385 2443 5209 
4499 3417 3606 1431 2872 3284 4378 2079 3217 
5378 3596 1346 5295 1813 1474 5494 5675 1688 
2921 3832 5814 2743 3188 5976 1250 1513 3676 
2056 3482 1278 736 3821 3567 776 4626 5829 
3650 5355 4145 3504 3124 4400 4554 3374 3981 
3475 5859 3308 5316 4541 2749 4033 6058 4973 
3134 4500 2639 4111 4179 5736 3412 3361 5959 
2827 2208 5712 4271 5849 4187 2969 3578 4831 
5170 3955 3920 4099 3009 3555 4874 5673 5858 
5199 3770 5206 416 4659 2694 5682 3213 4527 
5840 1928 4003 3772 3033 2449 1298 4540 4219 
939 787 4253 2678 3392 3716 3105 1170 68 
4426 5871 2384 2230 1443 5647 1220 1248 3663 
2196 222 5190 4196 5434 4545 2088 2139 846 
1350 5031 2442 2240 2876 2252 3941 2451 2846 
978 3733 3283 2380 3509 114 2187 2919 4133 
1998 1705 2617 2485 3975 3670 3451 3861 2772 
3122 3141 2112 2495 1748 2882 176 1379 973 
2627 230 4846 1775 2848 5235 2752 80 3077 
4930 992 4530 1841 2055 277 4083 1804 1555 
1198 1292 1213 4285 821 2997 169 70 447 
125 1629 775 187 1050 1854 875 33 733 
180 1789 1567 2679 3696 1033 1314 115 3746 
4404 5101 2582 1758 5020 2209 5280 5411 4089 
3742 5277 1644 4771 1618 1019 3631 1384 239 
1663 3174 1360 2134 998 2644 2336 1801 2069 
2891 700 965 2721 2435 1869 1695 2093 584 
1971 1004 2070 1342 1899 320 2003 1238 1676 
716 991 2502 1231 363 351 1134 1301 1290 
1583 547 276 974 911 460 4 1036 968 
1270 782 633 423 1253 1321 653 213 398 
541 1532 1332 814 1107 1500 271 847 3686 
3163 4895 2374 2849 1502 2370 1752 1442 5955 
4922 790 4681 4235 954 5940 1475 5593 6031 
5263 1572 4898 3718 5435 1529 5617 4393 1582 
5733 1924 2700 1739 1809 4374 2658 2556 2971 
2200 2175 2680 3520 481 3100 2228 3119 2716 
1786 2578 3272 1559 5876 1911 1348 1161 1734 
2028 1409 1876 369 1276 349 759 1444 1634 
1252 779 793 1244 975 836 1169 689 714 
340 915 419 914 873 1581 82 53 2619 
2048 295 2526 2455 2592 391 4070 2544 2946 
3563 2354 2140 4387 3951 4162 3644 5476 4117 
232 1026 3817 2957 458 1993 2279 4797 3593 
4494 5344 1264 2637 5067 4040 285 5774 1602 
1008 5114 3314 289 3330 5396 4787 5418 5387 
1209 2735 4975 1233 4902 5809 2836 2611 4053 
2493 3893 2145 3462 2761 3309 1448 3635 2335 
2561 2906 1239 5603 84 1273 3257 833 769 
1620 3999 2181 1703 771 450 1175 1158 1412 
1432 1427 110 815 535 697 534 1185 1260 
655 501 144 1719 3095 4043 1904 2441 3256 
3070 1868 3117 1933 3307 2424 2713 4301 4435 
4008 3537 5339 5779 2854 4637 2845 5520 5887 
5164 5427 4550 4594 4142 2201 5613 4912 1309 
2885 4623 2525 5906 5996 1207 4505 4168 2806 
1423 4971 1150 4488 2559 4416 2061 2819 5510 
5862 3254 3959 2558 3750 3636 4691 4091 3470 
2724 3157 2790 4178 5102 3193 3240 1124 87 
2446 2865 2006 763 3707 4233 1524 1422 1603 
1858 2218 2756 3811 4316 1973 246 318 1127 
4396 2985 3168 1106 5901 1783 4113 3190 2986 
2660 4504 3339 816 3004 5697 5818 5720 2305 
2275 5798 1682 1608 5210 5443 3928 4987 3657 
4735 4947 751 3624 4287 3701 4950 2949 3294 
2348 1780 2734 5595 5594 5888 1190 5472 2269 