# vtk DataFile Version 4.2
Generated by LIGGGHTS
ASCII
DATASET POLYDATA
POINTS 6000 float
-0.024528 -0.0374371 0.0172978 -0.019351 -0.040606 0.0176801 -0.0162264 -0.0381128 0.0179393 
-0.015464 -0.0421362 0.0184288 -0.0115424 -0.0430889 0.0181889 -0.0079797 -0.0411989 0.0179828 
-0.00470272 -0.0388339 0.0183767 -0.00981577 -0.0376804 0.0187246 -0.00361687 -0.0437398 0.0178902 
0.000369922 -0.0443509 0.0184521 0.00280434 -0.0414378 0.0169751 -0.00107376 -0.0405669 0.0182177 
0.00818362 -0.044038 0.0177292 0.00583396 -0.0388126 0.0170208 0.012208 -0.0432433 0.0184182 
0.0167146 -0.0417557 0.0166044 0.0133068 -0.0395885 0.0169527 0.0168207 -0.0381972 0.0184743 
0.0204742 -0.0399694 0.0178606 -0.0307347 -0.0327961 0.0175156 -0.0334523 -0.0295489 0.0181275 
-0.028436 -0.0291876 0.0171683 -0.0205077 -0.0367043 0.0178889 -0.0253096 -0.0323735 0.0168928 
-0.0210864 -0.0326831 0.0173827 -0.0277783 -0.0353573 0.0183853 -0.013512 -0.0314528 0.0183719 
-0.0173164 -0.0342446 0.0173917 -0.00636337 -0.0352584 0.0176516 -0.00990748 -0.0332944 0.0179037 
-0.00655808 -0.0312054 0.0171779 -0.00996953 -0.0291596 0.0166968 -0.00303342 -0.0329345 0.0179711 
0.0013866 -0.0338816 0.0166304 -0.00137082 -0.0365777 0.0178412 8.33518e-05 -0.0298767 0.0170918 
0.0040789 -0.0295118 0.0166271 0.00894568 -0.0363583 0.0182548 0.00800612 -0.0300312 0.0180194 
0.0053386 -0.0335411 0.0175003 0.0110139 -0.0328804 0.0179071 0.0164913 -0.0339813 0.0182281 
0.0199143 -0.0294448 0.0175665 0.015022 -0.030186 0.0183161 0.0206243 -0.0359436 0.0178801 
0.0246886 -0.0357305 0.0167917 0.0233475 -0.0317866 0.0173496 0.0280413 -0.0299674 0.0176113 
0.0293466 -0.034038 0.0178286 0.0329051 -0.0306114 0.017478 -0.0344712 -0.0230649 0.0181093 
-0.0309722 -0.0258493 0.0177855 -0.0241329 -0.0281993 0.0179496 -0.0244732 -0.023084 0.0179106 
-0.0201809 -0.0287533 0.0174512 -0.0191574 -0.0247788 0.017058 -0.0158202 -0.0282529 0.0174408 
-0.0141573 -0.0244587 0.0175473 -0.00632309 -0.0257416 0.018344 -0.00726268 -0.0216541 0.0175315 
-0.00332707 -0.0224556 0.0177011 -0.00345799 -0.0285408 0.0184198 0.00385192 -0.0241033 0.0180031 
8.99201e-05 -0.0259365 0.0179573 0.0118359 -0.026063 0.0181944 0.00734046 -0.0221573 0.0187724 
0.0143977 -0.0229949 0.0177955 0.020589 -0.0253243 0.0166574 0.0182597 -0.0229191 0.0188667 
0.0239028 -0.0274778 0.0176565 0.024927 -0.02128 0.0175229 0.0269865 -0.0248703 0.0177448 
0.033078 -0.0240424 0.0175013 0.0369825 -0.0252259 0.0178246 0.0306415 -0.027098 0.0186452 
0.0391907 -0.0219065 0.0172844 -0.0422865 -0.0150787 0.0172454 -0.0344383 -0.0162209 0.018047 
-0.0287658 -0.0162793 0.0176094 -0.0367022 -0.0125918 0.0181612 -0.0319425 -0.0128005 0.0179402 
-0.0367782 -0.0196525 0.0188556 -0.0320289 -0.0196636 0.0184965 -0.0264322 -0.0196069 0.0183987 
-0.0212989 -0.0178327 0.0177867 -0.0198345 -0.0140631 0.0180091 -0.015168 -0.0203618 0.0166772 
-0.01585 -0.0139085 0.0174705 -0.0130578 -0.0167976 0.0177235 -0.0173231 -0.0177319 0.0188567 
-0.01124 -0.0204274 0.0176493 -0.010506 -0.0136981 0.0174889 -0.00800567 -0.0176975 0.0169436 
-0.00342969 -0.0151292 0.0182442 -0.00139141 -0.018882 0.0180374 0.00256728 -0.0197128 0.0182746 
0.00124132 -0.0158259 0.0182392 0.00415607 -0.0128049 0.0184478 0.00674906 -0.0182759 0.0173794 
0.0103793 -0.0195766 0.0184555 0.00834083 -0.0144041 0.0185836 0.0143023 -0.0189613 0.0178144 
0.0187627 -0.0190488 0.0179538 0.0203967 -0.014664 0.0184835 0.016566 -0.0157906 0.018747 
0.0284826 -0.0192757 0.0181301 0.0239086 -0.0127536 0.0183691 0.023404 -0.0175493 0.0188365 
0.0268943 -0.015374 0.0188624 0.030574 -0.0159109 0.0173055 0.0325202 -0.0193354 0.0184948 
0.0347811 -0.0153349 0.0173497 0.0364349 -0.0190087 0.0174159 0.0410528 -0.0182961 0.0178844 
0.0388239 -0.014937 0.0179722 -0.0434293 -0.0112313 0.0180628 -0.0395641 -0.00946149 0.0188242 
-0.0405107 -0.00456093 0.0189058 -0.034272 -0.00908368 0.0182932 -0.0327394 -0.00494282 0.0174044 
-0.0301695 -0.00896155 0.0183156 -0.0246674 -0.011095 0.0169953 -0.022433 -0.00693743 0.0183103 
-0.0262096 -0.00504529 0.0179053 -0.019974 -0.0100558 0.0175496 -0.0133731 -0.0107496 0.0175132 
-0.0164913 -0.00551919 0.0179261 -0.0120556 -0.00698087 0.0178821 -0.00875813 -0.009946 0.017965 
-0.00470768 -0.0095474 0.0185207 -0.00810111 -0.00598072 0.0177817 -0.00428935 -0.00509781 0.0186614 
-0.00129321 -0.0115856 0.0176121 -0.0012653 -0.00756528 0.0176537 0.00299679 -0.00897615 0.018633 
0.00515094 -0.00524077 0.0179049 0.0068585 -0.00964596 0.0178069 0.00928274 -0.00636275 0.0179698 
0.0127742 -0.00936459 0.0183809 0.0133066 -0.00536403 0.0184722 0.01667 -0.00773559 0.0185138 
0.0203926 -0.0060545 0.0181442 0.0159387 -0.0118333 0.0186739 0.0197026 -0.0103238 0.0188412 
0.0233627 -0.00870478 0.018606 0.0299814 -0.0114467 0.0167953 0.0328971 -0.00811158 0.0179137 
0.0370438 -0.00776364 0.0184548 0.0356199 -0.0113683 0.0173559 0.0396068 -0.0108387 0.0176112 
0.044267 -0.00694338 0.0173319 0.0435928 -0.0110521 0.0172989 -0.0448284 -0.00274507 0.0181976 
-0.0448742 0.00167646 0.0179453 -0.0392582 0.00264541 0.0181717 -0.0371714 -0.0015606 0.0184604 
-0.0348446 0.00196065 0.0182894 -0.0254368 -0.000286524 0.017615 -0.0169108 -0.00138741 0.017582 
-0.0132609 -0.00316846 0.017655 -0.0122629 0.00154686 0.0180929 -0.0169373 0.00264556 0.0179403 
-0.0200515 -0.00369648 0.0185695 -0.00807523 0.00183466 0.0179452 -0.00705632 -0.00209841 0.0179309 
-0.00317678 -0.00111082 0.017969 -0.00170771 0.00260526 0.0177503 0.00131944 0.000134967 0.0187297 
0.0099477 -0.0020718 0.017908 0.0104059 0.00192174 0.0179866 0.0138964 -0.00137798 0.0181332 
0.0143804 0.00260512 0.0181613 0.0174392 -0.00330975 0.0180631 0.0182746 0.00170649 0.0185716 
0.0209104 -0.00130118 0.0181971 0.0272929 0.000373764 0.0187059 0.034073 0.00102421 0.0177697 
0.0369959 -0.00356146 0.0179878 0.0380583 0.000709884 0.0181292 0.041102 -0.00375559 0.0185355 
0.0450005 -0.000247536 0.0183782 0.0417752 0.0020744 0.0188336 -0.04095 0.00630147 0.0184114 
-0.0377778 0.00869618 0.0177487 -0.0311366 0.00893467 0.0180219 -0.0247027 0.00983145 0.0179053 
-0.0245274 0.00497689 0.0173818 -0.0205742 0.00448326 0.0187666 -0.0127641 0.00638773 0.0171598 
-0.0170911 0.00722506 0.0186759 -0.00578142 0.0106512 0.0178043 -0.01022 0.0113618 0.0179813 
-0.00584698 0.00510199 0.0185695 -0.00275005 0.00765107 0.018249 0.00129997 0.0096288 0.0182732 
-0.00199986 0.0119182 0.0181431 0.000750779 0.00567116 0.0185642 0.00749165 0.00458921 0.0186411 
0.0113442 0.00589254 0.018294 0.0044589 0.00719983 0.0187168 0.015982 0.00939098 0.0181534 
0.0170774 0.00554461 0.0177598 0.0198793 0.00848451 0.0175768 0.0209301 0.00472096 0.0185264 
0.0226785 0.0114373 0.0177998 0.0262249 0.00937199 0.0187071 0.0298719 0.0111235 0.0187698 
0.0368589 0.00496285 0.0188346 0.0447136 0.00477519 0.0184357 -0.0424461 0.013075 0.017842 
-0.0379202 0.0128288 0.0185218 -0.0413346 0.0171483 0.0178912 -0.0363048 0.0188592 0.017721 
-0.0295986 0.0130524 0.0177097 -0.0342047 0.0142111 0.0177698 -0.0322828 0.0193825 0.0178675 
-0.0281532 0.0166312 0.0165792 -0.0245325 0.014063 0.0172776 -0.0200722 0.0173235 0.0178067 
-0.015986 0.0169308 0.0184409 -0.0163116 0.0124234 0.0172275 -0.0124988 0.0187101 0.016861 
-0.00975077 0.0155787 0.0177239 -0.00578543 0.0146637 0.0177988 -0.00478456 0.0186078 0.018346 
-0.00888414 0.0194347 0.0188403 -0.00157677 0.015917 0.0181443 0.00170551 0.0136571 0.0185536 
-0.000707527 0.0198656 0.0182405 0.0103001 0.0173896 0.0184784 0.00648342 0.0187867 0.0186877 
0.0190319 0.0147115 0.0183614 0.0208179 0.0199543 0.0184235 0.0229774 0.0153763 0.0184305 
0.0266645 0.0136089 0.0182936 0.0281922 0.0179556 0.0183631 0.0310954 0.0151692 0.0187109 
0.0318314 0.0196537 0.0189088 0.037383 0.0169255 0.0188644 -0.0304956 0.0272646 0.0175507 
-0.0334854 0.0243476 0.0168364 -0.0344433 0.0284622 0.0177674 -0.036968 0.0250794 0.0186612 
-0.0283976 0.0212415 0.0172123 -0.0251295 0.0267248 0.0171094 -0.0209283 0.0247158 0.0173642 
-0.0225495 0.0209824 0.0175611 -0.0172043 0.0267255 0.018304 -0.0158799 0.022734 0.0182209 
-0.0109109 0.0224189 0.0164664 -0.0108209 0.0279076 0.0169646 -0.00493201 0.0275503 0.0183823 
-0.00280333 0.0238805 0.0178956 0.00138153 0.0238703 0.0180811 0.00488297 0.0265514 0.0183138 
0.0107438 0.0212534 0.0174916 0.0117486 0.0258586 0.0178775 0.00720647 0.0227839 0.018668 
0.0174891 0.0238444 0.0183132 0.0179424 0.0281828 0.0184738 0.0210554 0.0256599 0.0182069 
0.0247287 0.0207709 0.0180907 0.0241974 0.0280586 0.0188248 0.0292613 0.0229347 0.0185595 
0.0367071 0.0259312 0.0183596 0.0346692 0.0225053 0.0186892 0.0388967 0.0218988 0.0183368 
-0.0286309 0.0310214 0.0171599 -0.0245446 0.0307143 0.0175397 -0.0269367 0.0351274 0.0172698 
-0.0220516 0.0351243 0.0166595 -0.0201012 0.0310692 0.0172339 -0.0145492 0.0300888 0.0181891 
-0.00818554 0.0309344 0.0173909 -0.00855684 0.0351559 0.0175958 -0.00470892 0.0331591 0.0189272 
0.00255441 0.0299715 0.0185384 0.00908433 0.0299745 0.0185574 0.0164476 0.0321511 0.0182644 
0.0295134 0.0339319 0.0186586 0.0305302 0.0300099 0.0188624 -0.0180265 0.038399 0.0177188 
-0.0155574 0.0414227 0.0163369 -0.0110228 0.0405377 0.0168831 -0.00353915 0.044773 0.017214 
-0.00176695 0.0409606 0.0184612 0.00263346 0.0404682 0.0181922 -0.0217791 -0.0393062 0.0209643 
-0.0239589 -0.038059 0.0244232 -0.0205144 -0.0399899 0.0250651 -0.0137739 -0.0392114 0.0210619 
-0.0139361 -0.042579 0.0233197 -0.0176419 -0.0413174 0.0216924 -0.0129885 -0.0392491 0.0258297 
-0.0169144 -0.0416563 0.0258298 -0.0183714 -0.0372561 0.0222676 -0.0165609 -0.0374311 0.0258797 
-0.00677059 -0.0444804 0.0202621 -0.0103395 -0.0438032 0.0219577 -0.00653455 -0.0385199 0.0219916 
-0.0102665 -0.0398347 0.0229136 -0.00946544 -0.0439908 0.0259098 -0.00545005 -0.0444506 0.0240435 
-0.00706444 -0.0408169 0.0254522 -0.00899605 -0.0374139 0.0262853 -0.003458 -0.0410939 0.0222868 
0.00297982 -0.0372598 0.0197983 -0.00323801 -0.0417342 0.0262458 -0.00233472 -0.0449121 0.0215777 
[...]
POINT_DATA 6000
FIELD FieldData 7
id 1 6000 int
1074 842 810 552 452 63 1 2537 574 
62 123 71 270 139 1903 281 1883 502 
3382 638 529 822 48 762 7 170 755 
1044 825 561 626 145 519 791 244 365 
727 1619 600 51 204 3639 3298 843 652 
49 471 2810 20 531 75 1072 221 479 
2109 1452 441 812 1011 507 789 415 329 
1301 230 46 852 522 251 3008 165 402 
314 935 268 528 107 678 171 136 1491 
957 1022 128 404 1131 1157 1156 1436 380 
444 184 333 377 1542 28 337 235 1091 
109 1440 223 214 392 515 988 909 111 
1189 437 274 350 364 606 396 484 1243 
740 1016 1304 840 1108 1216 366 1369 673 
564 803 1171 185 1684 469 1861 410 161 
725 1138 2 455 841 1038 858 156 282 
614 440 781 178 257 654 512 1765 857 
849 2778 1426 1709 153 105 1101 368 1066 
1560 98 1206 633 942 758 987 217 1232 
301 616 1257 558 864 401 432 1930 1732 
34 609 1177 1534 1095 306 538 1287 578 
667 532 879 508 286 1094 253 104 1205 
565 354 805 405 76 379 545 384 682 
582 886 656 1642 146 129 2167 100 420 
795 1180 266 937 122 619 513 130 890 
1465 352 659 134 390 665 47 1471 598 
1766 19 400 208 997 132 299 13 811 
385 40 603 1864 370 348 490 1000 57 
142 275 50 164 1792 2132 438 207 149 
1910 2704 1576 1687 44 2136 927 86 1164 
637 1211 288 200 127 227 2528 666 618 
1901 2659 819 572 373 160 970 1621 466 
1060 1053 684 1706 1376 493 30 66 172 
252 316 1715 2444 902 2101 1625 2677 3471 
69 1846 537 1307 1546 589 468 117 1890 
2809 1741 38 1031 1691 292 2867 918 542 
2019 2347 2479 720 3269 1668 3418 2122 2920 
4124 3098 4590 421 1449 869 1311 1078 88 
550 517 1093 1197 1776 773 1922 1456 1139 
179 265 14 979 1735 1238 425 297 1055 
320 498 152 804 2894 1899 2502 632 670 
568 1280 1379 2378 382 802 339 1652 622 
735 2394 835 662 2460 660 870 973 2775 
2001 4746 3938 4074 4362 215 3416 710 5217 
5181 4087 525 126 3923 1628 647 1115 1401 
330 713 1269 278 1071 32 976 1419 474 
1039 427 646 349 991 499 1090 752 1336 
926 1342 1523 649 1135 547 1097 393 778 
716 648 761 749 307 276 1191 1231 1290 
351 786 448 1283 2213 304 1141 1203 588 
784 955 2074 449 1166 2648 685 848 176 
772 411 363 2547 1841 992 1406 64 248 
2487 80 2752 284 3964 708 85 291 118 
35 706 694 2740 303 3534 1148 732 4088 
247 1318 3 2418 435 143 1145 774 679 
1333 2326 1713 2636 397 984 2292 2663 1421 
707 1172 434 1562 56 1358 883 1561 829 
1258 759 1085 808 263 1134 635 1276 112 
1626 1252 793 25 1244 167 193 1219 1368 
148 2439 839 989 1381 1001 1761 1435 526 
464 911 1583 460 1151 1270 780 1338 398 
219 640 201 1781 1897 2055 860 1061 968 
3077 801 94 945 1555 492 3914 894 296 
2232 2785 2930 1194 2322 371 73 917 985 
1123 1853 2542 2626 1472 2585 1630 1354 1962 
747 2339 1088 2329 1152 3006 1914 3549 748 
2366 1458 1570 916 2452 2863 17 3110 1606 
1611 45 96 906 1727 671 2883 2060 1444 
206 1334 1348 168 262 103 1412 769 1023 
1234 450 1430 623 1266 327 982 535 919 
944 1058 1357 1665 650 2056 1067 1380 555 
182 607 1824 974 1549 782 818 949 1057 
1274 116 1714 1155 2102 138 962 1281 921 
445 11 1253 458 821 677 548 669 2580 
827 861 416 1198 1292 1213 1092 3027 630 
29 581 577 1867 1968 91 1802 1512 629 
216 2550 2438 1184 520 477 18 81 313 
1539 2261 2020 1939 2148 1525 483 353 2022 
1944 893 1462 1424 2071 1300 2328 1667 590 
236 162 952 1340 1598 1223 1288 1052 865 
1590 1002 196 721 731 1175 310 388 1494 
591 764 815 1634 1337 836 163 610 779 
724 376 269 830 975 65 831 465 436 
1143 1036 345 995 1208 1453 285 1683 188 
141 925 951 222 256 602 97 847 346 
125 1321 290 744 83 675 277 8 169 
999 187 238 645 1548 324 261 1403 734 
1585 1362 1032 308 210 1891 964 1600 1550 
737 309 1828 1200 1466 576 1065 302 1129 
1955 628 1013 1584 374 1607 887 1648 1215 
680 92 583 1528 1614 1037 1887 166 1246 
1218 1645 1400 1385 1605 900 1798 250 851 
472 43 1480 715 283 311 442 1158 430 
892 451 280 705 1427 326 697 487 1573 
714 605 177 695 37 419 873 1054 689 
1165 359 4 488 1169 202 882 1459 1286 
41 585 391 613 785 523 908 653 213 
617 699 271 783 1214 1804 70 447 33 
775 1404 580 211 480 1284 981 627 1651 
395 1322 1056 383 209 1027 1730 726 612 
2236 1045 1886 1372 1015 1221 1397 1874 1698 
403 1305 459 896 687 2383 2398 2249 3068 
242 2341 1267 1831 2095 1527 2591 1923 1913 
950 2262 1070 27 701 514 1643 559 1398 
516 67 1654 328 859 1185 634 587 915 
360 907 347 798 534 1271 1359 106 845 
1048 1888 553 501 53 340 1159 372 1149 
489 82 344 541 381 1438 332 1073 1532 
1332 1050 99 59 1272 124 423 814 596 
1671 936 1499 980 463 198 245 1046 2274 
173 641 1511 2654 408 1259 1832 1236 881 
1568 2905 1637 938 1228 664 78 241 26 
1612 305 2266 418 1724 540 993 676 1689 
1034 1805 2400 2197 1320 663 133 456 1378 
121 1188 2345 2235 1817 560 231 461 1510 
1099 319 1490 1186 21 867 439 1103 681 
933 539 1747 1388 1581 914 1117 1339 1316 
959 2551 1516 1075 191 2631 557 154 1192 
323 1862 1107 1029 1738 1819 2793 1797 1638 
2534 2521 2426 1182 2911 338 551 1632 2555 
2217 1446 3243 2961 4191 2897 341 2857 3753 
181 2768 4810 267 2517 3045 2875 367 2454 
863 2116 1024 357 258 31 809 1679 194 
254 478 895 4264 601 756 940 729 2161 
1538 766 983 826 1969 279 3396 1010 1226 
1749 298 1429 592 1536 325 23 2830 295 
2411 688 3099 2574 2475 1693 362 2705 2879 
1414 2776 9 476 1168 3689 453 1526 672 
3595 2629 2915 2100 343 742 2324 4154 575 
1829 496 2999 1855 2709 2290 1958 4035 2331 
1711 2579 4032 910 1906 1146 2764 417 1520 
2256 1136 828 524 853 862 229 1069 1162 
620 60 1077 1195 1118 175 1390 1017 2515 
806 530 399 1564 1762 61 446 874 2996 
636 433 2182 2111 2940 1907 658 1043 797 
2511 2635 2633 2955 1961 2393 2523 3101 3466 
1733 998 315 2206 429 767 978 101 2353 
1990 114 2605 1371 234 1393 2684 1277 2451 
3475 3856 2192 3363 2513 2856 969 2380 2457 
3953 2216 3941 3902 3458 3129 3827 2586 135 
3968 3208 4073 3730 4569 5236 3839 3124 3453 
4232 4942 5760 4768 4718 4447 3668 4740 5124 
4365 1294 1261 500 358 2327 1827 1947 1492 
960 1181 1245 948 1926 1204 543 700 294 
570 1193 1971 584 2617 2346 2435 1748 2772 
3137 2614 2049 2848 3011 2495 3132 3122 2791 
2681 3861 2627 3227 3724 2065 2992 2303 2085 
3439 1775 3492 2850 3397 1787 3315 3741 4831 
3834 3655 4700 4229 3935 4122 4777 5194 4605 
4202 4556 4985 5846 4080 4649 5363 4602 4284 
5049 5691 4434 3933 4026 738 3455 3216 4982 
3387 1588 930 549 1790 2173 1345 1445 2094 
1810 850 336 2491 2477 2478 2000 1163 1235 
1366 1383 711 965 1004 1911 1409 2038 897 
2003 1387 2070 1086 300 929 1994 1929 1963 
6 1839 753 1699 1483 2214 1594 625 1811 
3105 1678 3073 3079 2123 2323 1788 3663 2892 
3555 3508 5345 3770 3465 3372 5858 3493 2773 
3841 2997 4930 3982 2969 4598 4430 4530 4263 
4518 3059 5384 3710 3688 4638 5043 4496 2008 
473 3313 3702 3576 4353 5663 3039 3913 3075 
3212 3421 2263 2097 1757 1934 1240 2432 3353 
2387 2338 2490 1021 608 691 885 1641 2423 
1694 1770 2428 1945 1254 2340 369 1068 2028 
1616 1927 1161 1953 1476 898 891 2272 1375 
1133 1696 1489 2259 1537 1981 2086 2291 2298 
1635 1936 2407 2504 566 2247 1894 1003 1842 
2540 1408 1580 696 2125 2783 2194 1979 2682 
1517 2741 2449 2494 3577 3003 3727 3965 3564 
3591 3379 3213 4285 3147 4083 2694 3729 3611 
1995 3618 3732 190 3230 3666 4355 2711 4405 
2135 3032 3311 3443 2602 3414 1837 2746 3984 
2569 4000 3324 1659 2222 2113 2104 1859 2059 
1505 1768 1959 2687 2389 2118 2990 1722 2512 
2023 1450 2459 1551 2606 2099 1872 1448 2015 
2050 1734 1051 505 1273 972 503 1147 486 
84 95 2083 1335 1822 624 595 693 192 
1125 495 1116 533 1974 378 750 1319 1080 
1355 1823 2082 1485 1575 454 977 2058 212 
240 1543 1153 1940 406 931 218 2948 712 
509 2010 884 1720 1895 2230 1692 1137 1035 
150 2198 1639 1928 1298 3033 2640 604 2747 
2506 1685 1170 1915 2703 2953 2147 3580 3295 
2080 3219 3035 2912 2108 876 3381 3373 3807 
4478 2612 2623 2358 3102 1707 3013 3335 2310 
2453 2264 3600 3201 2105 2900 2385 2974 2691 
3305 3393 3246 963 1703 3005 833 2265 1578 
2696 1202 87 1124 1620 1795 1496 1122 567 
1422 800 1391 1942 1524 1250 225 722 556 
1728 877 322 90 807 237 1264 355 1278 
475 197 1248 760 686 260 317 119 1084 
1233 777 1997 1425 224 642 1242 272 293 
1312 1405 733 820 723 58 428 1935 1697 
1506 1688 2025 2376 1353 2355 1633 698 2587 
2767 2174 1838 2531 1655 2770 2480 1629 1909 
2245 1871 1686 3192 1670 1434 1767 1347 426 
1751 1331 2114 1154 2603 1437 2843 3459 2998 
639 1098 3662 1816 55 3093 3189 2577 2748 
3210 2987 1420 1850 2807 3177 2391 1603 2928 
2273 1898 2296 651 273 318 1723 1577 1395 
1541 246 137 832 462 1150 1040 1310 199 
457 424 1796 1229 668 1812 422 115 856 
16 544 409 205 5 880 120 846 180 
407 1217 186 289 389 1059 255 510 334 
703 787 875 1443 939 1230 2051 2219 2643 
1813 1081 1224 947 2532 1503 1592 39 102 
1596 1289 3012 1352 904 1315 2503 2156 3297 
1799 2666 1885 2959 1905 2227 3103 1063 1474 
1721 2750 986 1225 2258 1531 2302 2642 2447 
2655 3089 2190 3023 2924 2583 2781 3209 3262 
1803 3540 2983 1126 1556 1432 3094 2032 1843 
482 2821 1329 2373 506 144 763 1389 1653 
817 1835 110 159 1554 655 386 1700 1952 
342 1014 1478 923 2484 1530 1328 147 799 
946 615 414 834 259 1567 1106 1868 776 
443 928 1187 1033 1314 1455 1119 1854 24 
1500 1100 2384 3215 1464 2304 2280 569 2343 
1114 2653 3413 2488 1374 4837 1949 3758 2754 
2392 2739 2861 3136 3529 4139 3681 1631 3022 
2560 1563 2420 2129 3185 2501 3087 3427 2852 
2462 2789 3399 2895 3815 3514 2944 1167 2404 
3431 4184 2545 1991 2311 1932 3868 431 2814 
3398 924 2073 518 2120 3095 1941 1916 4135 
2535 1719 2241 1481 1260 2294 1783 1904 2941 
2826 1957 1237 1173 823 2862 2048 2177 2441 
2455 3117 2619 2497 1933 889 2153 233 2354 
2544 1327 3163 2238 4070 1821 3755 2518 3106 
2436 2656 4065 2440 2849 4346 4280 2334 4205 
4377 4909 4452 2960 4403 5110 4883 4872 2600 
3900 3793 3726 4159 3855 4668 3010 4592 5040 
3857 2013 2257 2751 2352 412 2593 2676 387 
903 1851 3107 1673 2708 3809 2962 2519 2117 
1514 2972 4268 2799 2622 521 1005 2151 2527 
1497 2395 2142 1299 2283 1718 2315 2210 3929 
3206 2424 3256 2526 1896 3218 2364 3909 2588 
3859 2396 3757 2530 3058 2067 2081 3436 4227 
1487 2220 3822 3389 4252 2975 4020 4482 3851 
3993 4711 3432 4867 3988 5135 4459 3321 3245 
4188 3040 5495 3585 4678 4616 1791 2794 2103 
3463 1662 546 3762 2064 1399 1047 3367 1121 
1535 15 961 1028 1818 1807 2289 3405 2589 
1627 2825 2499 2077 1325 189 2403 3028 674 
3052 1579 3409 2325 3615 3747 2514 2695 1306 
611 413 1970 536 2737 1317 3082 3226 4105 
3420 2844 2731 1750 3408 3530 3126 3166 4138 
1360 2458 1801 1451 2891 2096 871 1998 3509 
497 3794 3451 2134 2698 3374 2846 3773 3975 
4133 4400 4033 6058 5178 3308 4111 2639 2749 
4303 3449 3464 3883 3223 5804 4017 5515 5539 
4272 4466 3949 4544 4006 5406 3347 4060 3882 
4484 5282 3869 5808 4853 5504 4128 5645 4388 
4600 4371 4174 4249 2149 971 2175 1739 2237 
1624 2412 42 2971 1647 2277 1840 1869 1924 
2336 2538 2069 1705 1695 1479 1498 2112 3733 
1367 4237 2485 2811 3424 2882 2596 3767 4063 
3141 4663 3708 2823 4890 3009 3361 4187 3769 
2787 4179 1664 4167 5048 5219 3653 4846 5163 
3699 5833 4469 5421 3804 4956 6045 5106 4892 
3961 3723 5557 6007 4304 5536 5500 5521 5265 
5684 3791 5224 5297 6037 5346 4267 5097 5420 
6012 6059 5229 3586 5943 1716 2481 2212 657 
1482 1809 2877 3520 481 1574 2658 3607 2297 
3085 1160 2248 2036 1873 1447 2093 2716 2847 
1996 2127 2578 1931 1676 2309 2039 2119 2652 
2320 1772 2604 2332 1870 3684 3016 1111 2859 
3116 4918 3634 2254 1889 3351 3349 3337 3920 
4029 3748 5446 4527 3516 4540 5723 4131 3867 
3772 5128 5840 3738 5206 5235 4874 4800 4747 
4646 5205 5483 5775 3403 5290 5935 4290 5498 
5451 5913 4888 5705 4689 4712 4682 4703 5105 
4741 5134 5304 3714 5936 5238 4737 4719 4308 
5348 5962 1650 5514 2510 2410 2611 3254 2469 
4046 3251 3229 2363 2062 3231 3066 2233 2228 
3473 1710 1658 1356 1586 586 1559 1786 2106 
3100 2417 2171 1984 1876 1746 2745 838 2004 
1486 1604 2321 2196 1384 2482 1880 2743 757 
2072 2207 2061 1834 2382 2176 1657 2414 3280 
1808 2651 2409 1660 741 2496 3506 2260 3225 
2489 765 2362 1701 2188 4384 1113 4260 3270 
3392 3217 3346 3994 3781 3435 3538 4219 4003 
4292 4367 4243 3672 5317 3620 4211 4257 5412 
3828 5513 4461 4457 5223 4101 3826 5281 4511 
3160 5915 5716 4095 5586 4935 5188 5423 3479 
5014 5680 4782 3069 3954 4610 5665 4357 4567 
3939 2738 4254 3048 3128 2870 4002 3588 3446 
4005 3065 2181 771 2620 1239 2881 2561 1878 
2446 3257 4498 692 36 491 1104 1364 2226 
644 1892 2616 1468 511 1815 966 151 10 
905 1326 1900 1190 1836 1470 1780 228 1992 
1875 943 2087 249 1674 287 361 3026 1826 
1663 1547 1977 2115 1062 1256 1656 1128 2128 
2672 3860 1251 1313 4021 2461 2609 1967 4350 
2189 1382 3550 2927 3486 3084 2800 3872 3019 
3375 4212 5478 3454 5131 3057 3957 2536 3709 
4013 4376 4389 4828 4309 5700 4412 4454 1782 
3544 3184 3542 2356 3641 4608 3583 3915 3153 
3366 4940 3020 2744 3083 3157 2932 2442 3613 
2945 3062 1082 2317 1908 739 2002 1179 2139 
1769 2141 2215 108 736 356 1529 571 1690 
1064 1569 996 1227 813 1582 1295 1087 1330 
745 1533 790 1006 1920 872 1617 1760 1467 
794 1207 1597 2034 239 1431 1591 866 131 
1771 1386 702 485 1241 1363 1212 72 2089 
1773 2054 113 2431 2250 2166 1972 2284 3472 
1845 3478 2982 3342 3784 1041 2107 2419 2688 
2337 2943 3359 3777 3682 2732 4784 4382 3260 
4240 3362 2933 2686 3546 2965 3511 3599 3837 
3579 3652 3707 4473 2977 3169 3240 3410 3895 
2076 3248 2993 3501 4418 2006 1729 2057 2164 
1018 1460 1413 2756 1877 1484 2035 1595 643 
335 1130 68 1545 967 1007 1291 140 1752 
621 1220 243 562 901 157 1344 1112 494 
321 527 79 913 2016 89 1613 1469 573 
1089 1275 554 1943 746 1297 158 878 1753 
1755 22 1096 1794 1418 1825 1442 1377 1983 
2755 1708 1296 2369 2312 2162 2813 1978 1566 
2202 2910 3494 1249 2958 4055 2379 3220 3296 
4448 563 1461 2896 2130 2613 3388 3829 2251 
1571 1587 2796 2860 3444 3162 3406 4341 4999 
3910 4603 4555 2052 3165 3806 3434 3934 3450 
3279 2760 3037 1012 3334 1858 3400 3173 2465 
4613 2766 4351 3041 2833 2516 593 631 792 
1599 1814 1618 1973 2090 2641 2795 922 1519 
888 2126 854 2053 2991 1127 770 2657 52 
1265 1852 1951 1407 816 264 2152 1303 2509 
954 77 941 1602 2903 1083 1475 2725 1351 
2063 1669 2817 743 1985 226 2163 1754 3649 
2406 2753 3570 3452 2842 3323 2229 3238 4298 
3798 4745 4114 5050 2780 2184 4707 1394 3481 
4276 2242 2835 3661 3340 4933 3775 3433 2729 
4526 4293 4270 4334 3304 5185 4549 4453 4698 
5575 2727 4701 3489 2144 3581 2306 2798 3442 
4126 3678 2995 2868 3675 2218 4693 2467 2985 
2570 2828 3339 3168 3646 4520 3430 2221 3457 
3070 4395 3526 2854 2690 1844 2572 1615 3031 
2027 2707 2500 2140 2952 2923 3239 3232 3476 
4314 4964 4882 4650 2805 2692 4094 2568 4932 
3317 5991 5566 5090 5577 4857 4789 2650 4685 
5007 5524 5487 4901 4692 5560 4948 3071 4004 
3719 3322 2797 4352 4317 6063 3843 4190 4635 
4158 4098 4748 4164 3290 5758 4965 4995 3038 
3779 4082 4738 4115 4583 4664 4108 3036 2980 
3904 2299 4043 3614 2720 3810 5231 3505 3597 
3625 4001 3816 4348 3002 3780 4100 1964 2546 
3590 3563 2618 3510 4390 4045 2978 2592 2646 
4543 3488 5226 5259 4438 5537 4197 5218 4791 
5726 5155 2888 5664 5815 5583 4815 2950 5200 
5541 5422 4258 4885 3512 3805 3411 2788 3517 
3551 1308 3288 5180 5982 4019 3491 4360 2665 
2869 3356 4381 2884 4690 3963 2699 4865 3647 
3316 3967 4391 2549 4345 4176 3908 4057 2463 
3310 3186 3536 3364 4571 4671 3291 4012 3980 
3017 3368 3327 3369 3545 5150 5009 4699 5542 
2543 3552 1365 4440 3329 1743 2782 3671 3138 
4756 4500 5316 6017 3844 5202 5366 4582 5292 
5957 5350 5216 2520 5409 4153 4562 4683 4464 
3947 5849 5368 3415 6019 5377 3285 5706 6040 
5695 4086 3849 5314 3531 4427 3521 5929 5302 
5402 3892 5875 5739 3922 4761 5358 5318 2427 
1849 868 3893 3944 1917 2598 3195 2556 2567 
2967 4704 2721 2644 3154 3412 4025 4331 4143 
4271 5256 4052 3673 5712 2871 5039 5522 5736 
4847 5388 5359 5389 2131 2079 4156 5964 4103 
2443 5026 4989 5795 2874 6011 4943 4657 4099 
3578 6001 5673 3426 4604 4709 4140 3558 5794 
6027 5811 5424 6029 5372 2853 4553 6043 6053 
5052 5573 5260 2984 5529 5904 5299 6048 5227 
4456 4954 3336 1800 3025 2963 2200 2680 2700 
2558 2994 3407 2145 2493 2936 3265 2906 2647 
3358 3778 1881 4241 3401 2607 1675 2468 2667 
3119 2831 2925 2557 3524 2075 3983 3130 2818 
2763 2919 3029 3621 2668 3191 4036 3907 4437 
3931 2282 3927 4378 4383 5035 5805 3833 3277 
3717 2956 5341 4659 5909 5867 5199 4433 5682 
3114 3785 4984 2872 6032 5127 5390 4625 3587 
5170 3030 5997 4928 3731 5059 5266 5426 5220 
2916 5718 5728 5081 5948 4493 4465 4534 5303 
5759 4439 5255 5481 5672 5740 5701 4509 6010 
6016 2552 2762 4178 3905 3293 2335 4053 2836 
4374 3139 2018 3462 4125 2801 3272 3309 2757 
1222 2372 1866 2377 1863 2399 2576 1893 2473 
2421 2470 3224 1623 2779 2529 2091 2792 2466 
2168 3532 2594 3202 3987 3422 2873 2637 1209 
3196 2413 2017 2638 1042 2815 3286 2624 3461 
4595 3306 2939 4499 2014 3203 5767 2689 1966 
3553 4302 4903 5065 4189 5069 3268 5261 5531 
5826 2649 4220 4826 5278 2301 5340 5489 3692 
4910 3932 5848 4123 5322 5553 4196 3737 5526 
4821 6068 5484 5710 3745 3635 3617 3992 4559 
4246 3659 3838 3680 4618 3636 4089 2761 3151 
2769 3977 4804 4708 4062 2724 2966 899 990 
1513 2899 2554 2307 1902 1784 2851 1349 1110 
1346 2137 1789 2005 1282 2898 2209 1495 2564 
1144 2098 1950 2042 1636 2240 2351 1860 2205 
1601 719 1736 1247 1109 1477 2344 1557 1856 
1025 1622 2068 1589 1912 2033 1473 1439 1488 
1704 2170 2146 1982 1759 956 3846 4796 1183 
2429 2330 2949 1847 2951 3390 4102 2450 4358 
5085 3131 1285 1501 4107 4446 3948 4147 4359 
3236 3629 4347 4674 3081 3911 4166 4248 5730 
5864 4279 5080 4372 3873 5474 4130 3999 3685 
4507 5053 4155 4691 4658 4091 4946 4528 3698 
2865 3743 4064 4696 4558 3573 3292 4731 2143 
2314 1680 2669 1986 2040 2548 1268 2375 1921 
788 2571 1609 751 1142 796 1764 2110 1649 
1350 1672 183 1493 155 2246 2599 1210 1396 
1309 331 1020 2253 1544 2313 920 855 994 
1756 1540 579 1441 1030 1777 2157 1079 709 
768 1975 2276 2397 470 3693 3606 2664 1507 
2582 2786 3764 3330 3548 2437 3572 2822 3055 
3669 5681 2837 4192 4320 4924 4539 3874 3204 
3706 3127 3782 2486 3667 4854 3627 4519 5993 
3768 5725 5269 5637 4753 5559 4717 3276 2610 
3858 3193 4755 3495 5264 4566 5386 5060 5018 
3142 1361 2295 3622 4316 3357 1102 3318 3468 
2305 2701 1279 2204 1293 1370 1008 1504 2661 
1076 2133 3123 2160 824 1960 1201 1324 174 
1552 2084 2360 932 74 1463 599 1255 1105 
93 1410 232 2348 195 12 1993 718 1026 
1009 1263 2045 504 2525 594 2553 1980 4226 
3593 2030 1830 1411 3852 2866 2456 2964 3650 
3567 2365 4597 4078 2968 3161 4436 4727 1946 
1610 3394 4722 2954 3469 5370 4014 2719 5809 
4907 5310 5222 4145 5562 4152 5786 5777 4662 
6002 3146 5549 5207 3891 5973 3897 5066 4655 
3721 4379 4961 2973 4955 4844 2902 1518 3958 
2986 1454 3145 2124 2889 4327 1199 2021 2816 
3811 3197 1120 3190 3135 4490 2929 1343 690 
1402 1522 2359 1049 704 1176 2275 3537 1508 
1019 2374 1987 1415 2679 3700 2370 1702 2342 
4343 2031 3263 2279 2901 4385 4204 3817 4239 
2908 3282 4081 3644 4824 4913 2615 5802 3503 
3677 4842 4515 3518 4517 4306 3064 5968 3328 
4370 5251 3765 2505 2758 4450 1884 4807 4512 
3289 4251 3594 5343 3679 4277 3898 5766 5780 
4432 5984 5543 4533 5602 4798 4354 5881 5986 
3696 5890 4200 4077 5082 5119 5855 4584 3885 
4169 4508 4724 4915 5721 5525 3156 3619 4793 
2765 3705 5099 4118 4852 4673 4429 2634 2660 
1682 4113 2947 3480 4230 3865 3916 2904 3376 
2957 5172 3686 4661 4117 4387 2893 3946 5476 
5764 4895 4916 4715 5270 4783 5092 3903 4920 
4072 5006 5084 5658 4269 4816 5465 5678 5083 
5162 5380 4680 4714 4876 4599 4781 5781 5143 
4725 4630 4632 4634 5447 3383 5394 4474 5819 
5615 4765 5139 5234 5713 5471 5550 4504 5296 
4617 4651 5720 4629 5743 4971 5969 5032 5812 
3584 4953 5096 4198 4394 5916 4199 5919 3749 
4069 4119 2820 5454 4911 5785 3848 4181 5431 
4606 3704 5981 2946 3307 5925 3951 4653 5600 
3996 5176 4506 5572 4141 4990 5604 4536 4881 
6006 5633 5863 4667 4470 5174 5787 5574 5934 
5892 5503 5831 5074 4531 5649 3919 2880 4899 
5473 2193 2726 5868 5331 4034 3643 5621 5419 
3651 5126 3889 4983 4639 3998 5835 5184 4256 
4245 4926 4591 3566 5742 4705 5417 4850 5694 
5225 4054 4392 3665 4573 4335 3950 4224 6025 