# vtk DataFile Version 4.2
Generated by LIGGGHTS
ASCII
DATASET POLYDATA
POINTS 6000 float
-0.0339525 -0.0214802 0.00398175 -0.0408594 -0.0118435 0.00403252 -0.0447479 -0.0014932 0.00450987 
-0.0447865 0.00273741 0.0040825 -0.0335179 -0.00269089 0.00421624 -0.0406232 0.00326949 0.00411215 
-0.0242614 -0.0375454 0.00404965 -0.0214651 -0.0395108 0.00622931 -0.0147387 -0.0387586 0.00548697 
-0.0177565 -0.0412666 0.00637391 -0.0139217 -0.0424882 0.00691498 -0.0177681 -0.0375492 0.00786296 
-0.0103227 -0.0416125 0.00472062 -0.00491849 -0.041974 0.00578203 -0.00712617 -0.0386723 0.00506784 
-0.0109758 -0.037559 0.00489427 -0.00803017 -0.0442845 0.00692571 -0.00230634 -0.0389276 0.0053402 
0.00415526 -0.0447083 0.00486987 -0.0021102 -0.0448835 0.00499409 0.00102398 -0.042682 0.00632233 
0.00574363 -0.0410037 0.00472358 0.00852786 -0.0440539 0.0047561 0.00695238 -0.0372854 0.00645475 
0.00936011 -0.0404849 0.00658294 0.0116042 -0.0371855 0.00755891 0.0153223 -0.0387924 0.00729161 
0.0141214 -0.0426425 0.00804946 0.0207554 -0.0381532 0.00724194 -0.0300142 -0.030503 0.00404451 
-0.0281334 -0.0350538 0.00442985 -0.0308105 -0.0324591 0.00754174 -0.0258373 -0.0294457 0.00397787 
-0.023968 -0.0333498 0.00450693 -0.0215944 -0.0298177 0.00437795 -0.026905 -0.0316104 0.00719914 
-0.0248594 -0.0374807 0.00799474 -0.0211951 -0.0354815 0.0079719 -0.0228676 -0.0317593 0.00807153 
-0.0201531 -0.035646 0.00403705 -0.0181692 -0.0327936 0.00601811 -0.013702 -0.0304962 0.00534501 
-0.0146829 -0.0350265 0.00739373 -0.0111417 -0.0337279 0.00600422 -0.00613453 -0.0318006 0.00576222 
-0.00469975 -0.035628 0.0061076 -0.00967886 -0.0300088 0.00625391 -0.00235759 -0.0319812 0.00706935 
-0.000680851 -0.0356137 0.00707354 0.00331275 -0.0358511 0.00743534 0.0015085 -0.0322768 0.00810982 
0.0092151 -0.0339386 0.00774393 0.00556144 -0.0322122 0.00803199 0.0144985 -0.0331261 0.00616179 
0.0178059 -0.0354969 0.00640096 0.0128268 -0.0294663 0.00546259 0.018798 -0.0312013 0.00736711 
0.026627 -0.0330661 0.00597864 0.0232565 -0.0306007 0.00642997 0.0256572 -0.036955 0.00641463 
0.0215006 -0.0341485 0.00724668 0.0282795 -0.0299941 0.00818193 0.0340724 -0.0292459 0.007611 
-0.0366732 -0.0242827 0.00479631 -0.0319919 -0.0254952 0.00402268 -0.0285816 -0.0271238 0.00570593 
-0.0336233 -0.0296422 0.00581925 -0.0341764 -0.0212228 0.00794762 -0.0359576 -0.0270232 0.0082366 
-0.0310814 -0.0262292 0.00871865 -0.029688 -0.0215919 0.0074808 -0.0247032 -0.0246913 0.00432713 
-0.0208728 -0.0254463 0.00548723 -0.0264449 -0.0209786 0.00444554 -0.0241698 -0.0278536 0.00724419 
-0.0228077 -0.0221241 0.00687685 -0.0266346 -0.0244094 0.00787953 -0.0177378 -0.0288688 0.00476578 
-0.0154882 -0.0256028 0.0039975 -0.0151966 -0.021831 0.00524767 -0.0167493 -0.0262221 0.00793612 
-0.0118299 -0.0267807 0.00514316 -0.0112565 -0.0228939 0.00446413 -0.00753273 -0.026521 0.0060767 
-0.00740821 -0.0225174 0.00554032 -0.00415206 -0.024496 0.00712027 -0.00429214 -0.0284854 0.00737311 
-0.000389047 -0.0267176 0.0063792 0.002954 -0.0246876 0.00526552 0.00388769 -0.0286888 0.00714096 
-0.000555792 -0.0226719 0.00700804 0.0100461 -0.0246954 0.00562819 0.00651276 -0.0230273 0.00652343 
0.00764389 -0.0273784 0.00770324 0.013879 -0.0234334 0.00571368 0.0180157 -0.0235777 0.00601896 
0.0170029 -0.0278199 0.00606272 0.0278702 -0.026509 0.00604078 0.0226913 -0.0217955 0.00617908 
0.020927 -0.0268909 0.00652775 0.0267665 -0.0221634 0.00656416 0.0244418 -0.0251697 0.00793191 
0.030136 -0.0232412 0.00436573 0.0360348 -0.0248503 0.00617397 0.0336283 -0.0215693 0.00584583 
0.0317384 -0.0259371 0.00717839 -0.0404032 -0.0194976 0.00421199 -0.0419599 -0.0156828 0.00419004 
-0.0385116 -0.0217837 0.00735594 -0.0376693 -0.0140725 0.00567147 -0.0406845 -0.019043 0.00973163 
-0.0410506 -0.0142035 0.00786117 -0.0355923 -0.0173822 0.00438482 -0.0305179 -0.0194173 0.00426081 
-0.0303342 -0.0142243 0.00430276 -0.0366406 -0.018062 0.008308 -0.0323095 -0.0176279 0.00757018 
-0.0241532 -0.0142239 0.00457959 -0.0271853 -0.0167747 0.00532251 -0.0234205 -0.0183737 0.00479509 
-0.0261017 -0.0140116 0.00808185 -0.0222038 -0.015082 0.00805032 -0.0197377 -0.0150549 0.00437816 
-0.0194485 -0.0204637 0.00530706 -0.0120817 -0.0189734 0.00508662 -0.0155619 -0.0151807 0.00399047 
-0.0156531 -0.0181463 0.00677245 -0.0103179 -0.0154491 0.00579601 -0.00397283 -0.020577 0.00630688 
-0.0064006 -0.0142074 0.00530837 -0.0076949 -0.0184944 0.00610508 -0.00440886 -0.0168649 0.0077271 
-0.00253636 -0.0130775 0.00583039 0.00222979 -0.0159332 0.00667015 0.00505386 -0.0187274 0.0060063 
0.0119375 -0.0186214 0.00611267 0.0119448 -0.0142735 0.0045551 0.00822239 -0.0131588 0.00563227 
0.00830534 -0.0198199 0.00810613 0.0191139 -0.019654 0.00531133 0.0155458 -0.0200165 0.00722719 
0.0150727 -0.0159564 0.0069333 0.0246413 -0.0143952 0.00671278 0.0223372 -0.0177752 0.00707498 
0.0264052 -0.0182169 0.00747664 0.0300723 -0.0197813 0.00697992 0.036664 -0.0190148 0.00703229 
0.0319126 -0.0161986 0.0068009 0.0356439 -0.0150916 0.00779532 0.0405641 -0.0188705 0.00604523 
0.0392917 -0.0132151 0.00812489 -0.0438617 -0.00710369 0.00396927 -0.0376166 -0.00881517 0.00399316 
-0.0437174 -0.0107087 0.0065587 -0.0382519 -0.00637831 0.00735401 -0.0392228 -0.0102817 0.00738025 
-0.044283 -0.00714282 0.00832501 -0.0345385 -0.0119368 0.00422833 -0.0300118 -0.00517754 0.00408271 
-0.0307751 -0.00927783 0.00472989 -0.0266813 -0.00441778 0.00715294 -0.0340737 -0.0067217 0.00552091 
-0.0328224 -0.0109742 0.00777039 -0.0305105 -0.00718652 0.00812207 -0.0271119 -0.0110677 0.00419284 
-0.0245342 -0.00798147 0.00398196 -0.0206014 -0.00638172 0.00407785 -0.0207197 -0.0107322 0.00425156 
-0.0283028 -0.0106805 0.00841486 -0.0235185 -0.0107656 0.00735024 -0.0227672 -0.00682449 0.00751189 
-0.0166252 -0.00657416 0.00440013 -0.0128335 -0.0080045 0.00496785 -0.0124376 -0.0120706 0.00528072 
-0.0163517 -0.0109478 0.0052363 -0.00902414 -0.00971994 0.00468944 -0.00561257 -0.00674819 0.00520829 
-0.00959668 -0.00562021 0.00506607 -0.00560253 -0.010527 0.00668455 -0.00899122 -0.0121798 0.00802471 
0.00430646 -0.0125129 0.00630656 -0.00233101 -0.00821373 0.00730179 0.000706493 -0.0107712 0.00655675 
0.00394258 -0.00804906 0.00662053 0.00075169 -0.00566292 0.00714357 0.00712381 -0.00999232 0.00808585 
0.00784921 -0.00605442 0.00791759 0.0205244 -0.00816463 0.00678143 0.0165119 -0.0072038 0.00723995 
0.0148204 -0.0119091 0.00717866 0.0279746 -0.00599199 0.0062467 0.0258388 -0.0108174 0.00807735 
0.0295577 -0.00971632 0.00696449 0.0365678 -0.00680064 0.00676593 0.0325254 -0.0122903 0.0077738 
0.0332061 -0.00447992 0.0071099 0.0429464 -0.0123727 0.00637983 0.0398816 -0.00979235 0.00566819 
0.0437168 -0.0083705 0.006059 0.0444274 -0.00490205 0.00411523 -0.0413861 -0.00392271 0.00600983 
-0.0400132 -0.000737224 0.00403888 -0.0375447 -0.0041319 0.0039905 -0.0430061 0.00115798 0.0073153 
-0.0390464 0.00278543 0.00789968 -0.0447099 0.00473396 0.00811289 -0.0383574 -0.00140996 0.00815131 
-0.0444406 -0.00286393 0.0083616 -0.0320608 0.00191168 0.00407995 -0.036499 0.00326724 0.00464713 
-0.0302055 -0.00136668 0.00640361 -0.0340022 -0.000663273 0.00770684 -0.0292763 0.00441302 0.00662752 
-0.0335563 0.00333045 0.00758092 -0.0277622 0.00146918 0.00407415 -0.0242281 -0.00289867 0.0039755 
-0.0223141 0.00148953 0.00397145 -0.0195474 -0.00235274 0.00399837 -0.026258 -0.000411359 0.00727307 
-0.0225818 -0.00201579 0.00790773 -0.0235047 0.00269956 0.00806777 -0.0144236 -0.000162638 0.00545131 
-0.0133768 -0.00415604 0.00594839 -0.0196447 0.00101218 0.00712159 -0.017011 -0.0028981 0.00709238 
-0.0149595 0.00354676 0.0069689 -0.0114992 0.00271484 0.00477785 -0.0104352 -0.00130368 0.00564158 
-0.00674289 -0.00302758 0.00622298 -0.00601016 0.000986555 0.00621029 -0.0087239 0.00359455 0.00771471 
-0.00251673 -0.00354385 0.00608255 0.0012043 -0.00183773 0.00606235 0.00352763 0.0014483 0.0062807 
-0.00196424 0.000467892 0.00696304 0.0073816 0.000352823 0.00588029 0.00442793 -0.00404755 0.00712591 
0.0111226 -0.00355124 0.00782416 0.0148825 -0.00196219 0.00771561 0.018665 -0.00384007 0.00683333 
0.014826 0.0020444 0.00784374 0.0255458 0.000788953 0.00669096 0.0217769 -0.00119041 0.0075039 
0.0250871 -0.00345286 0.00747751 0.0293399 0.00163555 0.00765216 0.0369581 -0.00281273 0.00679892 
0.0297857 -0.00232524 0.00730557 0.033106 0.000204295 0.00783651 0.040603 -0.00426321 0.00597986 
0.0449787 -0.000951322 0.00443227 0.0408836 -3.38544e-05 0.0053141 -0.0401198 0.0111536 0.00399226 
-0.036618 0.00843291 0.00431905 -0.0434626 0.0106513 0.00614492 -0.0419049 0.00696499 0.00542977 
-0.0365365 0.00618574 0.00783135 -0.0389444 0.00995211 0.00759971 -0.0440342 0.00851922 0.0095881 
-0.0311006 0.00878552 0.00410447 -0.0342273 0.010757 0.00648934 -0.0304543 0.00934896 0.00804171 
-0.0248053 0.00508024 0.00419627 -0.0281922 0.011683 0.00405653 -0.0273086 0.00793461 0.00574946 
-0.0236517 0.00965027 0.00456752 -0.0208267 0.00551043 0.00620304 -0.0201267 0.0113981 0.00577581 
-0.0176446 0.00451854 0.0039954 -0.0148815 0.00755717 0.00496334 -0.0180178 0.00829683 0.00740709 
-0.0109685 0.00705155 0.00432849 -0.00702199 0.00692219 0.00583453 -0.00659187 0.0116308 0.00619708 
-0.00384066 0.00435237 0.00716829 -0.00993472 0.0100034 0.0077497 -0.00335585 0.00849615 0.00647958 
0.00188835 0.0118481 0.00651756 0.00389442 0.00542233 0.00673204 0.000145018 0.00396776 0.00695773 
0.000565207 0.00810173 0.00717151 0.0109198 0.0113567 0.00629516 0.011535 0.00399164 0.00666097 
0.00608158 0.00873081 0.00733952 0.00759824 0.00420234 0.00769982 0.00992723 0.00769154 0.00781622 
0.0149009 0.0118236 0.0063596 0.0162942 0.00576781 0.0070446 0.0183309 0.00924513 0.00676349 
0.0257921 0.00976124 0.00552693 0.021463 0.00395719 0.0072883 0.0252335 0.00544705 0.00716234 
0.0221912 0.00813739 0.00666983 0.0308213 0.0101883 0.00603092 0.0363858 0.00703734 0.00511272 
0.0290631 0.00670149 0.0074856 0.0345402 0.00416126 0.00722593 0.0354554 0.0118551 0.0072856 
[...]
POINT_DATA 6000
FIELD FieldData 7
id 1 6000 int
678 957 1243 484 590 1426 1074 1093 684 
48 552 466 1044 825 498 441 755 69 
452 574 62 139 791 51 600 727 230 
1619 251 638 421 869 1269 170 822 358 
1449 88 1078 550 7 547 265 561 415 
626 145 1011 632 365 588 176 1301 339 
248 411 291 118 215 49 870 3 364 
529 75 32 1311 691 1401 976 1562 278 
1072 1022 427 713 1071 221 991 1452 479 
1097 812 393 1157 444 307 989 28 789 
333 46 337 329 109 85 522 435 677 
402 111 247 274 917 350 1318 474 647 
330 397 2292 984 1039 707 434 1421 56 
1561 128 404 829 1085 349 1090 749 380 
1252 1156 1436 673 112 184 1171 185 949 
1061 725 410 780 515 214 445 548 455 
440 73 178 91 324 18 432 1628 2326 
1713 1458 2883 107 136 168 1491 1234 17 
883 906 171 262 1369 759 1108 808 1412 
1560 1266 327 1131 564 1101 764 803 982 
182 555 1684 469 830 995 758 1232 217 
256 8 858 558 383 614 379 34 401 
1732 886 1016 45 635 740 1462 1424 1570 
2366 1304 206 236 1052 1340 952 310 1216 
388 366 840 721 43 836 815 105 1002 
591 1066 451 779 122 465 1206 98 724 
368 942 633 188 908 1205 354 405 565 
301 76 211 1257 580 1372 1015 682 1525 
353 916 748 1667 900 2022 1709 483 162 
153 865 250 538 283 1480 196 1287 715 
667 578 177 605 280 532 253 4 508 
359 659 104 286 1169 1094 82 381 390 
423 785 805 523 47 480 1214 384 551 
400 209 545 341 338 44 887 1177 166 
680 849 2328 1095 2167 1218 851 896 306 
1180 1070 311 442 266 472 937 859 1427 
619 879 534 513 130 553 1271 689 391 
340 352 1117 53 665 154 2132 344 59 
1029 164 1797 1272 124 575 1471 2100 2523 
149 1901 207 92 656 795 993 420 1648 
811 687 129 100 1215 456 603 357 132 
1398 1864 27 348 370 490 560 1465 1048 
439 914 501 890 867 134 1075 275 1792 
557 1192 453 2776 433 618 362 658 1043 
343 672 438 797 1711 133 40 927 13 
258 637 863 121 299 1211 1164 601 461 
983 1000 288 127 200 57 142 592 1429 
688 325 295 50 1536 666 2475 2705 1168 
61 9 874 2182 86 809 910 31 828 
572 819 862 227 970 60 620 1621 160 
446 530 175 1017 1195 399 1762 636 1564 
23 2940 1922 315 1060 1053 773 1733 517 
842 316 14 63 1706 979 172 810 493 
902 66 2444 2537 123 1 252 1715 244 
589 71 2101 1625 1031 270 537 38 1903 
622 1546 135 1741 918 468 502 204 843 
1883 652 835 2479 1668 1691 720 3298 500 
1419 1445 850 2327 1294 960 1492 1456 1336 
1261 1926 543 1827 1947 499 2109 1135 1197 
762 646 948 1776 570 752 1181 897 179 
1139 425 1191 1055 297 1193 2070 320 519 
804 351 2213 1141 507 670 80 568 1652 
685 784 735 2394 660 64 2460 708 2547 
973 284 3382 471 281 662 35 710 525 
1148 303 2810 1145 935 126 20 531 549 
1588 1115 1345 336 1790 2094 2173 657 2478 
930 926 711 649 1523 1810 1366 1235 1254 
1383 716 1342 1163 1387 2272 6 2003 1409 
1133 761 648 1244 1290 148 448 300 1086 
778 167 1231 1283 753 377 839 1001 1381 
276 304 1583 786 1761 1542 363 235 911 
1203 848 1091 1151 460 1138 382 1406 219 
640 732 398 852 156 223 492 827 165 
909 988 801 706 1802 371 894 1189 1123 
296 314 257 985 747 1354 143 606 528 
1765 1539 1358 2097 1240 1021 1934 2432 103 
608 263 885 1258 1641 1694 1770 1172 369 
1134 1616 1023 1161 1953 1276 944 898 793 
891 972 1068 2259 595 84 2028 1476 919 
1067 2083 25 1368 193 2056 1375 533 1981 
1626 1219 526 2439 607 1549 464 1824 1319 
566 161 1861 782 138 116 1057 1270 1281 
1155 282 841 2 669 602 1253 821 11 
437 616 1038 392 83 1092 581 630 169 
1213 781 396 520 216 512 629 1184 734 
737 576 654 1065 313 81 302 2636 2263 
2452 2663 1757 2104 3353 2059 3110 2060 2023 
1450 1334 1348 2459 1505 1872 2606 671 1734 
505 769 1273 2015 486 503 1448 1147 1430 
450 623 535 1335 95 731 1822 693 1125 
1357 1665 974 1058 650 1337 1974 1380 495 
624 1485 831 750 807 931 237 760 1823 
317 1036 818 1714 345 285 1453 212 925 
222 1683 686 987 951 1321 97 699 675 
847 346 1405 277 783 1403 1404 187 58 
999 1629 308 964 645 864 29 261 238 
1466 1891 1362 1930 609 210 1397 403 1584 
1730 1221 374 1859 2264 1611 1606 2863 2389 
1768 2687 2118 1444 1300 1727 96 1288 963 
2105 1959 833 2113 1051 1590 1124 1551 1578 
1620 1494 1573 1175 225 1250 1795 1728 163 
1634 975 436 376 610 556 1264 877 90 
65 269 1143 322 355 475 115 197 1278 
777 41 202 1208 1286 260 1233 409 1084 
293 653 213 290 422 272 255 1217 617 
407 70 447 33 1804 787 1443 875 1230 
981 1224 395 1032 1027 641 1056 1322 582 
459 1284 1228 1766 726 1886 408 78 1046 
26 1236 1944 3201 2071 3246 2900 3600 2265 
857 1223 1420 1850 1605 1598 567 1158 1422 
87 326 892 1524 705 1898 1942 722 462 
800 318 487 137 1040 457 424 1310 832 
1150 199 419 488 37 873 1165 1229 1054 
856 16 585 1459 882 846 120 880 776 
205 186 613 1050 1073 180 271 389 1059 
334 1187 814 936 775 99 980 703 24 
1100 627 198 463 1576 173 245 938 1499 
1259 2654 19 997 598 1045 1687 496 664 
241 208 3045 1612 1637 1614 893 1528 1225 
55 1816 2249 3093 1645 1246 1037 583 1385 
1798 2778 1531 701 559 1267 1400 2262 2296 
514 516 651 2032 1643 1654 587 144 430 
1541 763 817 634 695 714 697 159 1952 
668 360 1389 372 1359 834 106 946 1567 
544 342 615 1014 489 541 1159 332 52 
1868 1438 1532 928 443 1854 1033 1314 1327 
596 1671 2911 2217 1638 2534 2280 1500 1487 
1910 1182 1511 1829 2704 2961 1632 1446 2555 
181 2659 2857 1855 2136 1887 2398 305 2266 
146 1534 1642 1724 2383 1805 2341 1689 2095 
385 418 1913 1817 1188 1831 950 67 663 
347 1185 1378 231 21 924 1167 1835 328 
518 907 1888 798 845 1099 915 539 1700 
1719 110 1237 1530 147 1260 1106 1328 1339 
1332 1149 191 1316 799 1119 259 2441 233 
1107 2551 323 2631 1896 2153 889 3099 2544 
2177 2426 1414 1862 1819 742 1821 3436 3689 
2521 2629 1738 1961 1526 2915 2793 3101 2709 
3595 2331 2999 4035 2290 1024 2454 2751 1320 
676 412 478 540 2116 1679 1490 194 1510 
756 319 387 2161 1186 1916 681 826 933 
279 1103 729 1388 2241 2527 766 1581 1747 
1481 959 1173 1226 1497 1390 1118 2528 1957 
2574 2411 2862 2210 2048 823 2879 1516 2364 
2325 3218 611 1693 2996 1317 2530 3058 536 
476 1750 2955 2635 2844 1907 2633 2511 2393 
367 3107 940 1146 254 895 1906 2256 2764 
417 524 853 373 1069 1047 546 1136 1520 
1535 1162 961 1969 298 1077 1010 1005 15 
1028 2283 1818 229 806 2515 2830 1749 2315 
1325 1579 674 3206 2695 413 2111 1306 2737 
1970 3052 189 3082 42 1840 1801 429 294 
998 1990 1360 978 1204 2134 2605 1371 767 
30 2677 1393 2206 2617 2353 101 1277 1379 
3471 1376 117 1846 2378 2380 2681 2809 234 
2192 2347 292 1890 2867 1307 2586 1787 2513 
3492 4232 3397 3269 2920 542 3639 3098 2122 
3418 3008 3416 2149 1482 3520 1739 2412 2200 
971 2237 1647 2175 2277 1924 2036 2093 1004 
1245 1748 700 2435 1479 1705 1873 1869 1367 
2346 1238 584 1735 2614 1971 2049 1929 1870 
1899 152 955 2894 1280 2502 1678 2074 2627 
1483 2848 2085 772 1775 2648 802 2850 2487 
2752 992 2001 2775 3077 3379 201 2773 2997 
268 4074 3534 2740 2418 2008 3923 473 3933 
738 679 1152 1962 1716 2212 2481 3336 2477 
2428 1809 1574 2658 3607 3085 2000 965 1911 
2491 1160 2877 2248 2127 481 2716 2578 2038 
1839 1586 1447 1676 1604 2309 1772 2417 1996 
1994 929 1963 1489 1936 1931 2196 2039 1811 
1699 2291 1003 2214 2086 2123 3105 2540 1166 
1408 1841 449 1338 2055 1580 696 2247 1440 
94 945 1781 1198 2580 416 968 1897 694 
2232 1915 2542 2785 1194 2930 190 2322 774 
2329 1853 1630 1333 1472 2626 1914 2585 2602 
1088 2339 2261 2020 2387 2338 2510 2611 3251 
2423 2297 2363 1710 2410 2062 3066 3229 3473 
2836 2340 1559 1927 1876 2106 1984 1786 2050 
1356 2745 3231 586 1486 1384 2004 838 757 
2482 2321 1222 1815 644 1537 192 1696 2207 
1834 1326 1900 1435 2298 454 2504 1355 1979 
2407 1635 1543 2058 218 2082 2948 962 1274 
1153 1894 977 1826 2102 884 1940 1137 458 
1292 125 921 712 1928 861 1170 1720 577 
3027 1867 820 2550 2953 1935 1512 2438 1968 
1550 477 1828 2148 628 1129 1955 1013 1767 
1939 2114 2490 3939 2469 4046 3254 4254 3048 
4005 3293 3309 3065 2512 1945 2181 2620 2881 
3128 2561 692 1239 491 1104 2226 899 1658 
2616 990 151 1116 1364 511 10 1346 1513 
1349 378 1468 1080 813 1529 745 1575 240 
406 249 1470 1190 2087 1780 1425 119 1760 
1467 1035 1591 228 1020 1997 141 744 642 
428 733 150 1697 1242 485 1585 1548 723 
2025 102 2587 2174 1506 2376 2767 309 612 
1600 1651 698 1434 1838 1909 2245 1871 2503 
1607 1874 1698 426 1905 1885 1670 2227 904 
1721 1474 1722 2385 2738 3446 1782 2990 4002 
3184 3588 2870 3005 1202 1703 2099 2446 3083 
3257 2744 1878 3641 1122 36 771 1082 2317 
1179 1892 2139 2143 2002 1496 108 739 356 
2215 1690 736 1569 996 1248 1582 1227 571 
1295 1142 1006 872 1330 239 1087 1920 790 
1533 1207 5 794 1617 224 1597 866 2034 
1275 939 573 1353 1312 289 1771 1753 1297 
1212 22 39 2532 2219 2051 2643 1377 1596 
947 1755 1296 1200 1592 1374 1315 1503 2156 
1799 1949 3012 2861 2236 1305 1631 1832 1352 
1063 1563 2560 2420 3103 2666 986 2129 3662 
2691 3305 2974 3393 3542 3189 3544 2696 3177 
2577 3020 3169 3915 2977 2965 3240 1723 1603 
1908 2932 1769 2057 2164 2076 2141 1484 1729 
1391 1577 1064 967 1130 1877 1595 1752 1812 
643 1007 2035 335 1291 621 1279 1796 321 
901 1112 1344 140 243 79 913 1220 2016 
1199 494 1469 527 1613 554 232 77 89 
510 1813 1455 158 746 1089 1825 1943 878 
2343 2304 1081 2063 1289 1754 2817 1983 2653 
2274 1114 881 2392 3758 569 2754 4139 3413 
2488 3529 1568 2013 2905 3022 2739 3185 3857 
3681 2257 2302 2748 3210 3546 3089 3153 3599 
2987 2391 2591 2928 3068 2807 2924 3501 2686 
1803 1527 2190 2273 1556 1395 1012 3209 2006 
1858 1432 273 246 1329 506 68 631 593 
482 1413 1814 2465 386 923 922 854 1554 
1519 1599 562 1618 414 888 1407 157 1852 
2053 264 1522 1265 1303 1475 1951 1083 816 
2509 2152 704 1464 2384 954 1615 2238 1351 
941 1602 1176 743 2903 2440 2518 1669 2960 
2436 3239 3215 2656 2805 2923 4403 2768 267 
2334 2897 4205 4909 1958 3243 3753 2875 3726 
2517 2600 4810 3040 3793 4592 2447 3087 242 
3162 2400 2258 3023 2655 2583 3399 2642 3427 
3262 2789 2197 2852 1923 3431 2404 2345 3094 
2311 2781 1653 2120 1126 2306 2373 2545 1932 
2798 655 2484 2985 3095 2294 2795 2828 2126 
2535 1478 1783 770 3168 3070 1127 2657 1933 
3117 2572 2140 1844 2221 4395 2500 2952 2354 
3163 3755 3031 2707 4070 3476 3106 3859 3822 
3389 2849 2975 4065 4252 2220 4154 2324 4191 
3432 3851 4280 4867 3993 4711 4678 5135 2579 
4032 2501 2593 2895 2352 431 1034 903 1673 
2235 1991 2814 2462 4184 2676 1514 1851 1941 
2519 4268 2622 2117 4135 3843 3038 1538 2073 
3396 2941 2799 521 2972 2826 3463 1904 2395 
1718 2142 2570 2497 3430 3597 3457 2619 2455 
3929 2526 3256 2546 4001 3590 2690 3510 4045 
2588 2424 3909 2396 2618 3420 4105 2067 4482 
3757 2646 2081 3408 4227 4138 3368 3466 3530 
4020 3166 4188 2103 2708 3512 4264 1791 1662 
3762 2794 1121 3517 3805 2962 1399 2064 1308 
1627 3367 3405 3411 2788 1299 1807 2589 2151 
2403 2289 2980 3028 2299 2825 3491 2665 2077 
3780 3409 3615 3816 3625 3226 3747 2514 3316 
4865 3980 3310 3536 3291 3364 2731 3017 3126 
3369 1451 114 2096 2891 871 2846 2458 3509 
2069 3374 2684 2451 3363 2216 3475 2495 3856 
3132 2698 2639 2811 3941 2457 969 3124 3953 
3861 3653 3902 4006 3129 2856 2019 3827 3453 
3724 4122 4272 3208 3834 4073 3655 3839 4124 
4746 4362 5217 4768 3938 3455 3710 3387 1849 
3893 868 2906 1624 2336 2971 2598 2556 3195 
2967 1917 2721 2483 1498 1695 2847 2538 4237 
2112 2925 4025 2567 3358 2772 3137 3011 2652 
3424 1594 2596 2823 3684 2859 3227 1788 2791 
2992 2065 3663 3122 3079 3009 3016 3439 3315 
3493 2969 4831 3372 5194 3770 3741 3964 5181 
4285 3688 4083 3841 3591 5384 4263 4496 4088 
3059 3313 3702 4353 3039 3576 3075 3212 3549 
2746 3421 3984 4000 1948 2670 3025 2700 3344 
2493 2963 2558 3462 3754 3628 2802 3100 2680 
2647 2667 3119 2473 2994 2936 1881 1880 2119 
2320 1675 2468 2075 3778 1623 625 2332 2254 
2382 3224 2604 2466 1842 3073 1660 1111 2892 
2409 2496 2783 2323 1517 2010 2125 2741 2682 
3508 3577 3003 2494 2198 2449 509 1555 3213 
1995 1639 3147 3729 4219 3618 3914 2147 3580 
4405 2711 3666 3732 3032 1837 876 2135 3006 
1707 3414 2569 3381 2310 2222 3335 2552 2762 
3905 3992 4178 3917 4182 2145 1800 2335 3115 
3272 4217 1833 2018 1746 2228 2377 3265 3139 
1866 1893 2723 2801 2171 2372 2421 2399 1863 
2470 2576 2285 2243 1657 2072 2743 2414 1836 
2779 2061 1110 1808 2240 2176 1701 2194 1875 
2188 1950 2651 3280 2362 2344 1557 1636 1895 
1977 943 1992 2230 1663 1113 1062 361 860 
1298 604 1431 1685 1692 2640 2128 1547 72 
1251 1688 1633 2355 2703 3033 2080 2912 2531 
3295 3219 2770 3035 2612 2108 1331 3102 1686 
3013 1437 4478 1347 2623 2358 1098 2603 1154 
2732 2453 2998 3635 4246 3745 4328 3680 4618 
4802 4443 3470 2233 4374 3151 4089 4691 3636 
4498 4419 3750 4804 2761 2318 2899 2759 1902 
2430 2425 2769 3386 2307 2554 2005 2137 1789 
2790 1282 2898 2571 2563 966 905 2042 1144 
1736 1495 1764 1515 1247 2110 2068 2246 1742 
719 1396 1656 1674 1477 1386 287 1309 1025 
994 855 702 1241 131 1363 2166 1773 2089 
1847 2157 2480 1655 1972 2250 2054 113 2664 
2107 3192 1751 2982 3297 2419 3478 4382 2958 
639 2750 563 2959 2130 1461 2613 2251 1571 
2896 4940 3685 3617 3659 4559 3366 4155 4946 
3698 4922 4091 4528 3838 2945 3613 3743 3977 
4558 4064 3999 3573 2724 3062 2851 2314 2669 
2966 3074 3111 1680 1921 1268 1784 1609 2375 
1986 1504 2037 3140 2208 788 2209 1350 796 
183 824 1262 751 2024 2029 155 1210 331 
1649 174 1502 1255 2599 1672 1493 920 1993 
1544 1030 2253 1441 1079 579 2313 1418 709 
1794 470 195 1980 504 2553 1096 2369 1845 
1708 2312 2406 2755 1566 2813 2866 2379 3852 
2964 3136 2202 2162 2910 3238 4055 3296 2184 
3494 2860 3481 1249 1394 3829 2796 3765 2356 
4608 4507 3583 5053 4854 4753 4658 4519 3157 
2442 3248 3858 3837 4696 3707 4473 3627 4717 
3895 1018 2865 3142 3276 3193 3292 3622 2295 
1293 2040 1361 1076 1008 2133 2661 1102 2548 
3123 2204 1201 1370 1324 1960 312 932 2124 
2270 2160 2012 74 1552 599 2084 93 1463 
2348 220 2281 12 1019 1026 1410 1105 1263 
1009 2333 2829 718 226 1442 2045 594 2525 
1830 1987 2031 3593 1985 1978 2370 3452 3649 
2342 2753 3282 4078 2908 2229 2842 4668 3323 
4298 3570 3798 4114 3518 5050 4837 4276 2758 
2780 4004 2650 4707 3677 4745 2505 4512 4632 
3406 3579 3511 3652 4603 3667 4999 5993 2993 
3410 3434 3910 4418 2760 3279 1460 2052 3934 
2756 3173 2610 3037 3450 1545 2090 2516 1973 
2701 2833 2766 2986 3145 1518 2360 2991 3197 
2021 1454 3266 2508 2889 1343 1402 2816 1120 
2885 2929 3190 4230 2541 1508 690 2725 1049 
2275 1415 3376 2359 3054 4247 1702 2679 2374 
4385 2279 4916 3700 2163 4094 4872 4920 3317 
4072 5487 5110 4159 4883 4685 3900 5007 4901 
4680 5040 3010 3855 3071 4789 5524 4630 4692 
2242 4341 4251 5222 3340 3444 3165 2835 3433 
3146 3679 4555 1843 2821 2983 3815 3540 4334 
3041 3806 2729 5185 4701 2144 792 3442 3398 
3678 3400 4126 2995 3304 3489 4549 3339 2641 
3811 3646 2218 3958 4118 3619 4852 2634 2765 
1682 3705 2660 2947 4113 3526 2978 2592 3537 
3916 2904 3686 4661 2027 2692 4117 4314 5476 
4715 3232 4346 3488 2568 4377 5090 4932 5577 
5566 3903 5155 4452 3988 3245 5200 5495 4857 
5541 5074 5560 4667 4616 3585 4258 5422 2944 
3661 3594 3809 3868 3514 3322 3719 4317 4277 
4526 3581 4158 3779 4098 4583 3290 4190 4698 
3675 2467 3904 2720 5231 4995 2868 4693 4738 
3614 3002 4043 1964 3505 2854 4520 4119 3810 
3749 2820 4100 3704 4348 3563 4069 3951 3307 
5431 2946 4650 5226 5259 4882 4390 5537 5009 
5218 4438 2957 4197 5989 3321 2543 5150 5726 
5542 2888 4791 3552 5664 5815 4459 2950 4815 
2797 4635 3775 3383 2726 4082 4164 2880 3288 
4115 4965 2499 4360 3356 4019 2869 3551 2884 
3643 3963 3647 4176 3908 4345 2699 2463 4381 
4926 3566 4690 4391 2549 3967 4012 4571 4057 
3186 4224 4573 4392 4671 3545 3327 3950 4543 
5460 4335 5821 4699 4619 4477 1365 1743 2644 
497 1998 3329 3794 3944 2782 3733 4704 3773 
3361 3449 3767 4133 4400 1664 3975 3223 5539 
4111 3730 2749 2787 3458 4060 4303 3464 4017 
3347 3748 3883 4484 3882 3968 4777 4569 4229 
3935 4466 4942 5236 4700 4600 4128 4718 4590 
5124 4649 4080 4447 5363 4026 5049 4087 3216 
3830 3104 2803 2838 3796 2186 4039 3942 3598 
2474 1509 3978 3154 2485 2871 4052 3983 2293 
3670 3130 2831 2882 3116 2668 3141 4663 3555 
3465 4063 3349 2303 3191 3337 4918 3920 3351 
4530 5345 3867 3965 5858 4605 3772 4540 4638 
3982 4518 2694 4430 5043 4598 4290 3714 4703 
5935 5498 4741 4284 5663 1650 3479 4782 5514 
5014 5348 4610 1806 3899 3407 3438 2159 3657 
4121 4037 3970 2607 3360 2918 4195 3007 3820 
3763 4413 1433 4241 3524 2818 2557 3181 2917 
2662 2763 3401 2733 2529 2594 2168 3634 2792 
2873 3202 2282 4036 3422 2637 1889 3506 2413 
741 1209 3225 3196 765 3516 3286 2260 3564 
4384 3026 3217 3392 3994 3270 4260 3435 3611 
2506 3727 4243 4355 4003 4211 5317 3860 3230 
3913 4350 3807 3311 5281 3160 3375 4257 4511 
3324 3373 3443 4013 5680 3872 3069 3019 1659 
2536 4412 4053 4150 4580 4318 2988 4007 3787 
3814 3419 2774 3377 3113 4421 2757 2702 3565 
4125 3211 3504 5741 2710 3042 2981 2834 3760 
3283 2351 2098 2091 1860 2092 2564 1785 953 
2287 1856 2624 2205 2361 2158 1565 2199 1109 
2115 1256 1589 1912 1982 1879 2672 2747 1967 
4021 1313 1759 2609 1382 2189 3084 2431 2800 
3550 2688 4212 2927 3057 3777 3957 4376 4389 
4454 3682 5131 2843 3459 4309 3709 4240 4828 
3359 4468 4066 4186 5960 4779 4624 3522 4062 
3402 3234 4576 5983 4648 3823 3645 2819 1416 
3152 3354 2907 3072 1937 2041 1954 3090 3676 
2559 3158 2628 3247 1725 1988 1919 1196 1601 
1857 1677 2573 2183 2288 2608 1302 1439 1622 
2507 1341 2319 1726 2408 2026 1128 1820 1488 
1756 1540 2047 1473 1666 2448 2632 1777 768 
1507 956 1501 2330 1558 3342 3472 2284 2951 
3606 2437 2582 2786 3388 3784 1041 3362 2943 
2337 3220 3548 3055 4192 3874 3260 2933 2486 
1587 1610 2837 3204 3127 4014 3706 3485 5360 
3624 4193 4009 5622 5054 4708 4731 5060 3831 
5765 5068 5851 2685 3261 2717 4316 2522 3884 
3302 3370 1774 3034 3076 2472 3989 3242 3959 
1681 1865 1763 2203 2009 2043 1521 2195 2584 
3499 2921 3487 1392 1918 754 1661 1938 2471 
2078 1956 3331 3096 2191 1712 1572 1140 683 
2742 2630 2278 1285 2601 1745 1975 2030 1999 
2276 1737 2855 1646 2397 1411 2456 3632 3693 
3650 4283 2169 4417 2365 4448 4183 2968 3782 
4722 4951 1946 2719 1884 3394 3289 2954 4742 
3273 3469 3328 3962 4593 5215 3582 4449 4491 
4755 5269 4866 5018 5559 5138 5117 3842 3495 
4566 4261 3468 4492 4142 5264 4282 2979 5496 
3214 2349 2914 2271 3350 4058 1989 1553 3474 
3143 3528 2808 3352 3198 2728 3061 3024 3047 
2223 3200 2683 2185 2445 3171 3380 1717 2839 
2718 2845 1882 3253 4134 3440 3739 1132 1758 
2901 3974 5027 3543 4081 3604 3567 4287 4780 
4944 4436 4597 4727 4306 4517 4824 4884 4370 
3064 4781 4845 4807 4450 4375 4170 4714 4851 
4599 4542 5637 3768 4907 3813 4529 5310 6020 
4481 5386 5725 4152 5786 4898 4627 4962 5967 
3318 4655 3334 4379 4961 3897 4662 5549 6002 
3357 3721 2305 2973 5066 3847 4955 4613 5995 
4490 3135 3156 3278 4242 4508 4213 3255 2832 
3500 3134 3715 3159 3249 4522 2713 2841 4410 
3312 3976 4204 2806 4442 2678 3263 3817 4343 
3866 4816 4323 3946 4301 3890 4226 4842 4239 
4614 5658 5616 2722 5075 3644 4296 5952 4876 
2615 5300 4289 4948 4913 5968 5781 4725 4244 
5143 4557 5017 4868 5806 3701 5250 4145 4270 
5809 4778 5671 5562 5589 5601 4293 5693 3898 
5881 4844 5201 5375 5777 5847 5119 2727 4354 
4351 5575 4584 4453 4915 4798 3885 4793 4169 
5099 3480 4157 4429 4673 3979 4396 4485 3660 
3051 5172 4387 4653 2893 4404 4435 4144 4887 
4783 5600 4895 4506 5092 5083 5270 4234 5633 
5764 4269 5084 5006 4470 5787 5162 5582 4885 
5991 5683 5678 5284 5662 3503 5646 5380 4531 
4488 4432 4533 5207 4830 5056 4634 4933 4352 
4937 5543 5766 4077 6063 5343 5758 4765 4748 
5713 4921 4108 5139 3036 5096 3584 5296 4664 
4504 4724 4617 4651 4629 3865 4911 5785 4198 
3848 4394 4181 5742 4606 3275 5454 5954 4772 
5925 4806 5694 4414 4964 3996 5176 5033 5981 
5254 5512 4881 5583 4536 5863 6006 5574 5089 
5831 5174 5171 5836 5649 5112 4960 5394 5137 
4797 4273 4474 3919 5473 3562 5374 5868 5471 
2193 5180 3651 4256 5184 5982 5621 5419 3889 
4705 4850 5126 4245 4953 5860 4908 4011 4983 
4591 4513 5417 5133 5931 3759 5773 5367 5161 
3665 5125 4480 4990 6025 5807 5749 4180 4977 
5934 3138 3863 6017 3451 4767 5051 3943 4331 
3671 3840 4033 4683 6058 3708 5178 3844 5522 
3769 5406 5804 4179 3183 5833 3285 4562 4930 