# vtk DataFile Version 4.2
Generated by LIGGGHTS
ASCII
DATASET POLYDATA
POINTS 6000 float
-0.0225985 -0.0388627 0.0187157 -0.0151189 -0.0423015 0.0169623 -0.0160356 -0.037828 0.0168443 
-0.0191227 -0.0405769 0.0177001 -0.00930226 -0.0413342 0.0179079 -0.00605595 -0.0376642 0.0170017 
-0.00663153 -0.0442649 0.0168929 -0.000205567 -0.0449968 0.0173479 -0.00351411 -0.0408476 0.0172209 
0.00125214 -0.0402134 0.0158953 -0.00150169 -0.037228 0.0173936 0.00493365 -0.0426727 0.0173296 
0.00939425 -0.0417332 0.0178966 0.00884774 -0.0371552 0.0178454 0.00490172 -0.03862 0.0179214 
0.0200343 -0.0402548 0.0172786 0.0163531 -0.0416116 0.0182314 0.0234681 -0.0382614 0.0167808 
-0.0321201 -0.0309046 0.0155861 -0.0259276 -0.0367647 0.0174917 -0.0284746 -0.0294818 0.0182551 
-0.0258693 -0.0326953 0.017586 -0.024142 -0.0290804 0.0173344 -0.0158568 -0.029771 0.0177341 
-0.018761 -0.0326098 0.0177746 -0.0146485 -0.0338154 0.0167934 -0.0107737 -0.0350314 0.0168617 
-0.00746289 -0.0295264 0.0173175 -0.00363999 -0.0315005 0.0178361 0.00354591 -0.0336408 0.0159209 
0.0049624 -0.030017 0.0176821 0.00842886 -0.0320733 0.0173566 0.01103 -0.0287018 0.0178113 
0.0118869 -0.0335543 0.0188227 0.0159406 -0.0346594 0.017167 0.0173024 -0.0304671 0.0180561 
0.0197183 -0.0356923 0.0187067 0.0271166 -0.0358892 0.017274 0.0237108 -0.0335453 0.0174386 
0.0292481 -0.0321968 0.0172863 0.032839 -0.0307161 0.015597 -0.0338431 -0.0235537 0.0180944 
-0.0301834 -0.0214467 0.0165384 -0.0285111 -0.0252191 0.0184715 -0.0244237 -0.0249866 0.0180765 
-0.0259676 -0.021087 0.0173467 -0.020642 -0.0267633 0.0177087 -0.0209546 -0.0221674 0.0181362 
-0.0171492 -0.0237292 0.0183737 -0.0136795 -0.0216246 0.0180837 -0.00705514 -0.0237048 0.0183701 
-0.00350168 -0.0275381 0.016676 0.000361981 -0.0270864 0.0183468 -0.0033048 -0.0218168 0.0183082 
0.00454527 -0.0256684 0.0178962 0.00851137 -0.0242154 0.017367 0.00509812 -0.0213737 0.018437 
0.0113163 -0.0213476 0.0179732 0.0200075 -0.0276181 0.0170773 0.0128879 -0.0250649 0.0179017 
0.0154809 -0.0219976 0.0169591 0.0191517 -0.0235701 0.0185321 0.0224435 -0.021292 0.0173084 
0.0261887 -0.0230493 0.0165925 0.0231248 -0.0252643 0.0182237 0.0304695 -0.0250386 0.0163428 
0.0359795 -0.0266409 0.0175094 0.0320086 -0.0211154 0.0182374 0.0389872 -0.0206836 0.0150657 
0.0386091 -0.0226194 0.0186078 -0.0402571 -0.0193208 0.0167763 -0.0391007 -0.0157408 0.0182528 
-0.0249523 -0.0154157 0.017973 -0.015516 -0.018067 0.0180815 -0.0205206 -0.0159165 0.0184629 
-0.0145282 -0.0121849 0.0183506 -0.0104309 -0.018832 0.0183028 -0.0113111 -0.0146907 0.0184771 
-0.00513769 -0.0180012 0.0185088 -0.001011 -0.0184326 0.0180942 -0.00129079 -0.013839 0.0181166 
0.00272407 -0.0170751 0.0173693 0.0083871 -0.0185387 0.0176417 0.00590064 -0.0147637 0.0183591 
0.0111656 -0.0124012 0.0178172 0.0122812 -0.017295 0.0183628 0.0184698 -0.017121 0.0180284 
0.0152845 -0.0145851 0.0180558 0.020299 -0.0135774 0.0168624 0.0285066 -0.0191605 0.0168228 
0.0247138 -0.0177749 0.017312 0.0247055 -0.0130785 0.0176835 0.0277058 -0.0154362 0.0189062 
0.0315301 -0.016528 0.0178057 0.0352505 -0.0144845 0.0171257 0.0408115 -0.0174315 0.0173192 
0.0395818 -0.0124359 0.0182416 -0.0392468 -0.0115235 0.0180502 -0.0436925 -0.00959471 0.0175806 
-0.0374351 -0.00774236 0.0183267 -0.0348559 -0.0117887 0.0182813 -0.0307569 -0.0109042 0.0179862 
-0.0323334 -0.00669904 0.0176888 -0.022762 -0.0110123 0.0181313 -0.0287482 -0.00520712 0.0186506 
-0.0213609 -0.00727379 0.0185523 -0.0268223 -0.0110844 0.0187969 -0.0173965 -0.00672691 0.0184434 
-0.0182933 -0.0106281 0.0186728 -0.00619434 -0.00458973 0.0180986 -0.00742912 -0.00863083 0.0187105 
-0.0114318 -0.00532243 0.0189081 -0.0041427 -0.0108476 0.0176014 -0.000424684 -0.00597222 0.0174311 
0.00298351 -0.0118369 0.0188363 0.00824519 -0.00832563 0.0183056 0.00460609 -0.00649418 0.0179892 
0.00867262 -0.00434184 0.0186168 0.0151309 -0.0100216 0.0182089 0.01655 -0.00466372 0.0181122 
0.0198615 -0.00922574 0.0170743 0.0208683 -0.00531276 0.0184177 0.0251256 -0.00504774 0.0180137 
0.0243767 -0.00894998 0.0185609 0.0284747 -0.00757539 0.0185312 0.0299844 -0.012111 0.0173694 
0.0354089 -0.0055686 0.0180383 0.0404007 -0.00815888 0.0171744 0.0393524 -0.00411678 0.0180002 
0.0436611 -0.0104846 0.0181491 -0.0373727 -0.0035582 0.0182191 -0.0410526 -0.00180169 0.0185917 
-0.0449267 -0.000494564 0.0186269 -0.0245715 -0.00193551 0.0184321 -0.02855 -0.00120169 0.0188175 
-0.0246314 0.00411387 0.0189715 -0.0159603 0.00429736 0.0185062 -0.0125827 0.00209404 0.0181238 
-0.0181797 0.000953527 0.0186566 -0.0167048 -0.00277216 0.0187838 -0.00924451 -0.00194079 0.0185428 
-0.00854224 0.0021773 0.0182863 -0.00549275 -0.000513947 0.0181973 -0.00450732 0.0033842 0.0186225 
0.00123241 -0.00219911 0.0181909 -0.00152365 0.000659094 0.0187825 0.0105498 -0.000226942 0.0183816 
0.0104566 0.00377766 0.0183797 0.0126375 -0.00364161 0.0184077 0.0181946 -0.000879133 0.0185749 
0.0154251 0.00412957 0.0174182 0.0282232 -0.00234398 0.01826 0.0221468 -0.00150295 0.0183668 
0.0245422 0.00168388 0.0176598 0.0284645 0.00164593 0.0185464 0.0325347 -0.000926152 0.0178225 
0.0320212 0.00320379 0.0175517 0.0366275 -0.00033116 0.0175114 0.0439575 0.0013675 0.0177517 
0.0390857 0.00282655 0.0175975 0.044726 -0.00248151 0.0185336 -0.0398939 0.0104477 0.0185404 
-0.0293067 0.0110352 0.0182286 -0.0334071 0.00607507 0.0186862 -0.034181 0.0102929 0.0186789 
-0.0226374 0.00767995 0.0183196 -0.0252905 0.0107528 0.0181185 -0.0201361 0.00444584 0.0184792 
-0.0184899 0.00808981 0.0189488 -0.0144093 0.00801211 0.0188735 -0.0198348 0.0118752 0.0188319 
-0.0111038 0.00583058 0.0180905 -0.00706993 0.00645552 0.018683 -0.00263994 0.00741118 0.0187626 
0.00751321 0.00947302 0.0184574 0.00675299 0.00532978 0.018843 0.0127481 0.00712846 0.0181556 
0.0150015 0.0104238 0.0184451 0.019563 0.0101421 0.0183331 0.0209436 0.0062451 0.0184895 
0.0260824 0.0113988 0.0177495 0.0324818 0.00722066 0.0177885 0.0300856 0.0104726 0.0183457 
0.0368367 0.00917057 0.0173075 0.0445795 0.00533589 0.0179208 0.0405781 0.00801725 0.0181492 
0.0437448 0.0103161 0.0171922 -0.042787 0.013375 0.0172873 -0.0413228 0.0176259 0.0184496 
-0.0325791 0.0162742 0.0186459 -0.0287435 0.0150092 0.0184928 -0.024833 0.0147261 0.0176844 
-0.0238764 0.0185966 0.0181515 -0.0278328 0.0189443 0.018755 -0.0201009 0.0170021 0.0182209 
-0.0158035 0.0177143 0.0178782 -0.00749056 0.0188449 0.0182839 -0.00144818 0.0195216 0.0176018 
-0.00144389 0.0155164 0.0189473 0.0074996 0.0146571 0.0188468 0.0114979 0.0141968 0.0186864 
0.0179516 0.0175897 0.0183673 0.0175923 0.0136097 0.0187154 0.0231594 0.0141004 0.018177 
0.021899 0.0178812 0.0175565 0.0287085 0.0152285 0.0179956 0.0258725 0.018024 0.0186539 
0.0359669 0.0130785 0.0177153 0.0340125 0.0165833 0.0176151 0.0297879 0.0189941 0.0188736 
0.0336477 0.0204097 0.0188211 0.0425507 0.0141127 0.0178517 0.0383389 0.0164639 0.0176694 
0.039999 0.0205144 0.0183743 -0.0352578 0.0275184 0.0187803 -0.0217628 0.0273712 0.0182642 
-0.0217256 0.0232526 0.0189018 -0.0148485 0.0220294 0.0184907 -0.00833402 0.0233163 0.0175188 
-0.0109732 0.0262288 0.0185494 -0.00456154 0.0219052 0.0186287 -0.000752061 0.0239779 0.0183211 
0.0102878 0.0217242 0.0185634 0.00634346 0.0230002 0.0184273 0.0160289 0.0277252 0.0185032 
0.0229552 0.0216386 0.0184341 0.0275328 0.0266684 0.0185516 0.0380643 0.0239898 0.0188102 
-0.0207675 0.0356006 0.0181057 -0.0231712 0.0321303 0.0181251 -0.0182436 0.0292763 0.0189411 
-0.00590144 0.0358696 0.0184608 0.000914673 0.0367095 0.0186561 0.00490454 0.0370639 0.0186157 
0.0133213 0.0315546 0.0183461 0.0247463 0.0298261 0.0182706 0.022892 0.0346683 0.0187722 
0.0268623 0.0334644 0.0188787 -0.0246959 0.0374505 0.0181149 -0.0212316 0.0395713 0.0186103 
-0.0107814 0.0406178 0.0186126 0.000676731 0.0410362 0.0182402 -0.00267636 0.0383128 0.0179116 
0.00479693 0.0410789 0.0185038 0.00879194 0.0406241 0.0186046 0.0193844 0.0371649 0.0185375 
0.0126489 0.0395579 0.0186627 -0.0234522 -0.0382715 0.0226658 -0.0213755 -0.0394346 0.0269205 
-0.0160152 -0.0405432 0.0204504 -0.0198613 -0.0401111 0.0218437 -0.0168375 -0.0370948 0.0227704 
-0.0145491 -0.0424609 0.023702 -0.0180209 -0.0410316 0.0253076 -0.014575 -0.0389411 0.0256256 
-0.0127323 -0.0430643 0.0201436 -0.0124739 -0.0383672 0.0189661 -0.00747583 -0.0431116 0.0212546 
-0.00807738 -0.0385934 0.0207927 -0.011499 -0.0395084 0.0227848 -0.010635 -0.0435142 0.0236882 
-0.00459855 -0.0447055 0.023743 -0.00673676 -0.0403709 0.0243605 -0.00975098 -0.0380718 0.0260964 
-0.00755955 -0.0441969 0.0266085 0.0028299 -0.0447392 0.0201662 -0.00379156 -0.0447588 0.0197373 
0.000334714 -0.0414544 0.020074 -0.00344797 -0.0405118 0.0213088 -0.000416347 -0.0377965 0.0218399 
0.00373999 -0.0372223 0.0218165 -0.000461634 -0.0449517 0.0226153 0.00108838 -0.0408822 0.0240044 
-0.00279794 -0.0412979 0.0253844 0.00347611 -0.0448364 0.0241456 0.000357338 -0.0448805 0.0267082 
0.00439379 -0.041347 0.0216116 0.00713548 -0.0441748 0.0204274 0.0084498 -0.0397685 0.0213421 
0.0105809 -0.0435908 0.0229332 0.00729111 -0.0442347 0.0252092 0.00545439 -0.0395868 0.0254503 
0.00941943 -0.0402675 0.0253059 0.0128823 -0.0430865 0.0196998 0.0124116 -0.0388963 0.0189163 
0.016211 -0.0376983 0.0198021 0.0179471 -0.0409868 0.0219591 0.0127097 -0.039597 0.0228779 
0.0135908 -0.0425638 0.0254217 0.0160844 -0.0393166 0.0251306 0.0202994 -0.039714 0.024974 
0.0215648 -0.0394558 0.02097 0.0247979 -0.0370395 0.0205061 0.0245861 -0.0375791 0.0271186 
-0.0296466 -0.0335775 0.0194637 -0.0325636 -0.0310131 0.0217687 -0.0321223 -0.03145 0.0257926 
-0.0297355 -0.0337018 0.0234604 -0.0261358 -0.0364931 0.0252267 -0.0226876 -0.0346747 0.0191127 
-0.0268992 -0.035901 0.0212986 -0.0267897 -0.0315065 0.0214349 -0.0234931 -0.0341445 0.0230337 
-0.0237652 -0.0294794 0.0237771 -0.0283789 -0.0294726 0.0246984 -0.0255974 -0.0326085 0.0263792 
-0.0215307 -0.0308752 0.0201096 -0.020999 -0.0322011 0.0255114 -0.0190231 -0.0364721 0.0192017 
[...]
POINT_DATA 6000
FIELD FieldData 7
id 1 6000 int
6037 6059 4719 143 1333 1123 3212 3421 3006 
1837 2623 4682 3984 18 2020 3335 1659 1154 
4249 5420 531 5346 4649 3923 126 774 1152 
1065 350 1354 5586 654 2358 4405 2148 1539 
302 1397 2612 403 3753 4060 5929 2418 5298 
5265 4088 435 528 1630 396 1914 81 694 
257 1584 3913 477 209 938 582 1631 459 
1228 1236 576 78 496 2331 2560 5217 4074 
988 606 4080 2810 5181 247 274 1189 440 
1512 1732 1472 383 1372 1576 341 886 208 
575 2704 3045 2857 4883 44 3793 3098 117 
1371 720 4202 3453 935 1 660 1619 329 
165 987 1440 640 214 616 964 91 864 
1362 338 211 2555 3595 1855 797 3245 2659 
2709 3432 5495 181 63 529 421 1011 517 
171 444 368 1171 377 2 508 217 352 
565 659 1471 381 1272 1182 61 1526 551 
2182 1195 399 2543 2393 2111 60 175 2452 
1570 762 2326 840 857 1108 1709 590 1304 
153 306 890 983 2631 2879 200 1749 530 
1325 2940 3409 3747 3369 3082 2515 1419 1757 
2366 1421 236 1300 162 2778 1850 1246 420 
129 851 853 1069 1514 572 2403 2077 2289 
4392 15 1136 1807 2514 4591 4513 1713 1528 
3068 1887 849 1816 1913 418 766 1490 31 
258 961 1308 1614 55 2383 2341 687 1791 
927 3396 2283 2884 2266 1225 2258 13 993 
299 3762 819 1211 2427 3285 5229 5573 5663 
5318 5739 4209 3586 5529 313 3216 4106 5260 
5943 5728 5059 6027 3387 3313 3032 3702 4954 
4703 5759 4744 5081 5932 2984 4456 3039 374 
4000 5639 5701 1128 2569 2261 34 3714 4439 
4737 4465 5672 1650 2453 3479 3455 4388 4006 
5402 5358 473 5297 1962 3710 4267 3521 4321 
5097 5794 679 5052 2008 3558 3576 5451 5875 
6053 6032 2339 4762 2626 3549 5304 4353 4689 
3230 4509 5856 5189 178 5255 4570 5936 3075 
4308 5238 2524 5281 5303 1013 2746 1088 5348 
4910 3692 4821 3932 361 3324 1891 5014 5325 
2310 1939 5915 2536 2222 628 1347 426 3069 
3954 4013 1874 2905 1563 4412 525 4600 20 
4853 5684 4982 4128 4371 4026 4484 4365 4590 
4174 4447 5363 6043 5557 4892 5500 5695 5372 
6045 4553 4304 5105 3933 2329 1145 5718 985 
2542 2135 216 738 747 1765 5299 512 5716 
432 4741 3311 73 5261 5935 1184 3443 2550 
876 1930 2585 4511 4095 2147 241 1707 1129 
1015 1767 1955 1600 1331 3872 609 2114 2843 
2754 1607 3459 1730 1352 2603 1698 1885 2517 
2227 2136 26 3040 2768 2420 3071 2013 4777 
4569 3382 1546 471 4124 5106 4362 3 49 
3938 4087 4718 710 281 5691 4434 5645 5846 
3534 3416 3961 4602 5504 4605 3791 2001 4284 
5224 5043 364 2775 2916 706 35 314 3059 
917 3298 858 1318 248 2740 732 6012 614 
371 629 781 515 3688 437 801 2232 3732 
520 401 1802 1853 734 737 682 324 2930 
664 408 1637 1221 1632 1045 1829 400 2236 
1466 1828 881 1886 639 2897 1568 1374 904 
4867 3681 2961 997 1305 4139 3758 2392 4837 
4159 5040 1687 4810 4678 3585 3010 4616 2122 
2586 537 292 1741 62 1449 452 1691 2206 
268 5194 870 2920 3968 502 2537 552 1668 
3269 402 2460 2867 38 2850 1141 3008 1883 
626 204 123 235 843 1542 251 1406 848 
727 522 223 118 85 215 411 1861 852 
28 455 64 909 392 282 2580 1038 558 
29 3379 156 581 1027 1092 1259 308 238 
173 210 645 1766 1046 1403 1446 1910 245 
641 3851 1284 2793 1832 569 2274 2654 267 
1043 1711 4191 2600 2960 5135 4280 2999 2844 
2629 2290 4032 4452 4592 5090 5084 4909 2579 
2731 3101 1961 4188 3017 5583 3988 4948 4138 
1628 638 316 234 1074 1376 252 1093 1078 
48 468 30 441 622 1307 466 1456 297 
550 789 2109 825 170 810 221 519 1139 
365 98 507 333 812 1191 1684 758 337 
188 1203 410 1066 942 818 307 1219 1138 
841 548 301 164 275 725 1232 354 951 
602 104 1214 379 598 76 390 47 1257 
1438 545 198 124 1075 1511 1738 580 2911 
1792 666 384 1487 149 742 2915 2635 1958 
4459 1693 874 3126 4227 2633 160 3408 2705 
4035 1750 2081 5815 3166 1907 2950 6006 3552 
4258 3530 636 4667 3545 2094 1060 427 1311 
88 976 1445 1523 2863 2113 107 2327 500 
1790 1401 1044 906 330 2663 2292 1072 75 
822 713 145 678 1458 434 397 740 1562 
1436 673 748 1243 136 1095 184 1491 635 
380 1645 538 1369 1560 366 1287 130 177 
605 286 1339 867 513 532 667 1271 1465 
634 280 560 523 490 1118 323 1747 619 
1103 142 3099 2574 1192 1010 2776 524 1969 
325 1536 4571 362 433 1168 23 674 2530 
2325 2475 2511 373 1429 3058 2324 2523 3368 
446 4391 1762 1317 828 1564 3615 2737 970 
3364 3967 1017 1306 2549 611 413 2618 5989 
2423 2636 2097 1039 1606 1934 2510 2990 1269 
1525 2478 2022 647 1770 885 2263 2104 2883 
3353 353 1534 45 1462 952 1016 1642 865 
963 1218 701 1223 1420 721 2095 196 1180 
1070 1177 388 43 2167 1400 1654 311 266 
348 795 472 937 122 1186 231 385 688 
279 1000 370 603 1398 756 461 3356 1005 
194 3625 940 729 4606 809 2764 4100 862 
620 4348 298 127 3780 5454 3491 3665 5752 
3226 189 2665 3316 5463 3052 5404 4345 4381 
5272 3908 1627 4573 2699 3186 229 3110 1611 
1859 484 549 1944 2264 916 1424 2385 2105 
3005 680 1667 1426 887 1052 3201 3600 1959 
896 900 3662 1037 950 2987 1531 2591 656 
1267 1527 2398 1798 859 1831 1923 2120 1126 
67 2262 100 328 1724 1378 1817 559 319 
27 2404 1167 676 431 1320 1388 2519 663 
305 4268 924 3614 1864 456 40 2972 826 
2622 4245 5231 2161 4057 2820 4926 3028 3647 
3551 2825 2151 5742 2788 2463 3848 4176 417 
3963 1818 5982 4307 5367 5184 6025 5430 5417 
5896 2869 5460 4480 483 1648 893 583 3093 
2328 2302 2900 3189 2071 146 3087 2687 3162 
3399 3444 1673 2462 92 2642 2655 242 3089 
3431 2789 1215 4184 2583 3023 1805 2501 3868 
2345 2400 1034 1689 863 2852 3581 1188 2197 
4135 1932 121 132 133 3038 1164 1991 811 
1399 2299 1538 3036 4115 3463 1679 387 4690 
4264 2256 4664 3405 3367 601 1028 1535 1520 
4360 5419 3889 288 2589 4705 3566 546 1047 
1121 2944 3322 1024 2249 412 2895 3427 2676 
2751 2454 2352 2593 3809 3514 2708 4965 895 
1851 903 540 2117 2235 3107 367 4158 2103 
2794 2116 637 2064 478 2799 4995 254 3919 
4164 5743 3517 1906 86 357 5296 2962 5180 
1662 910 1146 5202 4582 4752 4373 5732 5768 
5302 5073 4411 5822 3922 5852 4928 4775 4501 
3616 3833 5724 2645 4315 5584 5904 5545 2878 
5227 3326 3587 4312 5156 5827 745 4986 4896 
5241 4206 5093 4534 5481 4586 2014 5592 1540 
2066 5949 5514 4123 5085 4782 2609 1558 3882 
4086 4683 3223 4970 3825 4761 5314 3531 5706 
3725 4562 4153 5804 4464 5828 4939 6040 5424 
3021 4140 2625 3539 4919 6047 5186 2853 4103 
3731 6029 5134 5977 3690 5055 5957 3447 2301 
4969 5167 4151 3030 5711 4220 5910 5948 5719 
4446 5848 3172 2422 5696 2638 4042 2434 3846 
5322 3102 3373 3120 3414 4935 5665 5563 5478 
5864 5740 5962 3013 5730 5423 4359 2037 6010 
3948 3359 3709 4610 5124 3668 5760 3347 5808 
4272 3949 4466 3869 4303 3892 5483 4427 5536 
4746 4709 3723 5282 3699 3804 6007 3653 5521 
5913 3738 5290 5811 3741 4956 4131 6001 4697 
4433 4712 708 5127 5426 5775 5705 3403 5909 
4462 4604 4638 4888 4457 5220 5266 5513 5223 
4358 5531 3160 3454 5188 3807 3295 4101 4211 
2800 3375 4389 3381 2245 4339 4828 4376 3019 
4320 5680 1905 3957 2998 2896 5700 4382 2732 
1721 3260 2251 1098 2666 2922 2129 1901 3022 
3449 4073 3827 3839 2019 542 3856 5236 3458 
4740 3730 4768 3418 4122 4942 270 2992 3132 
339 4556 3834 4229 5406 3315 835 4232 5049 
2303 4187 3492 4598 4747 5833 3397 3227 4800 
303 111 5384 5163 3841 4290 2969 4646 5412 
5498 4496 4263 3982 3964 4430 3914 4257 2602 
3666 296 1550 2785 2438 4355 3618 726 3057 
1633 1670 2108 1867 309 3192 1585 1437 3682 
1063 2156 2861 3103 3529 2202 3220 2959 2130 
2650 1949 3726 2229 2739 4668 2842 4114 4517 
2505 1612 3855 3677 2875 4630 4004 2479 3471 
3208 1031 2513 135 2101 429 1625 3953 1990 
2809 139 244 1903 918 2677 969 1890 632 
3724 2698 1787 3769 1652 2213 652 791 69 
2856 2378 2681 3639 2394 662 415 4985 685 
46 670 51 2074 735 176 3122 1379 1148 
291 1091 2487 2547 109 2752 1061 80 973 
894 630 921 284 945 94 201 3027 827 
1968 1915 83 1194 1200 669 261 1032 1651 
577 612 698 1819 19 1322 395 2334 981 
463 1797 1056 2217 2488 2436 3321 3413 2280 
4872 4932 5991 3649 3900 4205 4403 658 3993 
5560 5050 3243 4901 4857 4842 4685 5487 4450 
4789 4876 5524 5422 4680 4632 4714 4781 5007 
4599 1846 767 1922 574 842 1715 1053 1277 
850 948 902 1294 294 71 2346 773 1706 
2444 2036 684 1181 1947 2894 265 1055 3137 
152 498 979 561 804 1197 755 568 1097 
588 1135 393 1452 1280 989 784 761 1899 
600 161 555 363 382 839 185 1067 780 
256 492 219 677 445 785 805 405 97 
154 936 480 1671 675 438 59 344 557 
613 2534 50 453 207 4252 2521 672 3106 
4377 1821 4154 1638 2805 5664 3859 5566 2220 
4711 4020 2646 2888 2975 5600 5541 343 2955 
3822 5633 3466 5200 5781 5300 5726 4791 5863 
5577 4815 5503 4197 5074 5465 5162 358 1261 
499 32 869 1240 278 1776 2477 1588 336 
2491 66 1115 474 1336 608 691 1021 1163 
2428 1254 7 984 646 1071 926 897 957 
128 1172 752 1085 56 1157 991 166 112 
479 1561 1022 404 1626 671 2439 1206 105 
1156 724 1216 591 1101 451 564 262 764 
578 1516 665 57 798 359 879 553 253 
1048 1094 134 1862 227 3597 3909 2551 1888 
2315 2528 3206 959 2132 2100 3218 9 592 
1957 2067 4045 2830 2364 3436 2996 1077 5259 
476 536 4105 4438 5108 4390 4653 5572 5226 
5176 4482 1621 1970 5218 3420 1390 4990 5934 
4881 5652 5150 3536 5542 4470 4671 5787 4699 
5174 5616 5267 1345 2338 2432 2387 4002 2410 
4046 2062 3066 1505 2363 1872 2512 3128 1694 
1710 1953 17 2459 2015 1288 1641 2389 883 
2265 1334 1450 2023 168 1002 96 1340 310 
1358 2060 442 2273 206 1266 1727 250 1480 
1385 514 715 587 1643 907 681 2241 2527 
1099 2497 439 2941 539 2395 2142 1497 1481 
1510 3929 3904 3816 1718 2980 806 1162 1579 
4119 3310 2695 5431 5925 3480 3996 5103 5981 
4620 4543 4652 4141 3740 3275 3590 2588 4335 
5009 5512 4012 5285 5834 5892 3623 3980 4477 
3327 3950 5140 4224 5821 4865 5161 2059 2490 
2118 3446 1782 3588 1722 3393 3305 2356 3641 
3184 3544 3366 1768 2691 2099 2807 3020 2577 
3915 3246 3177 2924 2391 2781 2311 1605 3094 
2928 2821 3209 482 347 1843 1556 2190 518 
4126 516 2545 2144 1653 1299 3779 1916 1941 
2073 3675 2306 2535 2467 4693 1226 5099 521 
2720 3584 4852 5721 5096 3505 3749 3457 5674 
5033 4953 4887 5785 4460 5812 5919 4173 5133 
4069 2499 2367 5884 4300 4978 5999 5042 4180 
3888 5931 4850 5095 5731 3133 4221 6036 5464 
5312 6030 2748 2974 3210 3579 3406 3546 2686 
3340 2447 4341 3434 1803 3815 5185 3262 4293 
3041 3540 5549 4351 5496 3398 3304 4334 5575 
4584 4453 4098 4701 3334 5066 4798 4583 4190 
3442 2868 4915 2995 5082 4394 4198 5538 4738 
5987 5911 5969 5094 5321 5916 3810 3266 5621 
5126 4651 4503 2777 5287 4806 2723 5835 4983 
2726 4487 4199 5491 4641 5640 3759 5773 5158 
3998 4256 4579 5832 4908 2242 2835 3661 4352 
2797 4933 3775 4635 4277 2760 5780 2902 5973 
2814 4748 5819 3512 2729 4526 6063 3898 4317 
5881 3719 3805 3843 5758 4474 2889 3290 4077 
3411 5855 2683 5139 5986 5615 5342 4082 4108 
3288 4034 4899 5897 4489 5032 4813 4617 4629 
6021 5868 4639 5374 5757 3656 2193 4019 3651 
5694 3849 3840 6017 5213 3847 5458 4361 2714 
4687 5359 1680 5685 3568 1396 5416 6014 3974 
3054 4984 3306 5347 5556 5565 5662 2784 2939 
3325 932 4297 3986 2522 2268 2508 5005 5944 
5385 2886 1771 4422 2864 5610 4127 3737 5605 
4322 4743 3706 4136 5526 5203 5486 5364 4347 
3464 3138 5178 5368 5539 5026 3415 4022 3947 
2520 4295 3844 5823 4756 5972 4471 3180 3281 
4875 2344 2595 6020 5045 4749 4809 5328 6008 
4723 1020 2078 1565 6004 1417 1392 6023 4803 
4195 5659 3801 3378 5448 4805 3785 4565 788 
5841 1199 3991 5956 3997 1774 5499 4461 1323 
3994 5908 1439 3781 4147 5024 470 4674 3350 
4357 5166 3081 3873 1293 5588 4309 5373 4400 
3374 3124 5515 2787 3329 4017 3308 5409 4541 
3773 3981 3671 4440 4700 4544 5421 5048 4500 
5366 4811 3412 5243 4973 4943 5959 5849 5382 
5377 5902 5461 2131 2433 5170 4721 5873 4156 
2988 5903 3955 5564 4493 5440 3456 3426 5205 
5395 5782 2443 6065 5390 5489 3828 1965 4818 
1847 3672 131 3826 1982 5278 1686 2711 1871 
2770 2355 3362 986 3777 2982 3161 3478 2107 
2337 1737 4350 5890 4240 1636 2860 2822 4893 
4722 3494 3185 3388 2257 4276 3475 978 3941 
2451 2380 2846 2216 2749 4554 3935 3902 4133 
1998 3733 3975 6058 3283 3129 2187 3883 4469 
3655 2639 1705 4033 4111 5712 4364 1806 2827 
4179 5256 4099 3361 3141 5736 5219 5964 4271 
3578 3009 4846 4930 4831 5673 3920 1664 3555 
4167 5235 4292 4874 5199 5858 4659 3770 3748 
3611 5128 4367 4518 3591 2703 3580 190 3729 
3147 2322 416 3342 2912 3012 2531 3084 1909 
102 1315 2480 2747 1503 4478 3323 4448 3136 
1249 2503 2958 1751 72 5393 2379 3798 4306 
4745 3238 4298 2780 3469 2968 4375 4512 4436 
3962 3626 114 1733 2192 2684 1926 101 998 
1204 2134 3509 2353 3363 2457 2617 2049 1479 
3451 3944 2891 4143 3861 3767 2347 2485 2811 
589 2112 2772 3670 4663 1748 1775 5522 2065 
2882 802 2495 2848 2614 2791 2596 2627 5345 
230 772 992 2323 3465 3439 449 3077 1555 
4530 2055 968 1198 1841 1781 821 2997 4285 
8 4083 1213 627 277 1548 1804 1292 70 
1434 1838 1224 1114 1404 1592 2656 2532 447 
2653 1289 2518 1629 980 3296 2406 1799 5110 
1708 5006 4094 2753 4913 1754 3391 3570 4597 
3317 2615 3518 3064 4398 4458 4807 4170 4692 
4679 4370 4244 3328 5488 5380 4614 4851 5806 
6050 1360 2598 2000 960 2237 2277 2069 315 
1492 1647 2538 1801 1245 2435 543 1393 1193 
711 700 493 3011 172 1971 1735 320 179 
2038 584 2070 1004 300 1231 351 955 2502 
1238 547 1290 276 1994 425 786 2085 2648 
1583 460 1301 911 4 1270 1761 782 464 
469 1274 1897 962 1151 1205 138 1036 398 
653 1057 1029 1253 3689 596 1532 3757 423 
2544 213 1332 1107 814 618 2426 3215 3755 
4650 4070 4065 2923 1464 2568 4920 4346 3488 
4816 2692 3389 4314 5537 3232 4072 4204 2304 
4269 4944 5764 5678 3503 5952 4622 4843 5027 
5251 4885 5022 4725 5075 4536 4531 5649 4702 
5878 2938 2722 5143 1827 42 2149 649 1160 
1574 2877 2173 1924 971 3607 1739 2700 570 
1383 965 481 1746 1810 1366 2233 3231 2127 
2228 3100 14 1090 2003 2340 1342 716 1235 
2248 1616 1559 1911 759 829 749 349 808 
263 1134 1276 1131 1252 2028 974 779 650 
836 689 1634 793 714 182 873 975 803 
269 1321 1169 2048 82 914 1581 419 53 
2619 2396 1117 3510 1414 1896 2210 295 2946 
3563 2455 4964 2411 2978 4916 2893 3951 3946 
4715 5155 3704 5270 4993 5810 5518 4783 3046 
3640 5582 5658 4234 4068 4763 5284 4845 4934 
5850 5083 4557 5831 4868 4675 5749 4615 5023 
4730 4870 3015 4694 5544 657 3085 930 4254 
1482 2297 2469 1716 4005 3939 707 1945 3229 
2018 3251 3065 4125 3473 2620 1598 2335 2050 
1551 1258 567 1273 651 103 1590 1234 1348 
369 535 1444 1620 1175 1427 1412 1185 2296 
21 731 892 915 1158 845 815 144 655 
534 2826 340 1173 1260 2294 2441 501 1904 
933 2424 2526 3002 4001 2690 2634 4181 3430 
1964 3256 4043 4911 5519 5954 3307 5172 4772 
5047 5974 5631 4506 4445 6055 1956 5092 5275 
4552 2029 5337 4972 5604 4442 5381 3985 5257 
5438 5254 3990 4247 3096 3291 5574 4431 4619 
5125 5100 4075 5183 4112 2738 2870 3048 2881 
3685 3542 4940 2744 3837 4155 4528 4608 3659 
3745 2606 3501 3410 1723 2977 3652 3173 2983 
1124 430 1395 1012 800 273 2610 1329 4549 
2032 2985 2373 4698 1422 1432 3489 2766 2218 
3885 3619 4520 2798 2828 4200 5644 1106 3646 
3190 4504 4396 3705 4724 4673 3979 4230 2660 
5576 2947 599 5771 5479 4157 4661 5123 4275 
3582 5942 5798 5698 4959 5625 3952 5922 5585 
2507 5627 3063 3711 4757 4991 4163 4402 4736 
2942 5334 5239 4654 2223 2804 5054 5860 5825 
3153 2965 3583 4507 3511 4152 3806 2052 5386 
4999 3599 3165 3279 6002 4946 3910 3292 4037 
3433 3895 4655 1018 4261 2076 4613 5091 3721 
5264 3357 3400 4169 4793 3678 4508 2608 2057 
4118 2110 4891 2727 3502 5173 4485 5930 4056 
1049 5569 5195 5558 3164 5485 4349 2976 5130 
1473 6052 4379 2907 4203 4861 1763 4175 3918 
3925 2047 5590 5661 5921 2402 4266 3865 5407 
1504 4444 3060 5869 6051 4207 5225 4332 4941 
4812 4270 4603 3594 5847 3897 5786 4670 3450 
5637 6046 5984 5119 3249 4432 5543 3460 5550 
6000 5193 3850 5234 3333 2979 3383 5248 5351 
1857 5104 5249 4354 5392 2880 5473 4596 4839 
5113 3612 3562 1609 5331 5252 5079 5994 3643 
5843 5444 4414 4011 5747 4423 1521 1773 5436 
5361 3713 5051 5063 1110 3559 4116 6013 3633 
3338 3390 4134 3736 4578 5013 2195 5350 2970 
4183 3345 3152 2386 4829 5528 4031 5668 1363 
3820 5452 3799 2413 1999 4326 6016 5561 5710 
1777 3553 3795 2416 2226 2300 4238 1030 3703 
4399 4502 4581 5891 1937 4988 3507 5634 5927 
1743 1365 2628 2782 5552 4647 3814 2158 5279 
2890 4869 757 3966 4223 5626 4406 4340 4826 
4766 5527 1183 3575 1484 3319 2702 5607 5244 
1977 3112 5410 2581 5215 5016 5442 2874 4726 
4880 1062 5222 5209 4451 3461 4790 1256 5138 
1601 6064 2316 6048 2043 3874 1690 5192 4424 
113 2284 5813 4380 4627 5555 4021 4567 4363 
2553 2159 4212 5886 1820 3435 5951 3776 3548 
4924 2613 796 1736 2954 5208 2091 3134 3604 
1865 5232 2693 3258 4148 5116 3819 312 5316 
2208 4409 3386 5307 5914 5653 5432 2866 2601 
3603 3250 3783 5839 4366 5767 5699 3072 5356 
2472 4977 4858 3803 1808 3194 4836 5971 4585 
5708 5682 3417 4563 3965 2728 3385 1431 5979 
4499 1992 1646 2872 2506 4302 855 3219 2024 
4165 2840 5707 1697 4904 2688 1087 485 1242 
5061 3712 5995 4486 1760 2362 1845 4849 5147 
2934 4784 2758 579 2005 5918 994 5445 5516 
497 2919 3794 2401 4039 2458 6039 5333 5737 
5676 5859 5938 2834 5142 5795 3346 3354 3930 
5441 5523 2594 3423 5689 1826 5046 5484 2381 
4410 5389 5837 5036 3878 5258 3927 4063 4420 
4437 5723 2566 4847 5857 3621 5397 4378 2694 
4527 2803 953 5840 6028 3727 4383 2079 2587 
5206 1928 4003 4243 3213 3033 1688 1995 1655 
3035 1100 2054 39 2080 2953 3852 58 3297 
2431 718 2365 4055 2640 2910 4879 3481 4628 
5968 4727 4078 5070 2719 5182 3857 5315 4780 
5769 3235 4330 4589 5630 871 2605 2644 5450 
5292 5455 3088 3602 5960 5853 6057 4331 4704 
2567 5115 5245 4963 3424 5611 4734 1498 1870 
4025 2309 5928 5146 2225 3708 2831 3016 625 
3684 5216 2859 4890 5039 2823 1788 3079 3349 
4918 3372 4029 2773 3493 860 3351 977 3508 
11 509 3772 1298 2449 169 125 861 187 
999 733 1050 1813 820 2063 1854 1669 939 
875 2219 4239 3452 5802 3263 5641 4049 5362 
4081 4342 3824 3467 3541 1275 4289 3477 4931 
3956 4338 5756 4974 4588 5788 2829 4860 2336 
4633 2967 3154 1451 2293 3630 5824 5030 5820 
1695 2721 4052 2652 1869 1367 2647 4237 3945 
5153 1929 1676 3983 1839 1931 1873 1086 1447 
3778 2214 1483 929 778 1283 6 1699 2039 
448 304 1678 1381 949 1594 1166 3073 3337 
1824 1338 847 2123 2102 925 346 1517 1894 
1281 2247 882 775 271 783 617 1073 1500 
2238 1985 1499 2849 2908 4144 5121 3476 4824 
3903 5753 3171 3644 5866 140 5965 2935 4329 
5242 5703 4923 220 5830 2333 5651 4497 5011 
6018 3870 5551 5722 5729 5004 2007 5439 2165 
4225 4413 2556 868 2971 2658 2838 3520 4374 
2175 5533 2200 4241 3800 2680 3119 3195 3272 
2716 2578 1881 5876 2745 2093 1161 1409 1786 
1387 1927 1586 2847 2801 1104 148 1368 648 
1244 919 1068 898 25 167 2272 193 607 
1430 1058 327 830 465 2056 944 2083 1665 
633 391 488 2153 2862 202 1159 1316 2221 
1155 332 995 889 2354 3163 2572 541 2027 
2546 1119 3239 2707 3376 2500 5476 4895 3686 
2140 2957 5427 4117 3976 2279 4882 3817 2679 
4162 3440 3535 6062 4194 5587 232 1026 2841 
5807 6061 3940 5323 5933 5330 2180 3589 5403 
5836 3906 5501 5683 4324 5112 5353 6038 5089 
1809 2836 2611 1624 3893 2493 3462 1448 3309 
3635 2761 1356 2145 3265 833 1876 486 1734 
2181 771 1703 692 1239 1658 1578 1051 1476 
450 972 1898 1357 1023 1494 360 246 982 
697 1700 110 3095 376 283 1530 1389 1359 
3070 3117 1719 1933 259 1868 4301 4387 2854 
4113 1682 2592 4008 4637 2713 4435 2845 5779 
3537 5339 2275 5520 956 5164 4987 4550 6056 
3044 4912 2201 5887 264 5214 1207 4601 5622 
5817 1920 5958 5301 1918 4947 4786 4522 4997 
3664 5547 1717 4710 3024 5642 3617 3254 3838 
4559 4053 3959 4091 2561 3636 3750 4691 2906 
3470 2724 3257 2696 3240 3999 2446 87 3193 
84 3157 769 2993 763 1858 1603 1122 2756 
2006 1577 1524 4233 1127 2053 593 1783 1973 
792 2465 2795 3168 5901 2570 2991 2152 3339 
3876 5720 816 5818 2986 2305 5796 5697 1608 
5443 2092 5210 2281 1533 3928 2371 1140 3657 
3352 4735 1309 2357 751 1386 905 3701 4950 
5629 4479 2041 5405 4660 4287 5509 2734 5595 
3624 4455 4564 2288 4835 5594 4854 2481 3274 
3667 4418 3992 1247 4755 4492 3151 2865 4717 
3380 3037 4316 4566 3811 817 318 3934 1856 
4844 6034 386 4217 3135 5945 3076 6069 5937 
5253 5745 4529 544 5383 1848 3004 5877 4676 
5283 2016 1966 3924 4327 2084 4937 5961 5648 
5069 3078 4838 5793 3007 10 3474 5790 4788 
3528 5632 5247 746 3937 4093 2718 5997 5228 