# vtk DataFile Version 4.2
Generated by LIGGGHTS
ASCII
DATASET POLYDATA
POINTS 6000 float
-0.0223478 -0.0379526 0.0189182 -0.017212 -0.0415747 0.0180187 -0.0183419 -0.0377105 0.0186413 
-0.0125802 -0.0430561 0.0181363 -0.0077806 -0.0379771 0.0185168 -0.00555729 -0.0414777 0.018857 
-0.00859621 -0.0441217 0.0184426 -0.00351778 -0.044843 0.0178487 -0.00348914 -0.0380206 0.0191585 
-0.0015213 -0.0413751 0.0178855 0.00186179 -0.0449429 0.0190343 0.000627584 -0.0380801 0.0189892 
0.00408232 -0.0416413 0.0180958 0.00515782 -0.0377749 0.0180365 0.00891863 -0.0440736 0.018151 
0.0127972 -0.0430079 0.0190531 0.0172531 -0.0415698 0.0178736 0.0175389 -0.0376173 0.0187623 
0.0209345 -0.0398081 0.0181902 -0.0329151 -0.0306445 0.0185192 -0.0291424 -0.02931 0.0183838 
-0.0290036 -0.0338067 0.018731 -0.0245967 -0.0316784 0.0185843 -0.0217284 -0.0288379 0.018966 
-0.0213533 -0.0340794 0.0186671 -0.0177946 -0.0294166 0.0185 -0.0137472 -0.0298317 0.0186665 
-0.0124018 -0.0336015 0.0189061 -0.00860725 -0.0322383 0.0190898 -0.00541888 -0.034539 0.0182695 
-0.00515664 -0.0302779 0.0185042 -0.00142147 -0.0346226 0.018608 -0.00114316 -0.0304721 0.0186927 
0.00270166 -0.03451 0.0184885 0.00353044 -0.030005 0.0182778 0.00657535 -0.032708 0.0186258 
0.00888076 -0.0362789 0.0179489 0.0107189 -0.0328039 0.0187346 0.0079344 -0.028844 0.0184922 
0.0140659 -0.0350095 0.0183482 0.0151395 -0.0301293 0.0188968 0.0201432 -0.0312478 0.018056 
0.0255201 -0.0370606 0.0181164 0.0213711 -0.0356966 0.0188987 0.0278552 -0.033777 0.0181305 
0.0238665 -0.032705 0.0179734 0.027453 -0.0293408 0.0183906 0.0313757 -0.0318433 0.018409 
0.0342941 -0.0290897 0.0184682 -0.0355066 -0.0276418 0.0179928 -0.032431 -0.0226096 0.0186943 
-0.0293951 -0.0253173 0.0185306 -0.0256593 -0.0238821 0.0187421 -0.0232738 -0.0206832 0.0184082 
-0.0217053 -0.0248149 0.0188752 -0.0162033 -0.0257466 0.0186339 -0.0142392 -0.0222563 0.018668 
-0.0122109 -0.0257327 0.0189593 -0.0102417 -0.0222619 0.0184785 -0.00893548 -0.0281206 0.0184997 
-0.00625137 -0.0223533 0.0181495 -0.00533822 -0.026248 0.0180273 -0.00236797 -0.0233072 0.0183713 
0.00108111 -0.0267566 0.0179297 0.0036015 -0.0236449 0.0180836 0.00897574 -0.0247939 0.0180014 
0.0068643 -0.0213021 0.0182907 0.0110999 -0.0207886 0.0190308 0.0119129 -0.0275984 0.0185221 
0.0148361 -0.0247844 0.0179573 0.0186579 -0.0233975 0.0186039 0.0185448 -0.0275564 0.0182705 
0.0232054 -0.028633 0.0180285 0.0227257 -0.0245521 0.0184487 0.0269681 -0.02525 0.0187266 
0.0247474 -0.0210716 0.0188502 0.0336995 -0.025078 0.0180396 0.0380898 -0.0236897 0.0179773 
-0.0422325 -0.0131995 0.0184756 -0.0415926 -0.0171825 0.018591 -0.0377091 -0.0182107 0.0181278 
-0.0325796 -0.0123477 0.0184321 -0.0357 -0.0147844 0.0176569 -0.0319224 -0.0186169 0.0187663 
-0.0297712 -0.0151987 0.0183923 -0.0263455 -0.0182061 0.0191358 -0.0225697 -0.0126271 0.0180123 
-0.0227136 -0.0165585 0.0187404 -0.0196125 -0.0190681 0.0184506 -0.0185112 -0.015127 0.0188125 
-0.0121196 -0.0184143 0.0185766 -0.0102861 -0.0148565 0.0184758 -0.00476244 -0.0186424 0.0179863 
-0.0027018 -0.0152531 0.0185258 -0.00099455 -0.0192735 0.0191703 0.00122343 -0.0160019 0.0182889 
0.00292734 -0.0196612 0.0183308 0.00546865 -0.0156147 0.0178056 0.00916851 -0.0170762 0.0183842 
0.0130543 -0.0151083 0.0185209 0.0149448 -0.0190481 0.0183797 0.0164758 -0.0129409 0.0190552 
0.0196196 -0.0195135 0.0182981 0.0207107 -0.0156427 0.018292 0.0242338 -0.0137662 0.0186111 
0.0287207 -0.0203246 0.0189943 0.032725 -0.0201323 0.0188705 0.0303856 -0.0167264 0.0181849 
0.0348299 -0.0160126 0.0181447 0.0366655 -0.0197222 0.0181488 0.0294706 -0.0127726 0.018698 
0.0408764 -0.0186728 0.0179234 0.0383551 -0.0140109 0.0183461 -0.0437488 -0.00903383 0.0183567 
-0.037268 -0.00656849 0.0182536 -0.0406575 -0.00437093 0.0185871 -0.0446577 -0.00481513 0.0185681 
-0.0297992 -0.00945652 0.0181601 -0.0302672 -0.00544945 0.0185218 -0.0259195 -0.010435 0.0182165 
-0.0203524 -0.00925923 0.0182162 -0.0196414 -0.0054179 0.0191357 -0.0169479 -0.0113554 0.0187383 
-0.0160427 -0.00718494 0.0191811 -0.00852344 -0.0112738 0.0190767 -0.00810166 -0.00726842 0.0187633 
-0.00546156 -0.00428405 0.0191199 -0.00453586 -0.0116607 0.0189752 -0.000540618 -0.0118565 0.0181462 
-0.0014344 -0.00790347 0.0178328 0.00321181 -0.00673332 0.0186397 0.00703231 -0.0119453 0.0182235 
0.00710728 -0.00793889 0.0181986 0.0112534 -0.0116101 0.0175308 0.0111368 -0.00752202 0.017721 
0.0147032 -0.00956736 0.0176313 0.0183486 -0.00790959 0.0180761 0.0217743 -0.00599453 0.0189236 
0.024182 -0.00950255 0.0191369 0.0347901 -0.011935 0.0180265 0.0317008 -0.00911688 0.018153 
0.0355872 -0.00797571 0.0179583 0.0291392 -0.00420878 0.0182991 0.0412036 -0.0111072 0.0181235 
0.038304 -0.00501203 0.0179042 0.0440614 -0.00822621 0.0180592 -0.0404845 6.55697e-05 0.0187839 
-0.0444338 -0.00068478 0.0188562 -0.0370969 -0.0023423 0.0185121 -0.0448207 0.00328842 0.0183045 
-0.0325506 0.000135388 0.0191376 -0.0361494 0.00178526 0.0184027 -0.0309584 0.0038037 0.0189211 
-0.0283625 0.00056582 0.0186821 -0.0245126 -0.000780836 0.0185489 -0.0232788 0.00298366 0.0178984 
-0.0200697 -0.0013903 0.0184026 -0.0192719 0.00292365 0.0177812 -0.0163662 -0.00321374 0.0183938 
-0.015486 0.00159441 0.0177897 -0.0123385 -0.00378661 0.0182467 -0.0105555 -0.000181278 0.0183403 
-0.00653911 -0.000570197 0.0180927 -0.00427069 0.00266164 0.0187413 -0.00156206 -0.00391165 0.018249 
-0.00102922 6.35251e-05 0.0181004 0.00144515 0.00329219 0.0179092 0.00227948 -0.002801 0.0182039 
0.00614103 -0.00390379 0.0179181 0.00625075 0.000371397 0.0181361 0.0101203 -0.00346442 0.0180212 
0.0112244 0.000398533 0.0180399 0.00916833 0.00387103 0.0182282 0.01769 -0.0038794 0.0186365 
0.014223 0.00303841 0.0182398 0.0182503 0.00126587 0.0182587 0.020985 -0.00167685 0.0179304 
0.0254545 -0.00222919 0.0180655 0.0269355 0.00306392 0.0178355 0.0221924 0.00244495 0.0183108 
0.0331879 -0.000570942 0.0185699 0.0311823 0.00291904 0.0180343 0.0352091 0.00296256 0.0186871 
0.0444671 -0.00408821 0.0178946 0.0372041 -0.000761095 0.0177407 0.0411908 -0.000233282 0.0183601 
0.0446241 0.00290268 0.0180904 0.0406255 0.00397024 0.0179712 -0.0443398 0.00733214 0.0184759 
-0.0408867 0.00546585 0.0176308 -0.036966 0.00612401 0.0181599 -0.0361972 0.0101864 0.0182428 
-0.0330828 0.00708336 0.0180344 -0.0326817 0.0120352 0.0177745 -0.0291318 0.00772374 0.0182378 
-0.0270136 0.00433023 0.0184126 -0.028701 0.0117165 0.0180704 -0.0253805 0.00924331 0.0179978 
-0.0221658 0.00681548 0.0183268 -0.0179383 0.00663129 0.0184916 -0.0199133 0.0101799 0.0182602 
-0.0159424 0.010838 0.0183509 -0.0139569 0.00625155 0.0183599 -0.0118626 0.00968091 0.0183727 
-0.00985316 0.00612951 0.0181474 -0.00786047 0.00990991 0.0180303 -0.00392286 0.00907898 0.0180702 
-0.0017321 0.00571687 0.0181088 -0.000205596 0.0104875 0.0187299 0.00203207 0.00725162 0.0179745 
0.00372811 0.0108987 0.0179211 0.00519696 0.00476855 0.0179672 0.00870568 0.00788205 0.0176984 
0.0112872 0.01102 0.0177998 0.00749911 0.0123098 0.017837 0.0124298 0.0066535 0.0184915 
0.0173104 0.0055726 0.0179496 0.0219943 0.008847 0.0187944 0.0253538 0.00666775 0.0188394 
0.029313 0.00664111 0.0181337 0.0337939 0.00899419 0.017541 0.0306755 0.0119272 0.0179782 
0.0374956 0.00682484 0.017635 0.0396121 0.010979 0.0178683 0.0443365 0.00710023 0.0184433 
-0.0414049 0.0175792 0.0180006 -0.0385315 0.0147653 0.0186379 -0.0377086 0.0186521 0.0191024 
-0.0340453 0.019731 0.0178363 -0.0306232 0.0176835 0.0173643 -0.0346359 0.0156185 0.0182959 
-0.027282 0.0154756 0.0180685 -0.0269103 0.0194535 0.0177511 -0.0237084 0.0172019 0.0187392 
-0.0220851 0.013594 0.0180785 -0.0197157 0.0168118 0.0183426 -0.0155428 0.0172089 0.0178979 
-0.0181824 0.0204933 0.0179872 -0.00835075 0.0142255 0.0180382 -0.0115062 0.0166778 0.0183663 
-0.00723433 0.0181621 0.0177925 -0.010581 0.020546 0.0178235 -0.00381535 0.0131121 0.0179531 
-0.00317863 0.0170827 0.0179043 -5.10964e-05 0.0145509 0.018204 0.0016909 0.0181242 0.017759 
0.00719315 0.0174831 0.0186504 0.00416411 0.0147987 0.0188641 0.0104442 0.014904 0.0186213 
0.0116983 0.0186787 0.0176476 0.0162691 0.0169353 0.0180549 0.0143246 0.0134792 0.018769 
0.0185438 0.012635 0.0190046 0.0189404 0.0201505 0.0183511 0.0205057 0.016334 0.0185437 
0.0276627 0.0146016 0.0180705 0.025888 0.0188195 0.0176464 0.0365268 0.0184295 0.0182844 
0.0322476 0.0155799 0.0184889 0.0357929 0.0128259 0.017393 0.0392844 0.0149851 0.0178463 
0.040868 0.018653 0.0184535 0.0429068 0.0133548 0.0185816 -0.039005 0.0222898 0.0180447 
-0.0330768 0.0245887 0.0184666 -0.0300753 0.0219459 0.0179765 -0.0369334 0.0257078 0.0184395 
-0.0279535 0.0266415 0.0179988 -0.0255289 0.0235314 0.0186864 -0.0224574 0.0264476 0.0184368 
-0.0220004 0.021681 0.0181817 -0.0152665 0.0257821 0.0178924 -0.0190208 0.0244131 0.0181412 
-0.0143897 0.0217801 0.0177751 -0.011473 0.0245024 0.0181609 -0.00746603 0.0245563 0.0181273 
-0.00962317 0.0280482 0.0177359 -0.00490672 0.0214804 0.0180158 -0.00370256 0.0265749 0.0176817 
-0.001018 0.0222647 0.0174945 0.00106786 0.0257183 0.0179101 0.00298656 0.0221618 0.0175552 
0.00582321 0.0258633 0.0177235 0.00692264 0.0214021 0.0176646 0.00966871 0.0279041 0.0176902 
0.0129092 0.0237322 0.0175299 0.0178353 0.0267805 0.0182355 0.0208857 0.0238398 0.0181657 
0.0247453 0.022697 0.0180509 0.0229621 0.0273521 0.0175665 0.0304556 0.023372 0.017045 
0.0344651 0.0218302 0.0173306 0.0338779 0.0259983 0.0168816 0.0300509 0.027385 0.0171426 
0.0376463 0.0246266 0.0173349 -0.0344656 0.0288845 0.0186641 -0.0317513 0.0318239 0.0184215 
-0.0278783 0.0306126 0.0185392 -0.028544 0.0345714 0.0185434 -0.0240535 0.0319852 0.0182065 
-0.020988 0.0351937 0.0178299 -0.0200741 0.0312891 0.0177333 -0.0164737 0.0334507 0.0186353 
-0.0134486 0.0297024 0.018003 -0.0141921 0.0368385 0.0191362 -0.0105512 0.0358447 0.0176217 
-0.00998803 0.0319594 0.0184875 -0.00650617 0.0340176 0.0181312 -0.00445014 0.0304186 0.0184994 
-0.00211389 0.0341354 0.0182779 -0.000478823 0.029534 0.0182131 0.00172406 0.0330034 0.0180891 
[...]
POINT_DATA 6000
FIELD FieldData 7
id 1 6000 int
1074 842 48 552 2537 63 452 574 1 
71 62 244 123 139 270 1903 281 502 
3382 529 1072 638 822 221 762 2109 441 
755 561 825 626 519 415 791 365 51 
1619 204 600 3639 843 3298 49 652 20 
471 2810 531 935 330 957 75 713 128 
479 1452 1157 812 444 145 507 1011 789 
1301 329 46 1091 109 230 852 251 64 
3008 522 402 165 314 528 484 2636 107 
136 2326 678 1491 171 1108 1561 404 1131 
1436 184 333 377 1542 337 28 235 1440 
156 223 282 214 392 909 988 274 437 
350 364 440 606 396 748 740 1525 857 
1016 1304 840 1216 1560 1369 564 1171 1684 
1206 185 1861 410 725 1138 2 455 841 
1038 858 645 29 257 781 178 308 1765 
1732 512 2778 2022 1426 849 1709 483 166 
865 153 538 388 1287 105 1066 1101 368 
98 508 633 942 104 758 987 217 1232 
301 565 558 405 379 238 864 211 580 
401 383 582 34 1930 609 886 1372 1648 
887 1177 1642 1534 1246 1095 250 2167 851 
306 472 1070 122 667 280 578 879 532 
286 253 1094 659 354 523 344 82 805 
76 545 384 682 400 19 1045 938 1397 
146 2383 2398 129 420 100 795 385 27 
1180 266 937 859 513 798 1465 619 130 
890 352 134 665 53 390 164 1272 59 
47 438 1471 245 1910 208 1576 408 997 
44 664 305 299 418 811 132 1320 40 
1864 370 603 348 560 490 1000 867 57 
142 1339 275 50 2132 666 1792 453 207 
149 1526 2704 341 2659 1829 2331 13 367 
927 1164 86 637 1211 601 288 940 2764 
983 127 200 227 325 1429 2528 61 23 
1536 362 618 2705 658 1043 575 2523 2999 
1711 910 819 417 572 373 524 828 592 
862 970 160 1195 60 1621 530 1564 399 
2511 1961 1093 1060 810 466 1376 66 1053 
773 30 684 1706 2444 1715 252 316 493 
1625 902 2101 2894 1307 537 3471 589 1546 
1846 117 1890 468 38 1741 1031 1691 2867 
622 292 918 542 2347 2019 3269 1883 2479 
720 1668 2122 3418 4124 3098 4590 1311 1401 
1419 869 32 170 1269 88 421 499 1449 
1078 1197 1336 550 1776 7 1044 517 1135 
265 179 297 979 14 1139 498 320 152 
1055 425 1231 804 670 632 69 2213 1280 
1379 2074 2378 382 835 339 568 685 1652 
2394 735 662 2775 248 870 80 660 973 
2001 2460 4746 3938 215 3416 4362 4074 710 
5217 4087 2740 525 126 2418 3923 1713 2292 
549 1628 474 647 1039 1071 1115 976 1790 
278 56 646 1022 427 1172 1090 1523 926 
649 991 349 752 749 1097 1252 1342 716 
648 307 547 393 989 1191 778 1290 786 
351 276 588 1141 1203 839 1583 955 304 
449 784 727 411 848 176 1406 363 1841 
992 2547 201 85 2752 708 284 3077 291 
732 35 118 694 303 3534 2232 1148 706 
268 247 1318 435 3 1145 143 774 679 
985 1962 1333 3212 1152 984 2663 2366 2263 
3110 1757 2104 397 434 1421 1562 906 2883 
1358 707 883 635 262 1134 829 1085 103 
263 808 1258 380 1156 759 793 1626 1430 
1023 1276 944 25 919 2439 1219 148 112 
1067 1381 526 1368 1001 782 1761 464 161 
780 911 460 1151 1270 1274 921 1061 398 
640 962 1781 219 1897 2055 860 2102 968 
515 2580 801 94 492 1198 1555 945 416 
1189 111 894 1194 296 2322 3914 2785 2930 
73 371 1472 1123 2542 2626 1853 2585 1630 
3549 1354 917 747 2339 1088 2329 1914 1570 
916 2863 1462 2452 1606 1611 1859 2113 1243 
45 236 17 1458 1727 1340 206 2060 1334 
1288 366 96 671 1234 168 1444 1590 769 
450 1412 673 1266 327 982 1357 535 1337 
1058 803 1665 650 974 555 1824 1380 831 
830 607 469 182 818 995 949 1036 1057 
1714 116 1155 138 256 445 602 11 821 
925 1281 1253 125 616 677 548 83 669 
827 675 1292 1213 630 614 91 324 1092 
581 261 1968 577 3027 1867 432 1802 520 
1512 629 737 216 2438 2550 1184 477 18 
654 313 576 81 1539 2148 2261 1013 2328 
1667 893 1944 1424 2071 2264 3600 1052 1614 
3662 162 353 1223 952 1300 900 963 1598 
1605 590 1002 196 721 310 567 1175 451 
764 591 731 815 836 283 1494 1573 163 
610 892 605 779 269 465 1634 975 376 
65 873 724 4 188 1208 1143 345 202 
285 41 1453 1205 951 1321 222 847 1286 
346 97 699 1257 70 8 783 277 187 
999 169 1362 1403 1032 1548 734 1629 1651 
1585 698 1200 210 1891 1466 964 1600 1550 
309 1828 1065 1584 302 1221 374 1129 1955 
1607 1874 1767 426 628 656 583 1215 680 
1037 896 1887 1528 92 1218 1267 1400 1645 
2591 1850 1798 2391 43 311 1480 1385 442 
2296 1158 514 430 1427 715 1643 326 587 
705 763 1541 360 177 534 37 714 697 
689 695 487 419 1165 359 1169 553 488 
1054 391 1459 882 381 785 613 541 908 
653 1073 585 271 213 703 423 1214 1804 
936 775 33 447 99 1404 1766 480 395 
198 981 1284 627 2532 641 1322 1056 726 
1046 1259 612 173 1027 1832 1730 2236 881 
1352 1015 1228 1886 209 403 459 78 241 
1305 1698 687 242 3068 2249 2655 3023 2258 
1531 2266 1831 2095 2341 1913 950 1923 2583 
2190 2400 701 456 2262 1527 559 67 3431 
1556 516 1398 1126 2197 1654 634 907 347 
1185 328 21 144 1653 1271 1888 1048 915 
1359 539 1700 845 106 914 501 340 1149 
372 147 1316 489 1117 1438 1159 1332 1532 
332 191 154 124 814 1671 1797 596 1029 
980 2426 1499 598 1511 1182 463 2274 2911 
2280 1446 2334 338 2857 1632 1568 2897 1236 
2654 2768 3753 1631 2136 1637 3045 2905 26 
1612 993 2501 540 1724 1689 2454 2852 1805 
2751 1034 133 676 121 1188 2235 2345 2404 
1378 431 461 231 1510 1817 1167 319 924 
1916 439 681 1103 1099 933 1186 2241 1388 
2073 1481 1581 688 959 2574 1957 2862 1516 
557 1075 2879 2551 2631 323 1862 2153 1738 
2776 1819 1192 1638 2100 3689 1107 2915 2534 
2961 551 2793 2217 4191 4154 4280 2521 3851 
3243 496 1855 1901 181 267 2555 1958 1687 
2579 2517 4810 1024 2116 412 258 357 663 
31 863 1679 254 895 478 903 387 756 
194 2161 809 1490 1514 2519 4264 766 1747 
729 826 279 1538 3396 1005 298 1969 295 
1226 2830 2411 1497 2315 2210 1693 2475 9 
3099 1414 1168 3218 3058 672 2629 476 433 
343 2081 4227 3436 742 3595 2709 2633 2393 
2324 3432 3466 3101 2290 3993 4032 4035 1906 
1791 1146 1136 2256 1520 3762 2064 1662 853 
1010 620 1162 1069 961 1028 15 2151 546 
229 1118 175 1077 2515 1749 806 2403 1818 
674 1325 1017 1390 446 1762 2182 2996 1306 
189 611 2111 797 874 636 2940 1907 2635 
2731 1970 4105 2955 2844 1922 315 1733 172 
429 294 767 998 978 1990 2206 2677 1371 
2684 1277 1393 101 2049 2451 2353 3856 2809 
234 2513 2192 969 3953 2380 2457 3363 3941 
3902 3458 3724 2856 2586 135 2850 4073 3208 
3827 3968 3730 5236 3839 4569 2920 3453 4232 
4768 4718 4942 3668 4740 5760 5124 4365 500 
1345 2327 1261 850 1456 358 1492 1294 711 
960 948 543 1926 1827 1947 1181 570 897 
1193 584 1204 1245 1004 2346 1748 1971 1735 
1238 1899 3137 2070 2614 3011 2848 802 2502 
2681 2627 2085 3227 3439 3861 2065 2992 3492 
1775 1787 3315 3741 4831 3655 3465 3834 4777 
3397 4605 5194 4122 4202 3935 4985 4556 4930 
4080 5363 5181 4649 4602 5049 5691 5846 4434 
5265 4284 3933 738 4026 3455 4982 3216 2097 
1240 2387 930 1445 691 2094 2000 608 1588 
2478 336 2477 2173 2428 2491 1163 1235 1254 
2028 1366 1810 1409 1383 2340 1911 965 1586 
1244 761 1387 300 2272 1086 2003 6 1994 
929 1283 448 1699 2086 753 2214 3105 1483 
1594 2291 2648 1166 1678 2247 2323 2123 3073 
1788 3663 2892 3508 772 2773 3493 3770 5345 
3372 5858 3964 2487 2997 4263 3982 2969 4598 
4430 4530 4518 3841 3379 4088 3059 3710 5384 
3688 4638 5043 4496 2008 3702 3313 3576 473 
3387 4353 5663 3913 3075 3039 3421 4000 1934 
2059 2432 3353 2338 2490 2510 885 1641 1021 
2459 2023 2423 1770 2512 1872 1694 2363 369 
1953 1616 972 1161 2050 1559 1927 167 1068 
891 898 193 1476 1133 595 2259 1375 2056 
1435 1981 566 1537 1936 2298 2504 1635 2540 
1338 1003 1979 1894 1842 1408 1580 1543 696 
2194 2783 2125 2449 2741 1517 3003 2010 3577 
3965 2494 3727 1639 3591 4285 3147 3213 3729 
4083 2694 1995 3611 1915 3618 3732 2147 190 
3230 3666 4355 2711 2602 2135 4405 3032 3414 
3311 3443 3872 3006 2020 2746 1837 1707 2222 
3984 2569 3324 1659 3479 2389 1768 2687 1959 
2118 1722 2990 3305 3446 3588 1505 1450 3005 
2606 2015 1551 1703 2099 1448 833 1348 1734 
486 1051 1620 505 1273 1202 1147 503 84 
623 95 2083 1335 1822 624 693 1125 533 
495 1974 750 1319 1549 237 1355 378 1485 
1823 931 2058 212 977 240 1153 454 1035 
458 1425 712 884 150 509 1895 2230 1137 
1720 1692 861 1928 820 1170 3033 1298 604 
1685 2747 1688 2506 2640 1633 2703 2953 2587 
3580 2080 3295 2770 3035 3219 2912 876 2108 
3807 3381 3373 4478 1939 2612 1331 2623 2358 
3102 3013 3335 2310 2453 3957 3201 2105 2900 
3093 2385 2691 2974 1782 3393 3915 3153 3246 
2265 1578 2696 3020 2977 651 1422 1124 87 
800 1795 1122 1391 225 1524 462 722 1250 
1942 556 1150 436 322 877 1040 807 1264 
355 1278 90 197 475 1683 119 760 115 
260 686 1233 317 777 1084 290 141 744 
272 407 642 1997 293 1242 1312 224 1405 
733 723 1443 58 1935 428 1506 2025 2355 
1838 2174 102 2531 1871 1655 2480 1670 1434 
1909 2503 3192 2959 1686 3297 1751 2982 2245 
1347 2114 1154 2603 639 1437 2843 3459 2998 
1816 55 1225 2577 3189 3089 2748 3210 2302 
2965 2686 3406 3546 3162 1420 2807 2924 2987 
3209 3177 3501 2928 2052 3240 3434 1603 2032 
2273 273 1432 1723 1395 1012 2006 1729 1858 
318 1577 1898 137 246 817 506 1484 1952 
1310 1229 832 668 159 457 424 199 901 
1796 1014 946 120 16 422 409 856 544 
880 5 205 617 180 1217 846 1059 389 
334 186 289 510 255 875 1224 787 939 
2219 2051 1230 1813 2643 947 1592 1503 39 
3012 1596 1289 1315 1374 1949 904 1799 2156 
3136 2202 2666 3103 2227 2896 1885 1563 1905 
1098 1063 1474 1721 986 2750 3399 2642 3087 
2447 3340 3444 4341 2242 3262 2781 1803 2983 
3540 3806 3165 3433 1843 3094 2821 482 3398 
3173 3041 3400 2465 1329 2373 110 1835 655 
593 386 792 2798 631 2144 1389 342 1530 
1719 2484 1478 1783 1554 923 2795 922 1519 
1237 834 1106 615 259 1567 414 1328 1868 
443 1050 799 776 1119 928 1314 1033 1327 
1455 1187 1854 1081 1500 2518 24 1464 2384 
1100 3215 2440 1669 1114 4205 569 2304 2343 
3413 2653 2488 2805 4837 2861 2754 3758 3726 
2392 2739 4139 3529 4668 3681 2560 2420 3022 
2013 2129 3185 3427 2944 3661 2895 2789 2462 
3815 3514 3322 3775 5185 4184 2311 2545 3868 
1932 2814 4334 3304 4549 518 1991 2120 1941 
4135 2306 3843 3581 3675 2941 1260 2294 3095 
2395 1904 2535 2826 2985 2570 3430 1173 2619 
2497 2441 823 3117 3256 1933 2221 2455 2177 
2526 2048 889 2544 2354 3909 233 2572 3163 
2238 1821 3106 3755 1487 2656 4070 4065 2849 
4346 2436 4452 4403 2960 4377 5135 5110 4872 
5090 4883 3040 2600 3793 4909 4592 4159 5040 
3900 3855 3010 2875 2257 3857 2352 2593 3107 
2676 2797 3719 4635 1851 1673 2117 2103 2708 
3809 2962 4158 4190 3512 4164 2799 4268 2622 
3038 4995 4082 3779 2972 2527 1299 521 2299 
1718 3614 2980 2142 3929 3206 3597 3816 4001 
3625 1896 2364 2424 2530 2546 2588 2396 3590 
3563 2067 2220 3757 3822 3389 3859 4482 2975 
2646 3488 4252 4020 4711 4459 3166 5726 3321 
4138 3245 4188 5200 4867 5495 3988 3585 4616 
4678 3805 3288 3367 1047 2794 1399 3463 1535 
1121 3517 2788 1807 2289 3405 2589 2825 1627 
2077 2499 4360 3356 2869 2665 3409 1579 2283 
3028 3615 3491 2514 2695 3316 3747 3647 2549 
4391 2325 536 2737 3052 413 1317 3226 4865 
3967 3310 3364 3082 3408 1750 3420 3126 3017 
3368 3530 2543 42 1801 1360 2605 114 2134 
2891 2096 871 3509 2495 3132 3475 2698 2846 
3374 3773 3767 1998 3975 4133 3129 3124 2216 
2749 2639 4303 3449 2787 4017 3464 3883 3223 
5804 5515 3653 4272 4466 4544 4006 3347 5406 
4060 3882 3869 3949 4447 5808 4853 4128 5504 
5645 4388 4600 4371 4174 4249 1482 2149 1739 
2175 2237 971 700 1647 2036 1840 1869 2277 
1924 2336 2971 2538 2435 2617 1479 2069 1367 
1498 1705 1695 4237 2112 3733 2772 2791 2811 
2596 2882 3424 1870 4663 2823 4063 3122 3769 
3009 3361 3920 3141 1664 4179 4187 2303 4700 
4229 4846 5833 3699 5163 4469 5282 4956 3804 
6045 3961 5106 3723 5557 6007 5500 5483 4304 
5536 4892 5684 5451 5297 5224 5346 3791 5097 
4267 5420 6043 6012 6059 6037 5134 3586 2212 
3336 2481 657 2297 1716 2877 1624 1574 3520 
1809 3607 2658 481 2248 2127 2038 1160 2716 
1873 1447 2093 1996 2847 1839 1963 1929 1489 
1931 1676 2309 1772 2332 2119 2320 2039 3684 
1811 625 1111 2254 2859 4918 3116 3016 3079 
3555 3351 3337 4029 3349 741 5446 3516 4540 
3772 5723 3867 4131 5840 5128 5235 5290 4290 
4874 4747 4800 4646 5206 5205 5775 3403 5935 
5498 5105 5913 4689 5705 4888 4712 4703 4682 
4741 5348 5304 3714 5936 4308 5943 5238 1650 
4737 5514 3939 2410 2611 4046 2469 3048 3254 
4005 3251 1945 1710 2062 3066 3229 3231 3473 
2620 2233 1356 2018 4374 586 3100 1876 2106 
491 1786 1104 2417 1984 838 192 1696 1604 
1486 2004 1384 2482 757 2072 2196 2407 2207 
1834 2176 1657 2382 2651 2414 3280 1701 2682 
2409 1660 3506 2496 2362 3225 765 2260 4384 
1113 3026 3564 4260 3270 3392 3994 3781 3346 
3217 3538 4003 4219 4243 4367 4292 5317 3672 
4461 4257 4211 3828 5513 5412 5261 5223 4457 
3826 4493 3160 4511 5014 5281 5962 5915 5716 
5423 4095 5586 5188 4935 4101 4782 5680 3954 
4610 4357 3069 5665 2738 3184 4002 4254 3641 
3542 2870 4940 3128 3745 3659 3065 2181 2446 
2881 2561 3257 3083 1239 4498 4089 1878 1082 
771 692 36 2226 1364 1892 644 1116 151 
1468 10 511 1326 2082 1080 1575 218 1900 
1836 1470 1780 1190 406 1940 2948 228 249 
1992 1875 943 2087 361 287 2198 1431 1663 
1547 1826 1251 1656 1062 1977 1256 2115 1128 
2128 2672 3620 4021 3860 1967 1313 2461 1759 
2609 4350 2189 1382 2927 3486 3550 2951 3084 
3019 3375 2800 3057 5864 3454 4212 5478 5131 
3948 4389 3709 2536 4013 4376 4309 4828 4412 
5700 4248 3544 4608 2356 3366 3837 4507 3685 
3583 3999 5053 3627 3169 2744 2442 2932 2945 
3157 3613 3858 2865 1908 2002 1496 2317 1179 
2139 2141 1769 3062 2040 2215 1728 1529 108 
739 1064 356 736 571 1006 813 1248 1582 
1295 1330 1087 1920 872 1617 239 1760 1674 
794 2034 1597 573 131 1591 1386 866 1771 
1297 1363 1212 1353 1697 2376 113 485 72 
1753 1241 2089 2284 2166 2767 2054 3342 2431 
2250 1972 1845 3606 3478 2419 3784 2107 1041 
2688 2943 2337 3548 4454 3359 2732 3777 4240 
3682 4382 3260 4784 3362 2933 2837 4192 3599 
3511 4418 3410 3652 3579 4999 4473 3667 4717 
3707 3895 3248 2993 2076 3276 2610 5386 3193 
2057 2756 1018 1460 1877 2164 2833 2295 2701 
1413 68 1595 2035 1545 643 1569 967 1130 
335 1599 1812 1007 140 621 1752 1220 790 
562 1291 157 243 74 1344 52 1112 321 
494 527 913 79 2016 1613 89 77 1469 
1275 554 1943 1089 1377 746 158 1825 1755 
22 878 1418 1096 1983 1978 2369 1296 3472 
1708 2312 2813 2162 1566 3852 1411 2910 1249 
3494 2958 3220 4055 2365 2379 3296 1461 563 
2130 2613 2860 1571 2251 3388 3829 1587 2796 
4555 3910 4603 4251 3146 4907 5207 3934 2729 
3450 3279 2760 4655 4270 3897 4152 5549 3696 
3037 3334 4613 4351 4701 2766 2516 5066 3721 
4844 4379 4961 4354 1076 1518 1814 1973 3489 
1618 2090 3885 3958 770 854 2126 1127 888 
2641 2053 2991 3811 2657 1265 1407 1852 1951 
264 816 2152 2509 1351 954 1303 1475 3031 
941 1602 1083 2725 1176 2903 2063 2817 1442 
743 226 1985 1702 2370 2163 2842 1754 3649 
2406 2753 3570 4239 4842 2650 3323 4745 2229 
3238 4298 3798 5050 4114 3518 2780 4276 2184 
1394 4707 3481 2505 2835 4277 3594 4933 4293 
4526 4352 3679 3898 5780 5543 5766 5447 4453 
5575 4098 4698 2727 4798 4077 5881 4200 5082 
4126 2868 3442 4738 2995 3678 3036 4584 4169 
5721 4693 3619 2467 2828 2218 3339 4520 3168 
3646 3705 5099 3070 2690 3457 3526 2634 4113 
4395 1844 1615 2027 2707 2500 2140 2952 2904 
3916 2923 3239 4650 3232 3476 5476 4964 4314 
2692 3452 4094 2568 4932 3317 4920 5566 5084 
5991 4857 4789 4685 3677 5007 5560 5524 4692 
5487 4901 4714 5380 3071 4004 4630 6063 4634 
4317 5819 3383 4748 4965 5758 3290 4474 5473 
5615 4765 5139 5720 5234 4583 4115 4108 4664 
4617 5296 4504 4651 4034 4394 3904 2720 4043 
3810 5231 3584 5096 4953 4198 3749 5126 3505 
3002 3780 4348 1964 4100 2854 4069 2820 4119 
4181 2592 4045 2618 4882 3510 4390 2978 5431 
4606 3704 3951 4543 5537 5764 5226 5259 4438 
5600 5218 3996 4791 4197 4881 5577 2888 5664 
2950 5155 4536 5815 5583 4815 6006 5541 5422 
4885 4258 4948 5074 3411 3919 1308 3551 5180 
4019 2193 2726 5868 5331 4381 2884 5982 4690 
5621 3963 5419 3651 3889 4245 5184 4176 4345 
2699 2463 3908 4057 4926 3566 5742 4591 3665 
4392 3536 4571 3186 3291 4335 4671 4012 4573 
4224 3950 3369 3545 3980 5150 3327 5989 5009 
4699 5460 5542 4477 3552 1451 2644 1365 2458 
497 3794 3451 3329 1743 4500 4022 3138 4400 
4033 5178 6058 3308 4756 2782 5366 6017 4582 
5957 3844 5292 5539 5409 4153 4683 4464 3947 
3415 5202 5368 3849 4562 4484 3285 5706 4086 
5695 6040 3531 5314 3825 5929 3892 5402 5302 
5298 3922 4761 5739 2427 5358 5318 4297 2412 
1849 3893 2556 2567 4440 2967 2598 3195 2721 
3154 1917 4704 4052 3944 2485 4025 3412 4143 
4271 5256 4111 3708 5039 5522 4847 2520 5736 
5388 4890 4167 5219 5048 5964 4989 5849 5026 
4943 5795 5421 3521 3578 4427 4709 6001 5673 
5811 4604 4140 5521 3558 5875 5794 6029 5424 
3021 4762 5059 5052 6053 5372 5573 6048 2984 
5260 6027 5529 5904 5229 5227 4456 4463 2963 
1800 3025 3085 2200 2145 2680 2558 2700 2906 
3407 2994 2578 3358 2647 1675 1881 3778 4241 
2667 3401 3983 2818 2652 2604 2075 2925 3524 
2831 2871 2763 3673 3130 2282 3634 3029 3191 
2668 4036 2079 3621 3907 3927 5341 4437 3748 
4527 4378 5035 4383 2443 2874 3277 5805 4657 
4659 5909 3426 5867 4595 4433 5199 3114 5682 
3785 3738 5127 4553 5390 3587 5170 6032 4928 
3731 5426 3030 5220 5266 2916 5303 5948 5299 
5081 5718 5728 5711 5639 4509 4719 4465 4534 
5255 4954 4439 5759 4744 4322 6010 5672 5949 
6016 2552 3293 4178 2762 4053 3905 2335 3309 
2228 1658 3265 3462 2801 2836 3272 2936 4125 
3139 1866 1746 2745 2171 1893 1222 2372 2377 
2399 2470 1880 2321 2743 2421 1346 1110 1623 
3224 2779 2792 2466 1889 1808 2061 2168 1209 
2594 3202 3532 3987 953 3422 2489 3196 3717 
2413 2939 2638 1042 2815 3461 3435 4302 4625 
3306 4984 4499 2014 2872 5767 5065 5997 4189 
3203 3268 5531 5826 2649 4220 4826 2301 5340 
4910 3692 5701 5740 5848 3932 5278 4674 4123 
5481 4214 5325 5553 5322 3737 5526 4821 6068 
3617 3635 3838 3992 4559 4946 4246 4618 4691 
3680 3151 2761 3977 3636 3470 4804 4708 4062 
2966 899 2616 990 1349 2724 1513 2899 1784 
2851 1902 2554 1815 905 966 1144 1789 2137 
2005 2098 2240 1950 2042 1247 1636 2351 2344 
2188 1109 2017 1477 1966 2624 1557 1589 1025 
2158 1912 1488 2033 3553 2689 1704 1473 2146 
2170 956 1982 4903 3846 1183 5069 2429 4796 
2330 5489 3390 4102 1501 2450 1285 4358 2949 
1758 4446 4147 4359 3236 3629 6065 5085 3131 
3081 5730 4567 5710 5080 4196 5484 4279 3873 
4347 4372 4130 3911 5908 5166 4155 4854 4658 
4091 3698 4528 4922 4753 4064 4696 3743 3292 
4558 3573 4731 3111 3234 2388 2314 2143 996 
2548 1921 2898 1680 1986 1690 1227 1142 1495 
2209 788 1609 796 2375 1764 745 1533 1649 
1736 1350 2110 1672 719 2246 2068 155 2599 
1467 1207 920 1210 1493 1396 1309 2253 1020 
1847 1544 702 1756 855 994 1540 1712 579 
1079 709 1777 1794 1773 2157 768 2276 2397 
2316 2664 4107 2582 1507 3764 2786 3330 1848 
3055 2437 2822 4166 3572 3669 5681 4320 4924 
4539 5474 3204 3874 3706 2350 5637 5993 5269 
4519 5725 3768 5018 5559 4593 4755 4566 3622 
5264 6002 3495 5060 3891 4492 4142 1361 3142 
3318 1268 1102 3123 4316 3357 3468 2349 3350 
4261 1008 1279 1293 2661 2204 1324 1370 3278 
1504 1201 1552 183 174 2084 1463 2348 331 
599 1255 1410 1105 12 1263 2313 1993 195 
2045 1441 1026 718 1030 2525 504 470 1980 
594 2553 2030 3593 2866 2755 2456 2964 2415 
3650 3567 4448 4078 2968 3161 3632 4436 5315 
4722 2486 1946 3127 3744 3782 3394 2954 3469 
5370 4014 3448 5809 5343 5310 4145 4962 5562 
5222 5671 4076 5786 4662 5777 5973 4533 5847 
3258 5373 4877 2986 2973 4955 2902 2305 5636 
3847 3474 5963 1454 3145 2133 4327 3156 2889 
2124 3061 2840 2021 1199 3197 2816 4490 3190 
2360 3135 1120 3143 1402 1522 232 1343 2359 
2541 1049 2929 2832 704 3537 1508 2679 1019 
1415 1987 2275 3700 2374 1830 4343 2342 3263 
2031 2279 2901 3817 4385 4204 3644 4727 2908 
3282 4081 4913 4824 5027 2615 4515 4597 4306 
4517 5968 3064 3328 4370 5070 5300 4450 4679 
2719 2758 1610 3765 3626 4807 4512 1884 3289 
4432 5056 6031 5984 5602 4937 5201 5693 5280 
5986 5119 5890 5855 4213 3460 4030 5525 4969 
4294 4971 4724 4915 4508 5418 4793 2765 4852 
3266 4118 4673 4429 4396 4157 690 3976 2660 
1682 3480 4230 3865 4435 3686 2957 3376 4117 
4661 4387 4772 2713 3946 4916 4445 6062 4072 
4715 3903 4895 5270 5965 4783 4816 4269 5006 
3503 5658 5083 5162 4622 5465 5878 4680 4851 
4876 4599 4781 5251 5075 4725 5004 4375 4632 
4244 5471 5713 5394 3880 5116 4921 5375 5550 
5485 5814 5342 5173 5862 4529 5743 4629 5969 
4535 5812 5032 4503 5321 5897 4878 5916 4199 