# vtk DataFile Version 4.2
Generated by LIGGGHTS
ASCII
DATASET POLYDATA
POINTS 6000 float
0.00479886 -0.04227 0.00942273 0.0253424 -0.0363809 0.00942003 -0.0249619 -0.0373867 0.0131813 
-0.0222162 -0.038841 0.0157979 -0.0146462 -0.0381702 0.0133718 -0.018847 -0.0407424 0.0132589 
-0.0134648 -0.0426661 0.0116115 -0.0152946 -0.0421235 0.0152719 -0.0187694 -0.0390959 0.0179904 
-0.012777 -0.0394287 0.016861 -0.00566166 -0.0432305 0.012523 -0.00975069 -0.0438717 0.013787 
-0.00919548 -0.0393131 0.0146218 -0.00542366 -0.0406032 0.0157425 -0.0119439 -0.0433514 0.0176592 
-0.00688504 -0.044465 0.0165198 -0.00204753 -0.04048 0.0130212 -0.0021233 -0.0445243 0.0107223 
0.000843049 -0.0377766 0.0118811 0.0015578 -0.0438453 0.0123423 -0.00280605 -0.0448271 0.0155299 
-0.00366903 -0.037646 0.0178818 -0.00117129 -0.0416353 0.0180951 0.00180177 -0.0448947 0.0167479 
0.00471771 -0.0381183 0.0129668 0.00853343 -0.043277 0.0116934 0.00750044 -0.0406874 0.0147336 
0.00546747 -0.0442771 0.0144356 0.0105188 -0.0432895 0.0152427 0.0122821 -0.038975 0.0150411 
0.00992393 -0.0400157 0.0181215 0.0134369 -0.0420736 0.0127215 0.0178605 -0.0412208 0.0123064 
0.0157934 -0.0420675 0.0162223 0.0202799 -0.0394158 0.0164758 0.0222044 -0.0390366 0.0110208 
0.023645 -0.0377287 0.01478 -0.0298489 -0.0336184 0.0133801 -0.0326065 -0.0306786 0.013887 
-0.0342969 -0.0290277 0.0171313 -0.0316495 -0.031964 0.0178256 -0.0285583 -0.0298374 0.0127094 
-0.0236583 -0.0299589 0.0128747 -0.0258895 -0.0334881 0.01262 -0.0213004 -0.0331603 0.0119035 
-0.0274718 -0.0356342 0.0159638 -0.0235746 -0.0345503 0.0157808 -0.0277812 -0.0317079 0.0167262 
-0.0240541 -0.0302434 0.0170789 -0.0185254 -0.0366735 0.0135118 -0.018311 -0.0305643 0.0125601 
-0.0154126 -0.0334222 0.012957 -0.0147926 -0.0300962 0.0151776 -0.019499 -0.0334512 0.0159654 
-0.0160768 -0.0354706 0.0165031 -0.0124834 -0.0327276 0.0174666 -0.0113947 -0.0356321 0.013412 
-0.00747846 -0.0325895 0.0136491 -0.0113927 -0.0315992 0.0135662 -0.00649151 -0.0361175 0.0154912 
-0.00677463 -0.0291601 0.0158969 -0.0100939 -0.036218 0.017268 -0.00845557 -0.0324986 0.0178397 
-0.00440894 -0.0326697 0.017519 -0.00317448 -0.0354853 0.013165 -0.00357086 -0.0311951 0.013783 
3.96579e-05 -0.0299599 0.0119521 -0.00031263 -0.0331077 0.0150986 0.00344793 -0.0338963 0.0139029 
0.00344622 -0.0297546 0.014175 -0.00109148 -0.0295184 0.0167601 0.00268062 -0.0320882 0.0175549 
0.00980638 -0.0364612 0.0118237 0.0069568 -0.0318768 0.0122985 0.0110781 -0.0322176 0.0121262 
0.00844558 -0.0347242 0.0152224 0.00886188 -0.0302702 0.0156361 0.014711 -0.0361813 0.0128119 
0.01553 -0.0288106 0.0113653 0.0185197 -0.0363516 0.0102987 0.016601 -0.0327789 0.0137831 
0.0190186 -0.0360683 0.0143773 0.0141106 -0.0296242 0.0150491 0.0127288 -0.0345729 0.0159491 
0.0190579 -0.029899 0.0159319 0.0163463 -0.034054 0.0176265 0.0250355 -0.0318156 0.0114873 
0.0208655 -0.0328082 0.0111859 0.027782 -0.0347177 0.0124027 0.023683 -0.0336648 0.0150192 
0.0265087 -0.0307441 0.0158269 0.0269702 -0.0357776 0.0163506 0.0212375 -0.0346437 0.0181209 
0.0336405 -0.0293906 0.00975386 0.0307383 -0.0322479 0.0106762 0.0304453 -0.0288283 0.0137216 
0.0302806 -0.0331944 0.0161843 0.0333803 -0.0301327 0.0161148 -0.0399768 -0.0205617 0.0135727 
-0.0380148 -0.0240299 0.0139858 -0.0392412 -0.0219544 0.0172606 -0.0353875 -0.0277756 0.0134733 
-0.031426 -0.0269399 0.012719 -0.0310425 -0.0213911 0.012947 -0.0341326 -0.0240066 0.0129793 
-0.0317136 -0.0244713 0.0161505 -0.0303566 -0.0284609 0.0163421 -0.036756 -0.0258767 0.0173045 
-0.0350736 -0.0223176 0.0164866 -0.0207959 -0.0286165 0.0153947 -0.0282816 -0.0244414 0.0134091 
-0.0227127 -0.0259275 0.0129834 -0.0245453 -0.0227446 0.0149009 -0.0261192 -0.0274493 0.015053 
-0.028154 -0.021253 0.0158257 -0.0231458 -0.0257139 0.017288 -0.0279712 -0.0248785 0.0175198 
-0.0221241 -0.0217682 0.0179598 -0.0181467 -0.0260327 0.0138399 -0.016391 -0.0223277 0.01368 
-0.0142492 -0.0267732 0.0129892 -0.0203376 -0.0225133 0.0144507 -0.0174451 -0.0282261 0.017544 
-0.0155424 -0.0244256 0.0169963 -0.0177736 -0.0211174 0.0173661 -0.0193702 -0.0246784 0.0182477 
-0.00960835 -0.0276551 0.0127198 -0.00882657 -0.021946 0.0117329 -0.0124456 -0.0209715 0.0131829 
-0.0113473 -0.0246365 0.0149009 -0.00667009 -0.0240177 0.0146228 -0.0108305 -0.0286348 0.0164791 
-0.00997987 -0.0205724 0.0163849 -0.00886672 -0.0250598 0.0180146 -0.00638157 -0.0211066 0.0180774 
-0.00289109 -0.0271853 0.0128107 -0.00378462 -0.0218236 0.0118871 0.000303055 -0.0228939 0.0123154 
0.00281235 -0.026482 0.0114543 0.00350161 -0.0239675 0.0148154 -8.532e-05 -0.0257425 0.0154585 
-0.00274841 -0.0222747 0.0158665 0.00222119 -0.0276144 0.0181784 -0.00392429 -0.0262328 0.0166323 
0.00132716 -0.0223875 0.0179787 0.0109594 -0.0281192 0.0120816 0.00690036 -0.0270533 0.0123522 
0.00558632 -0.0229098 0.011204 0.0105797 -0.0210142 0.0124398 0.00802218 -0.0240514 0.0147756 
0.00570178 -0.0270754 0.0161819 0.0100621 -0.0271314 0.0180609 0.00582659 -0.023263 0.0181607 
0.0121424 -0.0232975 0.0162725 0.0193712 -0.0278693 0.0123185 0.0146538 -0.0248306 0.0134203 
0.0187603 -0.0235668 0.012079 0.0146884 -0.0207753 0.0142887 0.0178381 -0.0249287 0.0159175 
0.0140927 -0.0265369 0.0177865 0.0155383 -0.0220954 0.0180173 0.0275154 -0.0278315 0.0101536 
0.0234652 -0.0275767 0.0109497 0.0253811 -0.0242581 0.0124065 0.0216007 -0.0215672 0.0142521 
0.0221916 -0.0258799 0.0144308 0.0285536 -0.0225448 0.0147071 0.0273673 -0.0265686 0.0152372 
0.0247353 -0.0232092 0.0162699 0.0242708 -0.0275171 0.0177879 0.031831 -0.0246771 0.0127203 
0.0342805 -0.0210889 0.0111228 0.035309 -0.0275932 0.0133685 0.0348917 -0.02293 0.0146709 
0.0322137 -0.02581 0.0165506 0.0322828 -0.0212073 0.0174309 0.0367432 -0.0258502 0.0166853 
0.0372318 -0.0250534 0.0109219 0.0394875 -0.021472 0.0115552 0.0389479 -0.0222066 0.0157855 
-0.0423628 -0.0134534 0.0141935 -0.0382038 -0.0170314 0.0127735 -0.0380788 -0.0133903 0.014458 
-0.0413752 -0.0172886 0.01556 -0.0425756 -0.014454 0.0181679 -0.0386393 -0.0154207 0.0180062 
-0.036059 -0.0204567 0.0127555 -0.0335403 -0.0173563 0.0132249 -0.0340268 -0.0134406 0.0141159 
-0.0293822 -0.0158922 0.0135795 -0.0370871 -0.0187296 0.0162726 -0.0324671 -0.0192679 0.0166017 
-0.0318072 -0.0151881 0.0169869 -0.0359374 -0.0123659 0.0176845 -0.0262467 -0.0184518 0.0136897 
-0.0222449 -0.019006 0.0135285 -0.0232372 -0.0147341 0.0128296 -0.0259013 -0.0149496 0.0158407 
-0.0241167 -0.0183463 0.0171228 -0.0285552 -0.0175559 0.017319 -0.0178138 -0.0185904 0.0140422 
-0.0141655 -0.017379 0.0126147 -0.0167941 -0.0135468 0.0128016 -0.0202588 -0.0151195 0.0156732 
-0.013402 -0.0141791 0.0153643 -0.0140292 -0.0195058 0.0166736 -0.016596 -0.0160831 0.0170103 
-0.00670139 -0.0192003 0.0138303 -0.00962463 -0.0128475 0.0125161 -0.006238 -0.0149196 0.0135559 
-0.0105706 -0.0170952 0.0144454 -0.00767734 -0.0172008 0.0172085 -0.00965742 -0.0133916 0.0166512 
0.00268453 -0.0193187 0.0119887 -0.00261318 -0.0171948 0.0117734 -0.00288829 -0.0126717 0.0135904 
0.0012038 -0.0131327 0.0139195 -0.00051791 -0.0189753 0.014697 -0.00378601 -0.0170782 0.0160251 
0.00332077 -0.0191092 0.01602 -0.00084882 -0.014515 0.0170907 0.00672325 -0.0201763 0.014001 
0.00564853 -0.0162012 0.0117163 0.00837901 -0.0125002 0.0117206 0.00883325 -0.0158831 0.0145204 
0.00489374 -0.0141967 0.0153613 0.0100109 -0.0195948 0.0164121 0.00675546 -0.0169705 0.0178517 
0.0131457 -0.0152754 0.0118499 0.0177888 -0.016619 0.0133472 0.0182763 -0.0199461 0.0159384 
0.0157346 -0.013838 0.0154562 0.013049 -0.0170804 0.0156379 0.0264842 -0.020063 0.0116259 
0.021981 -0.0173183 0.0123439 0.0258485 -0.016066 0.0118613 0.0276499 -0.0137367 0.0147241 
0.0227386 -0.012493 0.0152697 0.0255226 -0.0187744 0.0155475 0.0216385 -0.0175293 0.0163232 
0.0253238 -0.0150402 0.0178533 0.0314893 -0.0181037 0.0113747 0.0368728 -0.0181653 0.0123391 
0.0301122 -0.0135646 0.0114843 0.0341897 -0.0147503 0.0120209 0.0302698 -0.0183347 0.015474 
0.035427 -0.018462 0.0162754 0.0330309 -0.0145052 0.0163575 0.0410186 -0.0177828 0.01106 
0.0385091 -0.0145101 0.0123255 0.0425624 -0.0141298 0.0118031 0.0415271 -0.0170319 0.0150317 
0.0429451 -0.0132398 0.0157182 0.038279 -0.0153305 0.0169716 -0.0438928 -0.00974367 0.0137083 
-0.0427483 -0.00602382 0.0147322 -0.0385919 -0.00627829 0.0143994 -0.0400928 -0.0099596 0.0149388 
-0.0437236 -0.0105674 0.017961 -0.0445653 -0.00616489 0.0183187 -0.0303255 -0.0119977 0.013521 
-0.0355681 -0.00973456 0.0143364 -0.0323231 -0.00739362 0.0143523 -0.0350585 -0.00460136 0.0153697 
-0.0310863 -0.00408066 0.0162694 -0.0322003 -0.0109406 0.0171983 -0.0369882 -0.00846462 0.0179241 
-0.0297573 -0.00774445 0.0175003 -0.0256019 -0.0114669 0.0135554 -0.0282385 -0.00845213 0.0137648 
-0.0282395 -0.00412322 0.0134208 -0.0248686 -0.0062915 0.0139067 -0.0213631 -0.00413037 0.014432 
-0.022211 -0.00871437 0.0157007 -0.0281971 -0.0117359 0.0170339 -0.0258102 -0.0084957 0.0174852 
-0.0233986 -0.00530321 0.0177675 -0.0202532 -0.0115121 0.0135878 -0.0168755 -0.00915661 0.0143188 
-0.0174077 -0.0048155 0.0143356 -0.0137306 -0.0061446 0.0130993 -0.0129859 -0.0102085 0.0139227 
-0.0166079 -0.0119511 0.0172563 -0.0205093 -0.0116051 0.0181647 -0.0191809 -0.00694503 0.0176456 
-0.0152244 -0.00772602 0.0178262 -0.0127524 -0.0109283 0.0178833 -0.005987 -0.0116407 0.0160291 
-0.00930652 -0.00845858 0.0134901 -0.00990768 -0.00427546 0.0139219 -0.00595757 -0.00393405 0.0129321 
-0.00540025 -0.00764704 0.0146156 -0.00895059 -0.00966592 0.017928 -0.0115294 -0.00693428 0.0164478 
-0.00805085 -0.00524982 0.017496 -5.66059e-05 -0.00920152 0.0129769 -0.0025077 -0.00601802 0.0123023 
0.00102064 -0.00543503 0.0142047 0.00141109 -0.0106725 0.0172334 -0.00232272 -0.00961379 0.0162578 
-0.00308418 -0.00515925 0.0174065 0.000818398 -0.00627544 0.0181828 0.00425902 -0.0100742 0.0123985 
0.00867147 -0.00828248 0.0122007 0.00440494 -0.00589398 0.0119678 0.00791546 -0.00398836 0.0130837 
0.00823078 -0.011212 0.0155898 0.00529127 -0.00791712 0.0156733 0.00948355 -0.00684051 0.0161366 
[...]
POINT_DATA 6000
FIELD FieldData 7
id 1 6000 int
38 364 552 1053 244 902 316 30 842 
825 1 71 69 468 2537 252 117 452 
51 139 574 589 62 537 600 251 660 
135 720 20 835 123 291 870 35 471 
935 179 684 466 429 1139 441 517 1044 
979 172 773 415 755 784 632 989 498 
493 789 588 670 1301 622 365 804 519 
382 568 28 329 852 176 727 685 363 
230 339 522 284 732 215 435 3 118 
706 165 708 988 1148 257 274 1318 296 
437 1123 314 606 917 512 1354 528 1078 
1060 170 265 561 648 547 762 570 1093 
7 1055 1097 307 1157 145 1290 297 2109 
300 276 1001 839 393 507 304 778 148 
337 377 444 333 1151 1542 911 1583 464 
1061 780 109 80 398 235 848 1091 46 
1138 909 85 214 282 677 411 515 11 
392 111 402 440 455 247 894 581 178 
73 350 614 630 737 629 781 1092 396 
324 313 654 81 477 302 18 576 374 
421 1336 646 1449 1269 358 822 499 926 
749 752 1456 479 649 812 112 673 898 
1086 716 1436 185 184 919 1219 1626 1368 
607 1861 410 949 1319 1549 445 782 995 
725 138 116 821 1057 2 841 256 602 
1155 669 125 616 548 83 187 1038 91 
29 558 309 1403 734 1548 698 261 216 
964 308 520 1065 1466 34 432 401 1732 
886 210 638 56 278 427 75 529 991 
404 1452 713 221 1090 1071 1252 1156 1244 
380 803 535 982 891 793 693 1067 1101 
650 1171 526 2056 624 1058 533 1824 1714 
182 750 830 831 1823 1974 406 285 469 
345 212 931 240 119 161 951 818 346 
847 925 97 744 642 675 858 277 301 
987 783 699 1405 2025 1230 1404 1232 405 
70 33 1629 58 1032 379 8 1257 864 
238 645 1322 211 1372 1015 383 682 1930 
582 403 1228 1284 1561 128 474 262 1022 
1491 1072 103 957 349 721 808 1234 1412 
623 450 1131 759 327 974 564 1665 1380 
378 1684 555 1206 807 1485 813 1278 758 
633 1208 237 1453 686 249 872 1036 222 
141 1760 1084 217 1321 1286 290 1217 272 
224 213 565 1205 805 787 1804 1443 76 
627 198 1224 384 395 447 580 209 400 
545 997 19 241 434 45 171 168 1304 
236 1243 105 1216 153 196 310 1590 283 
43 366 1369 1002 1560 1524 731 1125 1494 
1266 436 1357 764 556 760 779 1634 65 
1264 877 355 317 475 98 777 5 1920 
794 188 1143 942 1233 260 908 354 653 
381 407 89 293 785 523 423 775 703 
271 1214 341 47 551 814 936 496 338 
480 598 208 206 1340 865 740 1287 538 
715 166 250 591 1066 326 836 306 1480 
567 1573 163 815 451 610 667 137 975 
376 605 122 197 90 368 322 508 269 
1006 140 856 16 724 41 115 202 409 
4 494 422 617 104 613 205 289 389 
390 82 846 164 99 180 659 154 59 
344 874 343 453 1471 665 433 124 149 
742 797 1272 1043 353 1426 887 916 1180 
1177 483 851 311 701 1070 937 1427 420 
442 1398 465 859 1654 578 892 587 559 
1150 532 280 487 457 1040 424 37 130 
253 359 714 419 1310 1229 286 106 391 
873 1459 372 488 1169 882 1094 553 340 
1339 489 585 53 1118 352 275 1117 541 
323 50 9 1107 61 129 92 795 456 
100 637 40 13 763 27 347 1185 144 
67 663 879 832 634 490 619 288 915 
231 798 177 513 1048 439 534 695 867 
890 689 1000 1465 834 501 298 620 914 
134 325 1306 175 295 1159 666 557 1390 
688 1564 133 603 418 357 258 254 809 
370 348 1164 1211 601 31 560 819 127 
828 862 160 60 200 57 142 681 592 
446 978 998 1733 63 114 66 2444 1706 
1360 2617 1393 1625 2101 2213 626 1379 1371 
1376 2206 802 3471 1546 292 1307 1031 735 
1890 542 2347 2867 270 204 791 1652 1775 
1741 1903 918 2394 1691 2479 973 248 281 
662 2460 1619 502 652 49 738 525 1197 
294 315 810 1827 1926 48 425 1971 2346 
1181 1245 2070 14 42 700 1204 767 1011 
1193 1203 1238 320 1990 1735 2435 1166 351 
1141 1699 1280 1715 1899 2502 772 955 460 
1406 1841 152 2074 223 2648 2773 201 640 
64 156 992 945 801 1781 2547 694 710 
303 371 2008 94 268 2232 774 985 747 
531 1145 143 679 1853 473 2329 1765 126 
1088 1333 500 1492 1261 1074 550 543 1135 
88 1387 850 1647 1776 1922 1004 584 761 
897 948 2003 6 1748 929 1191 1231 753 
1929 1994 1963 786 1283 1408 1381 1003 1270 
2086 1678 2214 2291 2540 219 1274 962 977 
449 1979 696 1580 1894 1440 1253 921 1198 
1338 861 2102 1194 827 492 1213 1292 3027 
1189 1298 1928 190 2953 577 1512 1802 1867 
1915 2550 2438 1184 1539 2148 1129 1472 1939 
2261 628 426 1013 2114 1294 869 1445 976 
1419 1401 1115 336 960 711 1523 1366 1383 
1342 1235 1810 2000 1163 1375 2272 2259 193 
1133 1068 1409 2038 2004 1761 167 448 25 
1489 1981 1537 1936 1604 2504 1839 1696 1834 
2439 2298 566 1635 1435 2407 2948 1701 1153 
1543 228 1281 884 1826 1977 2188 943 361 
712 458 1431 150 1720 1137 1967 1062 1663 
820 1170 723 169 1241 72 1935 1688 604 
1382 113 1968 1550 2587 1838 1871 1655 2355 
2531 1600 1730 1891 1955 1670 1767 1909 1828 
2245 609 1397 1221 1607 1584 1874 1885 1905 
32 1311 707 1421 691 678 330 263 1085 
1358 885 549 1476 944 1172 1276 84 972 
1134 1562 1161 1258 1616 2083 1486 1430 595 
1335 757 1384 586 1222 644 1815 2207 192 
1468 1080 1355 1326 1900 2482 2072 1470 1575 
454 2082 1875 2344 1950 1856 2058 218 287 
1477 1439 1656 1488 1425 1547 1997 1035 1242 
1685 131 1128 1777 855 1847 999 733 1506 
2174 2767 1363 1773 2166 1972 1585 2051 102 
2376 2480 2250 1434 1362 1027 1651 1200 612 
1503 2236 904 2156 1352 459 78 726 1631 
1886 1474 1305 1698 1063 397 136 1039 829 
647 2326 17 883 906 984 1713 369 1023 
505 1108 1147 1734 671 1444 1348 692 1273 
486 769 1822 1364 503 10 1346 491 1513 
1144 495 151 95 1337 511 905 966 1349 
1736 2042 1190 1087 2110 745 1341 1742 719 
2087 1247 2068 1780 1467 1025 1683 2246 1674 
1309 1756 2408 1622 1396 1591 1020 1771 1544 
709 1386 702 1697 428 1212 255 485 1096 
1353 2089 1794 2157 1418 1845 2532 2643 2219 
1377 947 1596 1296 2755 981 641 39 1592 
1056 1114 1374 1315 3012 1799 408 1766 1046 
664 938 26 1236 1637 1612 1832 1568 1563 
2420 1628 590 635 484 1709 1052 1570 1667 
748 1016 1223 1551 388 1620 840 952 1175 
96 771 1051 1116 1250 1496 36 1690 739 
1529 356 225 571 1728 736 796 2209 1248 
1295 1533 1142 1350 1330 1649 1617 1597 2034 
155 1207 1210 1493 1502 1712 866 573 1993 
1030 2313 920 1275 195 1079 1441 1312 1297 
510 158 1753 746 22 470 875 939 1081 
2343 24 1813 1755 2063 1825 1983 173 245 
980 463 2274 881 1446 1511 1289 2392 2304 
1045 44 1499 1576 1687 1901 1259 2013 2857 
1095 162 1424 1598 1462 900 2022 87 857 
1124 2328 1605 1578 1795 1850 1603 108 722 
1422 1158 472 1942 1400 2002 651 462 800 
1391 318 1484 1595 643 1064 1227 967 1582 
1812 1291 1752 243 335 527 239 790 79 
1112 331 74 1220 1613 1026 554 913 232 
12 1019 1059 334 186 1469 1314 77 1089 
1943 1455 1187 1100 443 1050 1073 1438 1029 
1532 1854 1464 1500 1669 1671 596 1797 1182 
2217 2704 2280 181 207 575 1632 2523 1910 
2659 849 1525 55 1645 2167 1648 680 1218 
1246 656 1215 1528 1385 893 1643 430 896 
1898 2296 273 2262 68 705 266 246 506 
1541 1577 1329 2190 1130 1007 2035 697 817 
199 668 386 621 1201 1599 1796 1344 1165 
901 854 157 1014 544 1199 321 120 946 
52 1265 414 1407 1083 880 1033 776 1303 
954 233 1327 928 332 1075 1536 1119 889 
2132 2100 362 1192 1414 618 1168 1693 1862 
1829 2911 438 1961 672 658 1738 1711 927 
146 993 687 811 132 299 863 1024 1817 
1864 540 385 412 1188 950 1378 516 328 
1167 518 1432 1835 1126 922 159 907 360 
21 924 1099 539 631 1952 1389 1271 923 
933 1054 1700 1478 1567 615 1359 279 342 
1530 147 1316 1237 1969 1149 1173 2528 959 
191 1162 1429 1332 1792 611 1762 536 636 
1516 2940 189 23 399 2475 1907 1320 676 
194 1490 121 387 461 1146 895 940 319 
86 367 417 756 983 1510 1916 910 826 
2256 1941 1103 572 524 853 373 845 1888 
1136 729 961 1226 1747 1069 1010 1047 15 
1077 227 1481 1299 1621 1581 970 1017 1195 
229 1005 413 674 530 1801 1451 2458 2605 
2096 2353 3475 871 101 2846 2451 1846 1277 
234 2677 969 2684 2192 2216 3861 3363 3374 
3122 3902 2380 2809 2513 2681 2457 3941 3124 
2856 3227 3953 3129 4272 2586 3492 3269 3397 
2122 1787 3315 3453 3382 843 1883 3298 3098 
1668 2920 3418 4074 1152 2810 3212 3008 1739 
971 2175 2556 1840 2277 1869 1924 2134 1479 
1695 2336 2971 2069 1705 2772 1498 2614 2891 
2495 2652 2894 2112 3011 3132 2791 2049 1594 
2627 1483 3137 1788 2848 3079 2992 2065 2378 
2123 2085 2323 3073 2892 3663 3439 2001 968 
2487 509 2969 3077 2752 3493 2850 2785 3534 
2580 2322 2418 1555 2740 2775 3914 1630 2542 
1962 3549 2626 2135 2746 2339 3006 2569 1659 
2327 1482 2173 2412 2149 1947 2237 2036 1624 
2716 2200 1849 3520 1676 1447 2309 1160 1873 
1367 2075 1881 2119 2538 2093 2847 1870 625 
2039 2596 2320 2332 2529 1811 2254 3105 1111 
1660 1842 2382 2496 2409 1889 2594 2413 2247 
1940 2010 2682 2055 1895 2125 2783 2494 741 
2741 1897 1517 2449 1639 3003 3564 3026 3213 
416 1692 2640 1995 2128 3033 2711 2506 3219 
3580 1633 2703 2930 2108 2585 2080 3618 2147 
2602 3295 3102 1347 2612 2020 1914 2358 1154 
2222 3013 1837 2310 1098 2623 2453 1345 1588 
2094 1809 1716 1574 2477 481 657 1254 965 
1790 1641 2491 2127 2478 2423 2877 2578 1996 
1586 838 1911 2248 2417 1675 1772 2372 3100 
2468 2557 1931 1880 2196 2321 2743 2414 1623 
2092 2466 2091 2564 1657 2176 2194 2651 2287 
1808 2061 3280 953 1992 2624 1109 2198 2362 
2033 1912 2260 765 2017 3346 1966 860 1113 
1982 1256 1759 2230 1251 2115 1183 2461 1313 
3392 2672 3035 2431 2609 2189 2450 2927 2054 
1686 2982 2770 2419 3478 2912 3084 3192 1041 
4478 1751 1331 639 2603 1461 2896 1437 3260 
2998 2732 563 2227 2750 1610 2613 2251 2933 
930 1240 608 2292 2023 1021 1934 2097 1770 
2387 2432 2297 2338 2028 2340 1694 1927 1559 
1786 2062 1356 1945 2106 2171 1876 1984 2399 
2377 2576 2470 2421 1863 2098 2779 1110 2240 
1785 2243 2834 2913 1836 2361 1636 2205 1860 
1565 2351 730 2239 2199 1608 1589 1557 2158 
1879 1417 1704 2187 2371 1473 2330 1640 2211 
768 1501 2575 2284 1507 2664 1558 3390 2786 
2951 3342 2456 2107 3472 3131 2162 3784 2437 
2503 3103 3297 2959 2958 1249 2365 3220 2486 
3829 1571 2184 3494 2130 1721 1884 1394 2860 
2796 2883 2636 1458 2060 1727 107 2263 2452 
1334 2459 2663 1757 1953 1872 1448 1450 2050 
1239 2606 2113 2745 2005 899 990 1104 2226 
2307 2554 1893 1658 1937 1601 1515 2137 1988 
1282 1677 1725 1857 1954 2041 2563 2573 2608 
2288 1919 1196 2319 2026 1726 2507 1302 2201 
2180 2224 2170 2632 1820 1793 2498 1740 2155 
1323 2416 1540 956 994 2448 1666 2146 2308 
2316 1975 2286 2949 1980 2397 3606 2088 1999 
2693 1566 2379 1708 2312 2369 2813 2406 1411 
3852 3296 2202 2861 3136 2910 2666 2229 4055 
3323 3570 3238 986 2560 3022 2129 4276 3481 
3681 2758 2780 2366 1606 1300 2265 2264 1859 
2105 2863 2389 1768 1959 1288 1122 2015 963 
1202 833 1892 1703 1789 1082 996 1179 2215 
2143 1680 1784 1569 1921 2375 1902 1495 1609 
2571 2024 751 2898 1865 1764 1763 1262 183 
2203 1392 1672 2043 1661 2183 1521 2471 2047 
2078 2252 1255 1918 1938 754 2390 1572 1956 
2630 2253 579 1140 683 2244 2742 2030 2276 
504 1745 2866 594 1830 1442 2553 2342 3693 
2855 1737 3593 1978 2653 1985 3413 2964 3282 
3604 2488 2768 1754 569 3758 2754 3529 3726 
1949 3649 4139 2654 3045 2905 3753 3185 2875 
2739 3857 2257 4810 1611 1614 1420 3201 1944 
2900 2071 2317 1037 3177 1908 2391 2932 2696 
2139 1729 1769 2164 2141 2040 2057 788 1504 
1268 1076 1361 1293 1008 2661 1102 2037 2012 
2029 1324 824 1370 1960 312 174 2084 2009 
2223 2160 2270 2599 599 93 1463 220 2718 
3200 1009 2525 718 1105 2333 1410 704 2275 
1263 2374 2829 1882 2845 878 226 1176 2045 
941 1702 1987 2031 1758 2817 2163 2384 2518 
743 2370 3452 3215 2923 1487 2961 2334 2960 
2436 4154 2629 2805 2897 267 2136 2331 1855 
2555 2290 2517 2600 2579 1816 1225 2249 514 
1887 1534 583 2778 2591 2398 2095 1723 1395 
1267 2032 1831 1527 1642 2273 1798 1923 2341 
1545 1877 1843 1012 482 1413 1814 2465 2133 
1460 1556 1973 1279 593 1518 2021 2124 2360 
932 562 1454 1552 2348 2016 888 1343 2053 
264 1402 1120 1522 2816 1049 1508 816 2152 
690 1951 2509 3054 1415 1844 1682 1351 1602 
1475 1615 2140 2903 2679 2952 2440 2534 2426 
2354 2631 3099 2656 2153 2238 3106 1638 2544 
3239 1819 2709 2182 1526 3101 2793 3436 3595 
4191 3466 2999 4035 2383 2266 305 2454 1805 
2751 478 903 1724 2116 1034 2197 1913 1689 
2235 2352 1653 2404 2519 2545 1851 2120 1991 
1932 2373 1554 655 110 1618 2306 2484 3095 
2126 2073 2795 2985 1852 1519 770 1719 1260 
2570 1904 1868 1106 1933 1328 259 1783 2497 
2411 3117 2551 799 823 2177 2441 2048 1957 
2574 2619 2325 2572 2455 2588 3163 2879 476 
2996 1896 1317 1821 3082 3218 2776 2633 2705 
3058 2915 1679 3107 1791 431 1906 2103 2161 
2794 3762 1673 1538 1186 1121 1514 2764 2799 
1662 3805 2064 3411 2527 1388 1028 546 1520 
1627 1308 766 1399 1535 1718 2589 2788 1807 
1497 2403 1818 1749 2283 2289 2142 2395 2695 
2862 1325 806 2515 2737 1579 2210 2530 1970 
2782 3138 497 1743 3794 3329 3840 3451 3856 
4133 1664 4400 2639 2698 3464 3308 3141 3773 
3882 3449 3183 3748 4006 3223 3730 3653 4229 
2749 4017 3883 3458 4303 4484 4600 3935 3827 
2019 3208 4073 4232 3834 3839 3968 4569 5194 
4746 3639 4362 3923 4124 4768 3416 5217 3455 
2598 3104 1917 4039 2474 1365 2967 2567 3944 
2644 3154 4704 3598 4052 3509 3424 2811 2485 
2882 3767 3733 1998 3016 2823 3361 2787 3116 
3009 3708 3191 3555 3465 3372 3349 3351 2303 
4063 4540 3741 3655 4122 3724 2997 4285 4831 
3729 3379 3770 4530 2694 3964 3688 3059 3933 
3576 4083 3841 4263 3938 4496 5181 4405 3313 
4088 3702 3039 3414 4353 3387 3075 3714 3421 
4000 1650 3479 3025 2963 3893 3628 868 3195 
2680 2658 2558 2483 2700 2936 2159 3830 3796 
2647 3119 2721 4241 3360 3358 3778 3401 4025 
3942 3983 3684 2925 3224 2604 4237 3524 2831 
2668 2818 2871 3385 3130 3634 2859 2792 2168 
3422 3196 3202 2282 2489 1042 3337 3506 3225 
3516 2638 3965 3508 3994 4384 2815 3461 3591 
4021 2747 3577 4219 3611 3727 3147 4350 3160 
4355 3230 3732 4101 4518 3666 3381 876 3375 
4376 3807 3032 3019 3311 4257 3872 3984 3957 
2843 2536 1707 3709 3373 3069 3459 4013 4828 
4389 3335 4372 4309 2481 1948 3229 2670 3085 
3905 3754 2994 2667 2428 3265 3607 2493 3462 
3007 2917 2473 2607 2662 2981 2918 3001 3181 
1433 2763 2919 3507 2733 2562 3182 2873 1209 
2734 2637 3014 3120 2689 3286 2730 2590 3207 
2926 3270 2939 3435 3237 3277 4038 3180 2014 
2429 3268 3053 3203 3860 3553 3217 3403 2800 
3486 3826 4457 3620 3846 4509 3057 3777 3550 
3873 4212 4095 4147 4382 2837 3204 4240 3682 
3881 4454 3362 1587 3127 3359 2350 3706 4784 
4014 3344 2212 3336 2510 1710 2410 3251 2611 
1800 2552 2836 3231 3066 2363 2145 3473 3115 
2801 1833 2335 2018 1746 2228 2285 2723 3090 
3139 2757 3042 2934 2702 3283 2710 2674 3355 
2131 2234 2942 3247 3199 837 3178 3000 1731 
2595 2225 3086 2566 3205 3044 2368 2625 2357 
2956 3284 2231 2649 3587 3030 2367 1965 3021 
2401 3081 2874 3801 3586 3188 4255 2872 3114 
3236 3692 3172 2524 3371 3629 2386 3932 4107 
4085 3055 3161 2822 2169 2943 2688 4722 4320 
3572 4312 4924 3388 3782 2337 3548 3626 2954 
4497 3874 3328 3289 1946 2719 3394 3765 4375 
3273 4183 4742 3469 3962 4851 2490 3353 1505 
2104 2512 2059 2469 3939 3065 2762 4046 4005 
2620 2616 2181 2561 2761 2881 2233 3272 2430 
3151 1866 2318 1416 2425 2790 3386 2685 2769 
2559 2628 3076 2044 2819 1178 3365 3164 2179 
3242 2464 2381 2827 2937 2433 2191 2300 2422 
2520 3833 2976 3437 3109 2269 2675 3004 3250 
2671 3326 3496 3612 2268 2301 2916 2011 2066 
3616 2427 4166 3179 3080 2582 3330 1848 2007 
3650 3764 3836 3744 4339 4324 2165 3632 3448 
4417 4780 3669 3742 3798 4298 4448 4436 2968 
4597 4745 4517 4884 4760 4781 4707 2505 4512 
4807 4170 4632 4714 4450 4244 4306 3110 2118 
1722 2738 2990 1782 2385 4002 3588 2446 2744 
3083 2099 3257 3641 1878 2851 3128 3613 2945 
2899 2759 2669 2724 3074 3158 3302 2522 2966 
3140 2208 1423 2492 2472 3370 1681 3490 3056 
2533 2195 3499 3018 2876 3487 2178 2935 3187 
3091 3294 1778 3096 3664 2434 3601 2601 1717 
2645 3824 2712 1285 2714 2278 2046 3502 3332 
3866 2878 1646 3609 1644 3603 3974 4287 3644 
2415 3118 4283 3567 4081 4078 4727 4842 2722 
2842 2753 4837 4668 4159 3518 4685 5007 3064 
4876 2650 3793 4004 3071 4114 5040 3677 3855 
4630 5050 4789 2687 3246 3093 2691 3600 3305 
3662 3393 3005 3240 3169 2987 3020 2577 3915 
3062 2076 3157 2748 2314 1986 2865 3142 1018 
3276 2295 3895 3214 3622 2840 1774 2548 3350 
2204 2349 1989 2271 3123 3528 3299 3331 2584 
2808 3352 3143 3198 3047 3024 2728 2185 2839 
2281 2683 3171 3500 3440 3380 3541 3159 3312 
3739 3253 2841 1132 2678 4134 3991 4204 4385 
3876 3674 2279 2901 3263 5027 2908 3817 4916 
4343 4816 3317 2568 4239 4094 4072 4872 3900 
4280 4205 3243 4403 3993 4909 5110 5135 4883 
4680 3988 1958 3040 4032 4592 4452 4616 3010 
3585 2302 3162 1531 2447 2807 3068 2258 3089 
2924 3399 3501 2928 2642 2686 2006 2052 3209 
3023 3094 2610 1858 3934 2821 2701 2516 2756 
3357 2833 3173 2986 2973 2090 2508 2889 2766 
3266 3134 2991 3958 2445 3156 3145 3255 3786 
2541 3190 2885 2832 2765 2929 2713 4230 3376 
4247 2725 2359 4395 3537 2904 3916 2500 4117 
2027 4314 3031 2978 2849 2692 4377 3755 3389 
2521 3859 3232 4065 2975 4346 3476 3488 4020 
2220 3851 3432 2324 3530 3822 4711 4188 4867 
3166 4678 4459 242 2400 2655 3087 2501 3427 
2345 2852 2583 2462 2895 3431 2311 2781 2789 
3678 792 2798 2117 2144 3400 4184 4135 2814 
3442 3038 3197 2294 2535 2828 2641 2467 3811 
3675 3339 2826 3457 2657 1127 2241 3168 3430 
2941 3705 3002 2634 2660 2947 4043 3256 2221 
3070 2690 3597 3526 2592 2546 3510 2364 2707 
2396 2067 4070 3757 2955 3909 3689 2635 1750 
4105 2081 3420 2731 2393 2511 2844 4227 4138 
2593 2676 4264 2708 3809 2962 3512 4268 2797 
4082 2622 3517 2972 2726 521 4164 3463 3367 
3396 4019 2077 2151 3405 2869 2825 3647 2699 
2299 2665 4176 3963 3409 2315 2980 3028 3491 
2514 3816 3615 2526 4001 3747 3929 2424 2830 
3052 2111 3206 3226 3625 2618 3017 3536 3574 
4056 4185 3795 4683 3943 5540 4086 5214 4084 
3844 3949 5354 4153 4033 4562 5302 4365 5282 
3769 5368 5406 4128 3723 4930 5858 4656 4777 
4060 3347 4466 4718 4447 4853 4202 4942 5760 
5124 4590 4026 3668 4080 5363 3710 4249 4737 
5663 2906 2803 1509 3940 3456 2838 2293 2804 
3736 4161 3630 3975 2405 3863 4399 4136 3621 
4250 3670 3687 5073 4131 4595 3029 4663 2079 
4187 5446 4645 3285 3920 4179 5345 4700 5219 
3982 4174 4605 3772 4740 4649 4260 5239 4371 
4292 5384 4638 4087 5235 5043 4284 5105 4682 
4741 3216 4703 4782 5348 3559 4610 3737 4567 
5680 3324 5517 3899 4397 3970 3067 3973 4340 
2402 4018 5276 3497 3252 3978 3799 3820 3513 
4521 4172 4356 4408 3483 3894 4407 4369 3927 
4143 3671 4437 4918 3907 4156 3532 5035 3259 
4036 3987 4029 4378 4888 5723 3867 4433 5128 
3781 4243 3538 4800 5317 5206 5265 5513 4689 
4003 4211 3828 4367 4430 3672 5788 5705 3913 
4511 5935 5281 5498 3954 5586 3443 4412 4279 
5478 5080 4975 5014 5730 4248 4422 1806 4578 
3955 3438 4406 3176 2802 3407 4195 3113 3657 
3046 3648 3812 3763 3498 4125 2931 3787 3995 
3569 3484 4413 4550 3776 3447 4809 3144 3760 
4165 3319 3800 3945 4121 4140 5136 3547 3523 
3412 3175 3738 3429 4499 3717 3785 4042 3869 
3415 5106 3426 4903 4796 3761 4302 5205 4493 
4941 4461 4102 4358 4347 5489 5081 5069 5526 
5337 3454 5188 4539 5423 3610 5131 3986 4359 
4308 5492 4196 4192 5474 4823 5152 4455 4051 
5864 5592 2715 4363 4587 4790 5659 3746 4178 
4217 3917 4580 4182 4451 4880 4053 5114 4318 
2988 3565 2774 3152 3377 3814 3419 3690 4648 
4494 4007 3072 3504 3211 3645 3354 3676 3092 
4576 3716 4173 3167 2890 3556 3341 3345 3713 
3088 4149 4041 3728 2697 3417 3931 3050 3703 
3825 3930 3756 3589 3271 4267 3791 4625 4427 
2443 4756 3306 4231 3961 5369 2621 4123 4319 
4570 4462 3638 3804 5711 4338 3948 4726 3922 
4839 4207 5631 3515 4870 3835 4679 4330 4370 
4951 5398 5724 4586 4220 4542 4194 4728 3952 
5370 3254 4254 4328 3992 4468 3293 4691 3635 
4498 3636 3470 4374 3750 4804 4066 4062 3823 
4009 2907 3402 2388 3884 3343 3234 2970 3121 
3790 4708 3428 2864 3078 3097 2886 3043 3831 
3221 3267 3608 3879 3467 2138 3735 3222 3460 
3891 2565 3740 4208 3060 3174 4047 3149 3774 
3803 3333 4148 3531 3640 3642 4785 4332 3228 
2784 4295 4554 3731 4120 4096 3911 2887 4344 
4329 5071 5028 5002 5781 3870 5315 4812 4927 
5013 4652 5407 5491 5582 5853 4666 4925 5924 
4557 6051 5556 5036 5642 4599 5017 4028 4897 
5320 4458 4981 5717 5022 3446 3309 3048 3184 
3745 3617 4419 4559 4246 4940 3838 4558 3685 
4089 3977 4064 3743 4091 3111 3261 2717 3148 
3989 3573 3959 3924 4731 3292 3133 2984 3441 
2735 2938 3314 3281 3832 3391 3325 3194 3258 
3378 2706 2777 3482 4027 3694 3384 3445 3560 