# vtk DataFile Version 4.2
Generated by LIGGGHTS
ASCII
DATASET POLYDATA
POINTS 6000 float
-0.0243618 -0.0377991 0.018572 -0.0205654 -0.0399406 0.0180442 -0.0164855 -0.0418239 0.0181588 
-0.0132004 -0.0390507 0.0182709 -0.0170762 -0.0378615 0.0184734 -0.0126338 -0.0429511 0.0175919 
-0.00950161 -0.0404851 0.0171621 -0.00570028 -0.0438037 0.0167458 -0.00593733 -0.0383346 0.0180381 
0.000496681 -0.0394214 0.01753 -0.0014523 -0.0448157 0.0179099 0.00253251 -0.0445551 0.0183879 
0.00855204 -0.043113 0.0179823 0.00470814 -0.0406293 0.0187776 0.0085916 -0.0391054 0.0185679 
0.0127177 -0.0428518 0.0187962 0.0176185 -0.0413495 0.0165957 0.0137021 -0.0394541 0.016595 
0.022784 -0.0386369 0.0178861 -0.0334261 -0.0300376 0.0186445 -0.0249915 -0.030332 0.0174785 
-0.0237687 -0.0341236 0.0170419 -0.0276647 -0.0353634 0.0181559 -0.0207552 -0.0313019 0.0180639 
-0.017007 -0.0298641 0.0180165 -0.0134293 -0.0350852 0.0188943 -0.00976173 -0.0366596 0.0183322 
-0.00977489 -0.0312054 0.017992 -0.0057234 -0.0307847 0.0178515 -0.00315507 -0.0348037 0.0183241 
0.000100506 -0.0324786 0.0186007 0.00347501 -0.0367235 0.0180631 -0.00213775 -0.029144 0.0185829 
0.0112285 -0.035961 0.0184757 0.00410424 -0.0326214 0.0185685 0.0106782 -0.0318905 0.0173818 
0.00711421 -0.0352682 0.0188909 0.0189901 -0.0366648 0.0172398 0.0217963 -0.0324592 0.0161126 
0.0254362 -0.0315415 0.0187821 0.0254246 -0.0355627 0.0186683 0.0290977 -0.0339567 0.0182541 
0.032171 -0.0314161 0.0178005 -0.0297177 -0.0286055 0.0181825 -0.0319569 -0.0211667 0.0177676 
-0.0359984 -0.0269746 0.017692 -0.0296588 -0.0244608 0.017662 -0.0262638 -0.0265735 0.0179879 
-0.0239416 -0.0233609 0.018564 -0.0279764 -0.020687 0.0180859 -0.0223031 -0.0273308 0.0186948 
-0.0184803 -0.0261519 0.0186261 -0.0143681 -0.0269609 0.0188453 -0.0120875 -0.0235422 0.0179676 
-0.0104546 -0.0271966 0.0179553 -0.00647902 -0.0267991 0.0177138 -0.0054194 -0.0229193 0.0176129 
-0.00117019 -0.0225591 0.0184952 0.00847856 -0.0285684 0.0183817 0.00697134 -0.0246608 0.0180906 
0.00971357 -0.0217538 0.0175872 0.0114422 -0.0257841 0.0185912 0.00458611 -0.0212576 0.0181817 
0.0137181 -0.0223627 0.0181132 0.0188894 -0.0234215 0.0188857 0.0206915 -0.0271696 0.0182709 
0.0246924 -0.0275744 0.0185635 0.0264058 -0.0218919 0.0180087 0.0319053 -0.0273791 0.0174917 
0.0360441 -0.0265402 0.0169163 0.0347421 -0.0224389 0.0177049 0.0308478 -0.0211589 0.0169535 
0.0381854 -0.0228122 0.0141752 -0.0405468 -0.0140376 0.017174 -0.0400417 -0.0185186 0.017823 
-0.0360989 -0.0194981 0.0179776 -0.036828 -0.0150843 0.0182211 -0.0331394 -0.0168302 0.018578 
-0.0292015 -0.016334 0.0180628 -0.0308991 -0.0127383 0.0185918 -0.0229635 -0.0195677 0.0177544 
-0.0256089 -0.0129853 0.0179672 -0.0215643 -0.0128579 0.0179178 -0.0177369 -0.0155373 0.0183658 
-0.0141674 -0.0174147 0.0169082 -0.0128152 -0.0139785 0.0185659 -0.00937269 -0.0159925 0.0180056 
-0.00359903 -0.0193194 0.0180312 -0.00206345 -0.0156449 0.0174571 0.00030615 -0.0190217 0.0171123 
0.0019163 -0.0129126 0.0177103 0.00360333 -0.0168507 0.0177626 0.00733802 -0.0183442 0.0178683 
0.0101614 -0.0150592 0.0177429 0.00627737 -0.013868 0.0178737 0.012467 -0.0183433 0.0169237 
0.0152477 -0.015342 0.0174971 0.0187909 -0.017579 0.016088 0.0246171 -0.0172495 0.0167646 
0.0218069 -0.0200543 0.0178808 0.0280283 -0.0146104 0.0168167 0.0243114 -0.0131649 0.0172193 
0.0314191 -0.0166241 0.0159586 0.0361041 -0.0188057 0.0155354 0.0348815 -0.0125077 0.0160286 
0.0346699 -0.0157733 0.0186782 0.0403597 -0.0196581 0.0155552 0.0380492 -0.015232 0.0160941 
0.0420668 -0.0154961 0.0160858 -0.0438798 -0.00914859 0.0171821 -0.0399139 -0.00913687 0.0182975 
-0.0440015 -0.00501612 0.016958 -0.0366382 -0.00617173 0.0163105 -0.0320239 -0.00891539 0.0181935 
-0.0304846 -0.00521865 0.0181924 -0.0265042 -0.00621167 0.0179496 -0.0239716 -0.00926946 0.0185063 
-0.0281349 -0.00985015 0.0182938 -0.0222916 -0.00563927 0.0181239 -0.0163731 -0.0117713 0.0179593 
-0.0161356 -0.00771855 0.0178963 -0.0198129 -0.00930079 0.0172923 -0.0124348 -0.00924293 0.0178348 
-0.0086975 -0.00765135 0.0181002 -0.00928111 -0.0120274 0.0185271 -0.0119289 -0.00522887 0.0180183 
-0.00585061 -0.0103914 0.0171045 -0.00292176 -0.00777353 0.0178657 -0.00202345 -0.0116715 0.0179639 
-3.52993e-05 -0.00499907 0.0178933 0.00388152 -0.00626707 0.0173299 0.00105347 -0.00886053 0.0186761 
0.00485466 -0.0101067 0.0181182 0.00893415 -0.0108097 0.0175073 0.00901232 -0.00643068 0.0178851 
0.0128092 -0.0120411 0.0182025 0.0132676 -0.00804865 0.0183038 0.0164048 -0.0104516 0.017435 
0.0167664 -0.00624317 0.0166111 0.0200655 -0.00767636 0.0185227 0.0208257 -0.0112005 0.0166992 
0.0241481 -0.00916219 0.0177052 0.0258127 -0.00540456 0.0171336 0.0281999 -0.00907259 0.0166416 
0.0337468 -0.00860582 0.0163208 0.0313597 -0.0112753 0.0182152 0.0299436 -0.00539528 0.0162413 
0.0432794 -0.0121977 0.0141208 0.0377355 -0.00956706 0.0158625 0.0441689 -0.00788495 0.0140824 
0.039985 -0.00621173 0.0168599 0.0445178 -0.00589507 0.0177323 0.0397698 -0.01236 0.018282 
-0.0449092 -0.00118106 0.0177834 -0.044882 0.00272802 0.018681 -0.0375989 0.000659847 0.0186074 
-0.0408632 0.00329492 0.0186998 -0.0331787 -0.00185933 0.0175449 -0.0290475 -0.00130835 0.0173069 
-0.0247042 0.00199535 0.0179412 -0.0250507 -0.00251103 0.0185313 -0.0189204 0.00142006 0.018138 
-0.0152652 -0.00298417 0.0184159 -0.0149806 0.00102062 0.0174778 -0.0192808 -0.00285539 0.0187506 
-0.00845813 0.000315119 0.0180625 -0.0114474 0.00296093 0.0176397 -0.00466523 -0.00327018 0.0177088 
-0.00441901 0.000709298 0.0172721 -0.000489858 0.00246678 0.0174258 0.00254411 -0.00192126 0.0178155 
0.0065277 -0.00326313 0.017575 0.00595054 0.000671183 0.0182989 0.0101633 0.00177503 0.0177034 
0.0129868 -0.0041614 0.0171197 0.0166963 -0.00222187 0.0171004 0.0167532 0.00187809 0.0167894 
0.0204048 8.90195e-05 0.0177221 0.0134739 -0.000306389 0.0186158 0.0204277 -0.0041102 0.0166145 
0.0247788 -0.00123393 0.0175803 0.0263227 0.00327486 0.0163504 0.0289734 -0.00104287 0.0166307 
0.0335671 -0.00112268 0.0160559 0.0365278 -0.00399849 0.0156942 0.0346836 0.00375472 0.0170162 
0.0382052 0.0014507 0.0171603 0.0448195 -0.0016337 0.0143413 0.0448739 0.00286774 0.0161294 
0.0405053 -0.00224336 0.0173464 0.0448847 -0.00047696 0.0185379 -0.0431675 0.00667894 0.0183088 
-0.0376503 0.0052759 0.0173416 -0.043611 0.0107922 0.0175761 -0.0379476 0.00921471 0.0180914 
-0.033647 0.00437642 0.0173699 -0.033955 0.0088988 0.0178285 -0.0299314 0.00858229 0.0174137 
-0.0287955 0.0045791 0.0178302 -0.0262071 0.0100467 0.0180035 -0.0250645 0.00619119 0.0184297 
-0.0222747 0.00908277 0.0183861 -0.0214182 0.00453425 0.0185667 -0.0158012 0.0094142 0.018554 
-0.0191114 0.0113523 0.0174028 -0.0143121 0.00572883 0.0180818 -0.01002 0.00670655 0.0176009 
-0.0118198 0.0102367 0.0181538 -0.00786257 0.0105723 0.0176128 -0.00271632 0.0059694 0.0178378 
-0.00187528 0.0101081 0.0171269 0.00184701 0.0078249 0.0167558 0.00341897 0.0040797 0.0175403 
0.00320641 0.0122421 0.0169626 0.00643135 0.0072142 0.016996 0.0105129 0.00585098 0.0169712 
0.0112459 0.0107183 0.0158695 0.00749776 0.0119816 0.0169132 0.0165048 0.00745513 0.0168114 
0.0179189 0.0116347 0.0164362 0.0201673 0.00875728 0.0181518 0.0139435 0.00421901 0.0184163 
0.0225671 0.00549856 0.0170258 0.0278153 0.00734957 0.0165 0.0245907 0.00851422 0.0187333 
0.0327783 0.00815549 0.0172117 0.0301177 0.00413437 0.0172765 0.0367843 0.00922503 0.0164023 
0.0341016 0.0122598 0.0160923 0.0403076 0.0068518 0.0163562 0.0442655 0.00667004 0.0148298 
0.0431658 0.0105024 0.0152759 -0.0382454 0.0166436 0.0175023 -0.0416073 0.0142426 0.0171985 
-0.0372221 0.0128517 0.0164947 -0.0402336 0.0201114 0.0177159 -0.0332932 0.0131261 0.0172377 
-0.0294643 0.0125334 0.0182497 -0.036227 0.0198368 0.0188354 -0.0225507 0.0132536 0.0181771 
-0.0212348 0.0185433 0.0184797 -0.0149369 0.0132722 0.0177872 -0.0149408 0.0176064 0.0175633 
-0.00750264 0.0167022 0.0174063 -0.0111347 0.0149759 0.0176891 -0.00465175 0.0138959 0.017717 
-0.000776317 0.0146288 0.016375 -0.00365152 0.0177862 0.0177204 0.000524829 0.0184051 0.0173795 
0.00617886 0.0159077 0.0170397 0.0103203 0.016002 0.017337 0.00479942 0.0194011 0.0186648 
0.0146787 0.0164456 0.0172342 0.0125697 0.0199695 0.0166339 0.0166424 0.0199349 0.0178723 
0.0144828 0.0123403 0.0186471 0.0258231 0.0166649 0.0160126 0.0219173 0.0166002 0.0169241 
0.0257691 0.0126411 0.0174692 0.0238019 0.0202261 0.0173848 0.0215032 0.0126099 0.0179978 
0.0363547 0.0188155 0.0156063 0.0309817 0.018918 0.0157033 0.0298054 0.0138618 0.0165445 
0.0338888 0.0162405 0.0176927 0.0386543 0.0130533 0.0166862 0.0404125 0.0164479 0.0152661 
0.0401272 0.0202478 0.0164911 0.0426223 0.0138031 0.0179123 0.037923 0.0165618 0.0186029 
-0.0381692 0.0234896 0.0169151 -0.035943 0.0267627 0.018022 -0.0299726 0.0286383 0.0188755 
-0.0287983 0.0247708 0.0181668 -0.0242916 0.0214756 0.0185317 -0.022655 0.0256971 0.0178124 
-0.0260831 0.0277847 0.0184007 -0.0202619 0.0224435 0.018403 -0.0158954 0.0214494 0.0183509 
-0.0128192 0.0239604 0.0175646 -0.018993 0.0286125 0.018572 -0.0165448 0.0253828 0.0188994 
-0.00739691 0.0244637 0.0177938 -0.00554594 0.028063 0.0183828 0.000402917 0.0224838 0.0173388 
-0.00366201 0.0221555 0.0177971 0.004673 0.024032 0.016951 0.00857122 0.0210355 0.0179811 
0.0129345 0.0284224 0.0171976 0.0139493 0.0245051 0.0169441 0.0200812 0.021458 0.0161505 
0.0176432 0.0243994 0.0185129 0.0183677 0.0288489 0.0182152 0.0210056 0.0257479 0.0166091 
0.0259388 0.0240503 0.0157968 0.02798 0.0279439 0.0169766 0.0239776 0.0284553 0.0173024 
0.0336541 0.0221084 0.0169189 0.0340643 0.0268191 0.0162867 0.0302808 0.0245546 0.0173751 
0.0381751 0.0237436 0.0175302 -0.0241889 0.0336517 0.0173975 -0.022731 0.0300202 0.0182448 
-0.0282689 0.0349332 0.0175926 -0.0147925 0.0298517 0.0181365 -0.0187574 0.0366243 0.018473 
-0.0128406 0.0360956 0.0180147 -0.0196182 0.0325927 0.0188819 -0.00914324 0.0345418 0.0177946 
-0.00875144 0.0305432 0.0181203 -0.00221567 0.0349489 0.0174642 0.00129906 0.0288632 0.0181626 
[...]
POINT_DATA 6000
FIELD FieldData 7
id 1 6000 int
5932 5227 3325 2569 4744 3326 5093 302 2014 
3335 5085 5949 5944 5514 1874 1558 4422 5385 
5526 143 1152 313 5943 3039 3984 2878 1659 
5545 34 5005 1154 2609 5481 3069 6010 5730 
4782 5364 5740 5166 3873 4357 3948 5052 4249 
4853 4649 679 5229 5402 3702 2623 2984 2020 
18 4439 1088 3324 5325 2222 403 5423 4935 
4359 1397 3954 2666 3709 1098 2732 2129 4610 
2013 1691 1546 4074 4600 3534 5106 4777 4088 
3416 3961 5304 4405 396 2626 4465 5962 3373 
426 5322 3040 1347 1767 5680 3753 1721 2251 
2905 2392 78 3726 2136 4867 3494 5890 1687 
2257 1078 1445 1240 638 1371 63 502 5298 
1741 402 2339 4284 5846 1630 274 1732 247 
1584 582 5586 383 408 1129 664 1228 1576 
1236 576 1885 639 2517 2768 2114 4139 2331 
44 2379 4837 2560 2650 181 1612 5040 2968 
976 292 2990 500 3098 529 1307 935 2867 
2810 1108 660 1440 758 440 164 1272 1046 
1637 211 3595 2704 459 2844 496 2659 1698 
1305 4032 3010 4789 4159 4810 4883 4722 3101 
5524 4450 2059 421 2113 2423 2863 107 1060 
2094 2452 88 1628 30 840 441 1180 153 
1177 1246 560 133 851 61 1490 1749 1168 
572 853 399 258 2709 3245 2629 3900 3408 
5050 2290 3793 1961 2731 3585 3530 1606 2510 
1419 3110 2326 1311 1269 906 1426 1534 1424 
2778 236 590 418 1304 993 1164 2400 1816 
1069 2064 2283 2403 2515 2077 4391 2289 5815 
2111 4592 6006 60 3988 3369 2699 3552 4258 
1757 2974 4352 893 2385 2071 549 1944 1421 
2311 3600 1037 2987 5855 4965 2583 687 194 
540 4264 1136 2256 2799 5742 1627 2151 4307 
417 546 5982 4791 483 887 3087 3005 4526 
4334 1713 92 900 3189 1805 2814 3431 2895 
3023 2258 2462 3367 3107 2708 1520 367 4360 
3566 1047 2266 3322 3427 2797 1024 2676 242 
2655 3512 5819 2249 3411 4158 4474 5868 5032 
4034 357 4682 3922 1128 5662 5827 5904 3568 
4315 3974 4000 4312 4534 4206 932 4984 5328 
4986 5347 1540 3737 4896 5672 4586 2522 2386 
5565 3390 3986 2508 2864 3152 4326 5610 4829 
3820 3338 6016 5710 3553 5668 3795 5561 2226 
5203 2416 5739 5573 4086 3586 1333 3313 6059 
3212 4456 5639 4775 4209 5875 4752 6027 3421 
5724 4703 3032 5081 4928 3387 4809 2625 3616 
5957 2536 374 5156 3714 5848 5584 5592 2066 
2638 5841 4322 4297 5241 2037 1650 2886 1771 
4451 4743 4412 4399 1601 5813 6064 2453 3706 
3081 2159 1690 4567 4502 5588 1293 3507 2430 
5486 4371 4388 3521 2586 4026 5363 5420 525 
2122 5346 6037 5217 4365 3 3216 4006 5929 
3710 1962 5097 5794 4570 5856 3833 5529 5318 
5977 4106 4939 4509 5728 5701 3731 3120 2261 
5014 3587 4151 2148 1439 4737 5605 5665 4123 
361 4195 4042 3991 1891 2422 3102 3801 4136 
5956 1774 1323 3994 3013 5499 3479 3350 5024 
4674 5222 2316 1737 4424 4013 4240 1087 4363 
4212 5891 855 2227 4309 2649 2822 2922 5886 
5373 3022 2553 5634 1449 2206 2418 5684 3208 
2677 4128 268 3471 1903 4060 471 4718 4087 
4362 5557 3558 38 710 988 3923 5194 531 
6045 3576 6043 4553 774 3549 985 5303 3006 
6053 747 5059 5852 2135 5451 1939 1354 1013 
2358 5281 654 350 5936 257 3075 4821 2310 
5348 3375 1539 2843 1600 470 3957 2612 3414 
1955 2603 5700 1352 5478 609 2998 4320 3478 
4382 2982 1905 3260 3359 3777 3362 4350 3632 
2337 1636 3459 2420 2688 2431 3776 2229 1563 
485 5061 1242 2860 2505 3548 1820 3712 3185 
4924 796 4849 3388 1845 1376 252 537 4569 
574 117 1277 850 1294 278 3938 358 1715 
1093 3968 49 842 32 62 5265 316 4202 
720 3008 3269 244 2850 3791 364 5224 5500 
435 5695 528 606 738 2775 522 3933 178 
81 1189 3311 1914 432 1512 1372 1472 209 
1930 477 338 341 1607 1045 1730 1631 1331 
1221 1632 575 1886 881 3045 2754 3220 2896 
1063 4478 26 208 2156 2107 2130 3071 3136 
3323 3103 2202 3161 2842 1751 2739 5393 986 
3297 2958 4448 4893 2369 4727 1901 4616 4276 
5147 2934 4628 3481 2780 994 2875 3626 2338 
1074 2432 1261 3588 2363 2477 1588 1115 1776 
869 4002 2327 48 1523 552 1401 499 1456 
1706 66 466 468 397 870 3453 622 71 
789 4080 517 822 251 165 550 1011 329 
2109 170 377 1171 171 214 640 2329 858 
301 694 368 98 616 659 508 266 1362 
565 864 91 173 275 983 381 641 2555 
1446 245 2654 886 3851 1182 2600 551 267 
797 4191 2897 5135 997 4452 2633 2961 2857 
3758 2861 1374 2999 3649 4685 4872 3681 1949 
658 72 4114 3798 3469 4298 4745 5182 4668 
3677 4078 2579 3235 3391 3855 4436 4188 4630 
4004 4780 2883 3305 2490 2118 1722 3184 3641 
2512 2387 3544 234 2292 1790 2263 1505 608 
474 691 1072 330 1770 762 678 984 2459 
45 740 857 1218 1458 1462 136 812 1850 
952 1645 1709 311 444 1016 538 306 849 
100 420 1000 390 513 795 890 129 490 
385 1913 524 2879 1010 2915 1514 200 1792 
1969 2182 766 2325 2911 1325 1526 2523 1195 
1855 874 5664 2705 5090 2081 4392 5084 3993 
4857 2955 5566 4035 5495 5583 4909 1907 3518 
160 5560 4403 4678 175 3017 4306 4138 5007 
4807 4517 4714 4170 4876 3328 5422 1859 1934 
484 3210 2748 3153 3579 2022 2636 2478 3353 
2663 1782 2356 2099 3915 1768 1039 647 427 
1525 2104 353 2105 3020 2781 1052 2015 3815 
2328 2366 1570 162 1223 2095 1667 1420 1831 
518 1267 1642 859 2398 67 559 4098 3662 
1887 680 3304 1378 1215 1923 2501 1798 663 
132 2120 1991 1724 1320 1034 456 4245 2519 
927 1864 298 940 2161 3665 31 127 1028 
620 40 3551 3396 4926 4690 4591 4513 3028 
15 2543 3409 3747 3615 3226 1317 1306 2514 
3432 3166 636 3082 3466 2940 3368 4599 4667 
4948 5200 2950 4781 5863 4680 2264 2687 3201 
1611 916 583 3393 3340 3093 1959 3399 2944 
5549 55 4293 3406 5185 5496 2691 1126 2686 
3357 3068 2383 1300 5575 4184 5066 2727 4169 
656 950 1932 2852 2345 2751 4190 1188 5082 
2117 2235 2341 4664 895 2352 863 3463 1791 
2299 299 2825 1689 254 1679 3963 1399 3038 
601 387 3405 1211 2869 4176 1807 4573 961 
1535 6025 4381 1818 229 5781 5896 611 1308 
2737 4470 4865 5989 2549 3545 1017 3967 2097 
3162 4270 3661 2835 146 1648 2302 3594 5780 
1614 2900 2902 3089 4453 6046 3249 3041 5543 
5973 2979 2642 3444 1528 2729 4701 5193 5881 
4839 1673 5758 6063 3460 2683 1225 3868 3843 
3809 3514 6021 5538 2454 903 478 4629 4082 
13 1851 819 3919 2116 5743 4639 5417 5296 
2884 910 5419 5367 1121 4019 5184 3998 3889 
3186 5460 5430 3327 3908 4480 3950 3775 4933 
5984 4635 4277 4317 5119 4432 5104 3383 5550 
5139 3850 4748 3333 3898 6000 4077 5234 5248 
2789 5986 5342 3719 4596 3290 5473 4813 4489 
412 2593 2103 3805 3288 5615 4164 5897 4108 
5757 3656 4899 2794 5835 2723 2962 3517 3762 
4983 1662 5374 5126 1906 1146 637 2726 5302 
5073 4501 5416 1396 5260 5759 5822 2645 5359 
4471 6014 1680 3306 4134 4749 5685 2714 5051 
2890 5556 3559 4578 3736 5063 5528 4116 6013 
5152 3148 5410 5350 1363 1999 709 3633 5792 
2313 5016 1692 6035 2970 5452 5415 5340 1954 
2981 1030 3319 2413 4347 2300 2427 3825 5706 
4373 3285 5358 4411 5663 4153 5768 6040 3725 
5732 5424 5828 5026 4464 5186 4969 6029 3847 
4919 4361 4723 2344 3281 6023 3054 2784 5167 
1020 1417 4340 4406 2702 6004 3112 2939 5607 
3785 5013 5744 5215 5527 1565 2268 1777 4183 
2581 1007 5003 2137 4836 4090 5741 3803 2874 
4031 4127 3703 5138 4790 5618 3018 4296 3515 
5391 4238 4380 3881 4581 4561 3255 5365 1940 
5686 131 3425 1937 4695 2199 5770 5762 504 
5951 20 4466 3882 3455 5297 3223 4484 4447 
4970 3668 6007 3347 3730 4321 473 2008 3892 
5808 4719 6032 4761 4174 4304 4427 3699 4353 
4762 6047 3531 4140 3021 5483 5811 3539 5536 
3690 5127 1123 5189 1837 2078 745 5255 3447 
6008 2195 5055 4433 4446 5696 5244 3378 1392 
1977 2301 4805 2434 4565 3345 4880 5442 5448 
5390 5708 2988 788 4461 1199 5659 1847 1062 
6065 3461 3997 5908 3672 4147 5192 5209 113 
5555 4021 6048 4627 1646 159 2466 3942 4988 
2943 5294 2767 4636 5327 2042 4228 571 1764 
4226 3435 2513 3382 3839 135 4124 5124 5236 
4073 2019 429 2216 4768 281 3827 4590 969 
4272 3949 4942 3902 270 5691 5645 4982 139 
4434 3418 5372 4122 1787 5504 4892 4689 1145 
5718 4267 5290 3723 3738 126 3230 4954 4888 
3692 5711 5134 1065 4308 5238 5299 3030 2746 
2524 5913 5915 628 3932 4095 4910 3454 241 
3781 4376 3872 5563 1982 3846 4339 4389 1965 
5864 1437 2840 5278 5489 1871 3019 2355 4828 
2284 4904 4165 2024 5650 2770 723 1697 2054 
1655 321 2496 1935 1493 4546 2184 2376 317 
4486 3026 4879 2026 2613 2362 1736 4759 1760 
2954 1084 2758 4784 579 4305 1846 902 452 
767 649 1031 2000 1890 1053 294 1990 2036 
2101 948 2920 570 2346 1947 1181 2698 3363 
4602 1619 2444 632 1668 1883 918 3137 493 
2894 4605 235 3492 2460 706 5043 1652 339 
3059 917 5181 3913 216 4741 248 876 2542 
987 629 781 392 455 938 401 282 4511 
520 1184 5716 2585 3443 1853 964 1027 308 
1828 726 682 1707 1015 1633 2236 1568 1466 
400 904 3682 3342 1670 1686 2959 3192 3084 
3529 2480 2503 1909 3035 2051 1249 2910 5995 
272 3852 2365 718 2640 77 2231 108 5445 
5918 3857 4512 2150 336 1345 2410 2149 2491 
3229 2173 1574 2237 1827 4046 1710 1336 1021 
3066 684 1810 1163 1254 1193 2340 498 1 
773 2537 810 1141 519 1197 979 646 434 
507 123 843 221 265 626 1191 713 1436 
118 1684 3298 217 2 188 1542 673 1066 
748 1339 352 177 1232 1257 1471 951 558 
238 1259 76 545 532 2793 1711 149 1738 
1829 2960 1284 1910 1192 1693 666 1043 1958 
742 2217 4280 3321 1056 3413 4932 2488 1799 
4459 2568 2436 4205 5110 5006 4239 5027 5802 
3296 3064 3317 3570 4913 4944 3238 4597 5968 
4398 4081 4055 5965 4458 941 2964 3824 5070 
5641 2719 4342 1312 4330 6050 4049 5315 4931 
1275 5769 3128 3446 4254 2738 3939 4940 2881 
3251 930 2870 3685 1872 2428 1945 2606 1694 
2018 707 3065 885 75 1044 17 297 2062 
957 1288 1022 963 166 1450 2807 1071 145 
1095 1139 865 1491 1243 43 380 2591 2167 
1070 366 1369 635 184 348 1560 867 388 
2631 1103 279 1118 1398 3356 122 1747 1005 
305 1186 23 2776 530 1536 1487 433 2635 
2511 4606 4711 4227 3126 3822 4020 3436 3859 
5991 4901 1750 3243 4842 2324 343 5226 4816 
5541 2753 5487 5678 4269 2615 5488 5577 2393 
5788 4614 4375 4679 4851 4370 4692 5251 3962 
5300 4632 4289 5380 3366 3542 3837 4155 3583 
3659 4608 2744 3434 3246 1953 3501 3410 3599 
1803 3177 2821 3209 3173 4549 2924 2577 2032 
1531 896 2545 2190 701 516 1400 1556 4126 
2073 3581 676 328 1527 1167 2535 319 924 
3675 27 4135 1817 811 431 121 4268 2622 
826 3810 2972 2463 4057 4345 3647 4100 862 
3780 3491 5454 5231 3625 5752 674 2475 373 
2665 1564 1621 2588 3058 828 446 970 1970 
1762 189 3420 3503 5658 5218 5726 5503 5465 
5176 4197 4675 5878 3364 5652 2722 5162 4815 
4885 5075 4702 4531 2447 2965 3511 4341 3546 
6002 2242 4152 3165 3292 4492 4037 5637 4613 
3433 3262 4655 1018 4351 5091 3037 3678 3398 
2057 2760 4891 4261 3540 3334 1653 2608 3400 
5173 4584 1049 5930 4798 3442 4485 2995 2868 
3779 4915 5558 2889 3584 2197 2262 4583 4198 
3036 5094 1538 2777 4394 4115 4503 4953 5812 
86 4199 4069 2499 5674 4157 3590 4173 5884 
5922 2589 2788 5158 4348 3848 5042 3052 4141 
3316 4012 4335 5272 4482 4180 5404 3623 3980 
5834 5285 5787 5616 413 5463 2618 3536 4881 
5150 5542 4699 5083 5267 5934 5074 5831 4603 
5786 4555 2076 5847 3897 1877 3234 5264 1569 
4670 4273 386 5725 3450 1545 4118 5351 4213 
1856 2295 4529 5937 5657 4056 1857 5130 1473 
5969 3612 2016 4676 5485 6052 2541 5877 3164 
5987 2976 1763 3918 2047 3060 4861 3582 5648 
5916 5621 5919 4203 5698 4300 5123 5287 3266 
5133 4959 5180 4487 4651 4705 288 5095 5731 
5999 4163 4850 2367 5625 3888 3133 5312 4221 
5140 5604 3291 6030 5009 5821 4671 4224 5174 
4477 3679 5447 5357 4354 5428 2276 3788 4796 
5620 4886 4677 2880 5249 1609 5276 5394 4160 
4548 2084 5148 5879 3884 5113 5252 3562 5392 
5843 4937 4414 5444 4349 5079 3643 2674 4641 
2193 2907 5331 4806 5994 3865 3651 3925 5694 
2402 4175 5640 5921 4995 4617 4978 5773 3759 
5491 4256 4908 5931 5860 6017 4582 4022 5213 
5045 3849 1521 2158 4756 2866 5458 4687 4826 
4869 5972 3691 1110 3713 3224 3814 2786 5482 
3575 642 1042 2160 1773 5246 4595 2307 3332 
1972 5207 2287 1484 2742 2554 1640 5801 3236 
5145 3506 966 4437 3864 3144 3217 119 2168 
5777 3547 2792 3237 3799 4624 3485 4683 5804 
5314 5515 4103 5823 5202 5409 4562 3464 4295 
3947 2595 3180 4875 2520 5552 3415 4409 5366 
5653 5316 4766 5461 6020 3603 5626 5377 4366 
2472 5767 5902 1183 4803 195 3194 3783 3320 
3955 2178 3965 4858 4104 5867 5673 1256 3970 
4716 2715 878 226 4966 744 1410 1656 4454 
2285 2763 4192 5293 2128 5702 3771 2278 4010 
4877 813 4189 5870 199 5912 4400 3475 3124 
5760 4303 3329 4017 2787 3308 3981 4554 2749 
5368 3671 4709 3869 4544 5048 5539 4541 3129 
2270 3883 4500 3819 5421 4131 3653 4700 4973 
2853 2639 5243 3250 3804 4943 5382 4721 3741 
6001 3412 4179 5849 5903 4697 5959 2433 5440 
5564 4977 5839 4462 5170 2131 4358 5719 5395 
5953 5223 4726 4563 5873 3456 3385 5782 3874 
2728 4585 3417 3717 1506 3606 3832 1474 2043 
1346 4302 1035 3774 5336 3543 2813 3203 2632 
4372 5080 1825 1755 2498 1610 594 5250 4609 
1361 3449 3458 542 2451 2846 3941 3856 2919 
3132 4740 3935 3733 2187 4133 1998 3283 2811 
2809 3834 4746 2992 3861 4232 1705 6058 3769 
5406 652 2001 5282 3655 4229 5521 4111 4033 
2112 835 5105 5261 512 4956 4747 708 5163 
4469 4712 4638 3172 4220 5910 5426 5775 5948 
5498 3295 3160 5531 3381 5188 3826 3807 4257 
4101 4818 3828 3580 2711 2245 3219 5979 3611 
39 1992 2506 5128 2747 2531 2450 6060 5707 
1813 4917 58 4014 1503 5398 5068 1900 3610 
6066 3111 4023 3482 5332 2621 5838 5990 158 
1938 1377 5088 960 1922 2192 1625 1926 1733 
2479 1204 3953 101 2684 1647 2277 2538 2457 
543 1393 1479 1245 2049 2353 700 2891 3724 
791 2378 3670 2347 2435 589 2681 2772 1735 
69 4556 204 848 2856 2213 2916 314 35 
614 371 223 73 1765 1318 6012 732 801 
1861 5935 2550 1802 2580 515 2930 324 29 
737 2602 2147 2800 1550 612 1403 2703 309 
2438 3057 2912 3012 2108 1867 1585 1114 2406 
102 2280 1100 2653 4792 2063 1315 24 2080 
1708 4819 5008 93 884 1983 1415 4208 1176 
4767 2343 4841 5101 4259 2005 4472 1461 407 
3931 3972 1830 3890 657 971 1492 3607 1160 
315 42 1924 2700 2877 2233 1366 1383 2127 
711 2716 965 3231 2228 56 128 7 172 
926 752 755 2038 14 1090 804 897 1172 
1135 825 307 1055 393 568 2439 479 1340 
671 365 942 410 333 354 28 1219 105 
1038 725 210 1214 548 47 602 379 1092 
198 734 580 569 1766 1832 1819 1511 19 
4252 2334 4094 2656 981 2888 3389 5537 1754 
5121 5753 4923 220 4824 4343 3171 1079 6024 
2935 3282 334 1943 2926 4515 4751 4338 3247 
1794 3377 5630 3541 794 2675 3448 3745 2469 
2297 2620 1746 1482 4005 3085 1716 4125 2611 
4691 2977 3473 2335 2696 1448 2181 1551 3838 
2023 883 567 2389 1641 1605 1334 1598 1358 
2391 2265 2928 721 1562 96 310 1002 1561 
1727 262 715 2273 250 937 196 1216 130 
1480 1287 1099 681 667 1271 1654 231 603 
619 634 142 1438 370 2142 325 323 1579 
3099 729 688 2574 124 4571 3218 476 50 
806 362 2132 9 4105 2220 2975 2692 5600 
4314 4390 4072 2530 5259 5518 5155 5633 4204 
5242 4329 5952 1753 5764 5582 3440 4622 5362 
4497 5830 5651 5612 5729 4536 4193 2563 4681 
6049 4244 5022 5756 6018 5806 5722 3477 3956 
4356 2829 4507 4559 3048 3617 4946 4053 4091 
2481 3806 4528 2052 1723 5386 3240 3652 1124 
3151 800 1603 4755 2110 1012 3885 1843 482 
273 2610 4698 3094 2144 3489 1385 2306 347 
2798 587 2527 1299 4200 514 2404 1941 1916 
1388 521 461 1162 3457 4119 5911 809 2820 
1429 2764 5981 4620 4045 5103 4194 3996 1077 
3985 3046 5572 536 4543 5512 2841 4843 4990 
4993 4934 4763 4068 5323 4845 2180 5330 3906 
5703 5011 4694 5850 6038 5933 5439 3589 5112 
2938 4725 5551 5143 3870 5403 2165 5004 3279 
4999 4854 3910 4519 4418 3380 4717 3667 3811 
2993 3895 4217 4566 3721 6034 4793 817 5598 
4844 5569 4508 5945 5195 3076 5576 3502 4693 
544 3004 5745 4673 1848 3646 4738 5321 5721 
2467 599 3979 5096 5798 3505 4460 3749 2720 
5785 3928 5033 3740 5631 1956 4652 4445 5337 
4601 4757 4972 5381 5092 3205 5974 5254 1918 
3044 2949 1390 5284 4234 5892 5257 264 5817 
1920 1190 4868 5749 3015 5023 4870 5501 5214 
5574 4431 3664 5649 4730 4557 5544 2044 3934 
5201 6044 6069 4146 5151 5738 4325 3014 4473 
5117 3135 5212 1552 5383 3995 4739 5204 4728 
157 4379 5253 4327 4483 562 2375 243 3924 
3876 10 5771 2092 5137 2281 3078 4991 4275 
2755 5585 3711 5942 3063 3352 751 5790 4479 
905 1386 5661 4442 2942 2507 4247 5239 5438 
5627 4287 4660 5571 3990 4402 3096 6036 4075 
4654 5825 2804 4522 5161 4615 5464 4619 5100 
4998 4817 3875 5021 1795 5221 3000 2211 2584 
5776 3694 3145 5793 4799 5746 2733 4071 3140 
4514 5171 3958 631 4823 5961 5747 4838 4054 
746 1291 3007 4894 5632 4788 5401 3528 3474 
4093 5751 5210 2718 4011 5590 4423 3952 1504 
4266 5247 5660 5832 4579 5225 5334 6051 2223 
4332 4736 5407 5054 2041 5178 4030 3138 5436 
4647 3840 1594 1351 3523 5361 3628 3844 4223 
1882 1699 443 2566 249 2399 5511 3280 3880 
5874 68 5490 2360 5599 1279 3211 4778 5681 
1006 1815 4825 4662 3905 5497 5579 5723 2102 
3751 4862 5667 3560 5755 5462 3301 5306 4130 
5854 730 4929 6009 174 1743 1865 5279 4776 
3569 2782 2693 3242 1557 1230 1001 2470 621 
2823 753 2601 757 5432 5399 967 457 2162 
3878 2208 2590 5484 5036 1701 1586 2929 4410 
5851 5219 3072 5072 5356 2381 5993 1507 4099 
2183 2390 2079 5118 1664 1759 3592 3786 1950 
1120 5692 1411 4642 4729 2072 872 3867 1681 
3784 5 4524 4794 4572 6011 2011 1946 6003 
5845 1296 5671 3773 4440 5859 3604 3930 5927 
5142 4510 944 1365 4918 3355 3134 5441 1179 
4255 1380 5699 5914 5712 2594 5307 4364 3386 
5177 1826 5523 5449 5833 5736 4811 4271 5146 
4222 3141 3227 3361 137 5705 4156 5964 2969 
5909 5389 4831 3009 973 4604 3927 1808 5971 
3920 3426 2945 2443 1489 4499 4059 3270 2872 
5494 4659 2198 2921 3159 4733 2033 3596 5233 
1375 5295 5675 4540 1431 4003 4684 5015 1217 
5872 3550 2743 3360 3050 5191 5077 3821 2855 
3374 2401 2380 3346 114 5292 497 1547 5676 
5938 5333 2834 3975 3354 4704 2652 3258 1370 
4331 5795 3300 5763 4706 5853 1143 3130 1917 
4463 4025 4734 2827 2485 4551 5646 5115 1338 
2106 3315 2740 3397 4187 3122 3767 3639 3841 
2232 5266 3403 3982 5220 3732 4496 111 4493 
2785 4800 4457 5205 4211 4355 3666 4367 4292 
2587 4518 3729 5206 190 3147 447 4243 1838 
777 2384 4219 3213 703 2953 4253 1248 3720 
3445 5313 3188 2230 2056 736 787 2139 1784 
5976 1350 776 3565 1702 222 2134 978 3509 
2644 5450 998 2967 2598 3602 1801 2336 2721 
2617 1695 3451 2293 3154 6057 5154 3944 3195 
4052 1806 1004 4143 4963 1870 1367 3056 2567 
3011 1971 2303 670 5049 1498 2394 685 1873 
735 411 179 852 215 4598 662 291 5384 
46 85 3688 437 303 3379 909 1148 4263 
1091 5412 645 1651 1194 1968 296 698 1404 
3618 395 577 1322 1434 618 2304 3452 820 
1669 2219 33 3746 1443 2817 1224 1720 4274 
2163 5190 4196 1220 3663 4089 4294 4491 5309 
3143 4538 3631 1618 554 239 2582 1644 1132 
2010 1384 4344 1360 2556 2658 2971 3520 2069 
696 2680 3272 481 2578 1869 5876 5078 1165 
2529 4804 1356 1616 3100 404 1911 584 2248 
2647 1409 2003 1786 206 152 1406 1157 829 
1452 989 415 1280 839 337 727 1203 1097 
64 256 605 1138 286 57 818 1516 841 
384 104 156 1075 161 798 677 453 83 
598 2274 492 207 669 672 2534 1671 2646 
936 2521 2805 4920 463 4346 3488 4144 3903 
5587 5270 1592 1797 3215 3263 3476 1153 5955 
2440 140 2679 5733 5263 3696 2209 3467 3921 
604 5411 5844 5277 2388 3728 5280 4428 4771 
1019 5617 1572 5002 4523 4066 3484 2171 1739 
2836 4374 1809 2175 2200 2145 3428 1878 2429 
3893 3309 2761 1703 1876 3119 3265 3598 1239 
692 1559 1258 1590 2050 651 1273 769 2060 
771 591 442 451 1626 1643 168 724 1085 
564 731 1266 907 1465 555 280 472 2241 
1206 933 764 1510 1481 1888 756 523 3929 
3597 592 2528 3614 480 3310 3106 438 3909 
4438 2996 1957 4154 675 2100 4783 4065 4715 
4377 3704 3232 5810 2923 2908 4494 2333 1987 
1758 5344 3700 2927 4797 4906 6062 5020 5320 
1602 4413 1033 3853 285 3330 1475 3887 4589 
4225 4856 4833 1529 4773 4898 5467 3289 2762 
3829 3718 2790 3470 2493 3750 3254 2906 3999 
2006 3257 3635 84 1524 2561 3193 3707 1395 
1422 763 1432 430 2983 2218 1427 1158 2766 
1329 21 2941 2294 1355 3619 2828 2497 5099 
3904 2395 439 3705 1226 3816 1964 4113 2980 
3480 5954 2695 5431 2634 4008 5479 5925 3275 
4506 4653 5047 4916 6055 2201 3640 5108 5067 
4623 2637 5613 2885 2269 458 6061 5906 4168 
824 1207 5807 1309 3940 3314 4971 290 2133 
5466 1008 4235 3871 3429 5353 1295 2174 5882 
2007 2405 5836 4488 5457 4997 5683 4505 4324 
3636 3812 2865 1247 1147 95 318 4658 3680 
2552 4120 1617 2756 4504 5901 5283 1076 2985 
5532 5644 5697 4724 2986 816 2947 4230 2660 
5041 3537 4661 4852 2275 3307 4552 4887 3657 