# vtk DataFile Version 4.2
Generated by LIGGGHTS
ASCII
DATASET POLYDATA
POINTS 6000 float
-0.00736421 -0.0443425 0.00399463 -0.0237654 -0.038101 0.0039966 -0.0210079 -0.0397394 0.00692219 
-0.0236219 -0.0382851 0.0096959 -0.0144351 -0.0421636 0.00399421 -0.0151314 -0.037925 0.00406247 
-0.0182668 -0.0404843 0.00400719 -0.0178241 -0.0373203 0.00697941 -0.012968 -0.0397759 0.00688228 
-0.0165928 -0.0417909 0.00757659 -0.0131088 -0.042974 0.00930512 -0.0101814 -0.0396809 0.00400442 
-0.00335716 -0.0443255 0.00446722 -0.0105788 -0.0436985 0.00630017 -0.00740001 -0.0412364 0.00661345 
-0.00460943 -0.037367 0.00670344 -0.0057379 -0.0446283 0.00794873 -0.0100488 -0.0402558 0.00959891 
-0.00448125 -0.0402621 0.00962549 -0.00368793 -0.0402771 0.00403199 0.000895908 -0.0405962 0.00397578 
0.000580702 -0.0449642 0.00442978 -0.00119121 -0.0407697 0.00739467 -0.00151876 -0.0449558 0.00796603 
0.0030228 -0.0416785 0.00718107 0.00177868 -0.0379953 0.00841142 0.00813817 -0.0425694 0.0039885 
0.0122489 -0.0426514 0.00454008 0.00500832 -0.0401479 0.00406543 0.00472818 -0.0446945 0.00480845 
0.00889516 -0.0386723 0.00427351 0.00879296 -0.0440406 0.00768052 0.00504516 -0.0447004 0.00888132 
0.00585273 -0.0367757 0.00652541 0.0114515 -0.0398454 0.00725921 0.00678506 -0.0404928 0.00864546 
0.0121721 -0.0433125 0.00970083 0.0174778 -0.0413319 0.00406721 0.0179634 -0.0371425 0.00404213 
0.0135473 -0.0377518 0.00425606 0.0208475 -0.0397174 0.00593167 0.0153764 -0.0421751 0.00744138 
0.0182762 -0.0368489 0.00806409 0.0187989 -0.0408514 0.0091441 0.0239561 -0.0379215 0.0039941 
0.0253695 -0.0370955 0.00763122 -0.0307047 -0.0290105 0.00408951 -0.0302734 -0.0330678 0.0042228 
-0.0316554 -0.0319482 0.00810087 -0.0283534 -0.0346625 0.00830037 -0.0272276 -0.0358443 0.00403704 
-0.0233533 -0.0325258 0.0041286 -0.0259399 -0.0290445 0.00400532 -0.0245278 -0.0354802 0.00694282 
-0.0218309 -0.0298902 0.0068329 -0.0281921 -0.0284251 0.00723193 -0.021004 -0.0337394 0.0076579 
-0.0257265 -0.0316351 0.00726242 -0.0204735 -0.0358205 0.00428153 -0.0190387 -0.0303379 0.00402639 
-0.0123977 -0.0330053 0.00402251 -0.016556 -0.0335049 0.00402477 -0.0144774 -0.0291992 0.00561221 
-0.0134639 -0.0356153 0.00694685 -0.0172477 -0.0313866 0.0075107 -0.0135652 -0.031296 0.00926498 
-0.0172835 -0.0346191 0.00987063 -0.00711761 -0.035822 0.00398686 -0.00366242 -0.0297396 0.00404348 
-0.00801051 -0.0316289 0.00404218 -0.00427058 -0.0334081 0.00589524 -0.00968521 -0.037165 0.00708284 
-0.0105071 -0.0303062 0.0068697 -0.00567692 -0.0288219 0.00747126 -0.0073903 -0.032553 0.0082478 
-0.0109058 -0.0342754 0.00975289 -0.000288441 -0.0321087 0.00411993 -0.00102303 -0.0367182 0.00416894 
0.0032715 -0.0306197 0.00510747 0.00242451 -0.0347733 0.00549638 -0.00119501 -0.0353567 0.00872846 
-0.00146811 -0.0313971 0.00826927 0.00605091 -0.0336357 0.00408132 0.00906756 -0.0309792 0.00446792 
0.0100567 -0.0348592 0.00458662 0.00572267 -0.032274 0.00781447 0.00914956 -0.0355683 0.00849825 
0.0102907 -0.0304498 0.0082997 0.0131983 -0.0310294 0.00551496 0.0154082 -0.0340022 0.00398769 
0.01783 -0.0296596 0.00461371 0.013868 -0.0351137 0.00749488 0.0145761 -0.0288726 0.00860402 
0.0188574 -0.0318735 0.00804106 0.0214787 -0.0354261 0.00592222 0.0279213 -0.0351812 0.00439557 
0.0221922 -0.0315102 0.0050793 0.026887 -0.0312175 0.0040019 0.0255438 -0.0331111 0.00725086 
0.0275279 -0.0299927 0.00875358 0.0297598 -0.0287854 0.00563549 0.03356 -0.029927 0.00423285 
0.0312195 -0.0323784 0.00664861 0.0338537 -0.0296044 0.00823435 -0.0382612 -0.023662 0.00399179 
-0.0390435 -0.0217218 0.00745403 -0.0359181 -0.0269282 0.00412608 -0.0314327 -0.025084 0.00405267 
-0.0337288 -0.0287417 0.00694175 -0.0304579 -0.0211469 0.00436026 -0.034025 -0.0232134 0.00662066 
-0.029502 -0.0244665 0.00762265 -0.0367066 -0.0259713 0.00819571 -0.0214548 -0.0269911 0.00403876 
-0.026072 -0.0213117 0.00409595 -0.0274603 -0.0252226 0.00421502 -0.0221509 -0.0229638 0.00402206 
-0.0244373 -0.0265141 0.00699135 -0.0247213 -0.021094 0.00800527 -0.0209603 -0.0224962 0.00784551 
-0.0173216 -0.0266938 0.00403088 -0.0149939 -0.0222519 0.00409034 -0.0129806 -0.0258226 0.00715125 
-0.0173546 -0.0239119 0.00690991 -0.0161841 -0.0273967 0.0089476 -0.0201187 -0.0264978 0.00822939 
-0.0144359 -0.0228123 0.00938087 -0.0110583 -0.0275154 0.00400146 -0.0110082 -0.023024 0.00405269 
-0.00691509 -0.0263304 0.00408535 -0.00710316 -0.0221517 0.00405239 -0.0041977 -0.0238203 0.00732516 
-0.00907004 -0.0266163 0.00754401 -0.00838904 -0.0226904 0.00792615 -0.0029057 -0.0256892 0.00401843 
0.000855132 -0.0275676 0.0040963 0.000419395 -0.0228143 0.00428138 -0.00190214 -0.0274384 0.00760919 
0.00241236 -0.0251023 0.0070039 -0.00172367 -0.0207198 0.00791719 0.00214591 -0.0214294 0.00862904 
0.00484413 -0.0238254 0.00397169 0.00636402 -0.0279627 0.00402758 0.011044 -0.0275011 0.00402502 
0.0109996 -0.0225583 0.00404046 0.00820498 -0.0249538 0.00589016 0.00693056 -0.028329 0.00814427 
0.00612104 -0.0214185 0.00789468 0.0152443 -0.0263855 0.00481882 0.0159658 -0.0222432 0.00505988 
0.0130016 -0.0224271 0.00774531 0.0198513 -0.0243226 0.00632479 0.0190894 -0.0277516 0.0090432 
0.0164048 -0.024846 0.00836636 0.0212082 -0.027541 0.00429507 0.024902 -0.0279101 0.00590585 
0.0239789 -0.0239291 0.00490115 0.0281991 -0.0247606 0.00545146 0.0224465 -0.0213002 0.00805848 
0.0264877 -0.0211661 0.00780834 0.0228691 -0.0254634 0.00869699 0.0363657 -0.0265377 0.00431167 
0.0324996 -0.0258473 0.00520759 0.0366659 -0.0225025 0.00476846 0.0326807 -0.0218429 0.00498966 
0.0302693 -0.0227627 0.00846355 0.0363423 -0.0263939 0.00833525 0.0344813 -0.022398 0.00859219 
0.0400856 -0.0204457 0.00509138 0.0385755 -0.023038 0.00836936 -0.0423053 -0.0152472 0.00417317 
-0.0402577 -0.0199036 0.00396993 -0.0389681 -0.0143591 0.00617387 -0.0407253 -0.0177264 0.00738812 
-0.0425652 -0.0132879 0.00791507 -0.037913 -0.015627 0.00981803 -0.0350202 -0.0203013 0.00408841 
-0.0361068 -0.0121339 0.00407735 -0.032076 -0.0166055 0.00408087 -0.0319059 -0.0124065 0.00406916 
-0.0365852 -0.0177144 0.00669071 -0.0357868 -0.0205775 0.00957777 -0.0322925 -0.0189606 0.00738572 
-0.0350567 -0.0138199 0.00754346 -0.0310307 -0.0147092 0.00754219 -0.0230328 -0.0182534 0.00397688 
-0.0264477 -0.0160018 0.00399131 -0.0280752 -0.018335 0.0068338 -0.0206977 -0.0183814 0.00720885 
-0.0257291 -0.0140455 0.00742916 -0.0213129 -0.0140198 0.00734486 -0.0189657 -0.020327 0.00398609 
-0.0147916 -0.0181029 0.00400299 -0.0139886 -0.0139297 0.00399809 -0.0179476 -0.0156424 0.00423899 
-0.01264 -0.0204311 0.00675755 -0.0169255 -0.0199395 0.00745579 -0.0128632 -0.016315 0.00711968 
-0.0156167 -0.0126322 0.00743426 -0.0177309 -0.0159649 0.00844862 -0.0100954 -0.0190753 0.00399603 
-0.0101412 -0.0149841 0.00453591 -0.00660524 -0.0167416 0.00403695 -0.00634587 -0.0124698 0.00445389 
-0.00556432 -0.0198439 0.00711232 -0.00913866 -0.0181361 0.00775626 -0.00997345 -0.013162 0.00820787 
-0.00638107 -0.0150942 0.00771746 -0.00275828 -0.0149599 0.00404464 -0.00140971 -0.0188857 0.0040747 
0.0018684 -0.0126224 0.00482935 0.0025709 -0.019408 0.00518357 -0.00307674 -0.0171172 0.0091244 
-0.00277251 -0.0129187 0.00748939 0.00029409 -0.0159527 0.00640124 0.00100369 -0.0129924 0.00900007 
0.00413386 -0.0158168 0.00404887 0.00728422 -0.0203088 0.00414138 0.00724598 -0.013312 0.00431772 
0.00921419 -0.0167909 0.00533079 0.0112824 -0.0133788 0.00451153 0.00465753 -0.0138866 0.00759973 
0.00446244 -0.0177263 0.00876752 0.00996143 -0.019714 0.00793191 0.00883782 -0.0135139 0.00800412 
0.0129441 -0.0191674 0.00523687 0.0194732 -0.0196632 0.00544444 0.0151874 -0.0134032 0.0055814 
0.0174341 -0.0203767 0.00882035 0.0125506 -0.0158933 0.00750402 0.0189416 -0.0141605 0.00675339 
0.0163982 -0.0171753 0.00618821 0.0246231 -0.0185206 0.0043917 0.0227448 -0.0133186 0.00580538 
0.0217902 -0.0169378 0.00723939 0.0256526 -0.0158063 0.00733525 0.0285146 -0.0136374 0.00917799 
0.0293834 -0.019562 0.00548231 0.0294492 -0.0155649 0.00572657 0.0364992 -0.0160108 0.00547225 
0.0371169 -0.0192983 0.00772111 0.0331711 -0.0180835 0.00635963 0.0333274 -0.0142416 0.00750358 
0.0404834 -0.0165514 0.00597779 0.0429436 -0.0134384 0.00649765 0.0391994 -0.0134191 0.00824661 
-0.0435015 -0.0114243 0.00442653 -0.0375816 -0.00581412 0.00438933 -0.0441779 -0.00743321 0.00442794 
-0.0396427 -0.0104358 0.00527511 -0.0439597 -0.00937957 0.00808433 -0.0374049 -0.00806859 0.00767198 
-0.0407815 -0.00526359 0.00759862 -0.0446357 -0.00532422 0.00867673 -0.0301149 -0.00691043 0.00502371 
-0.0334817 -0.00460568 0.00424589 -0.0340623 -0.00856522 0.00461282 -0.0300754 -0.0103497 0.00754822 
-0.0340121 -0.0100436 0.00842954 -0.031979 -0.00528535 0.00817946 -0.0278493 -0.0120975 0.00446944 
-0.0239103 -0.0114316 0.00437493 -0.0218516 -0.00796336 0.00400692 -0.0261756 -0.00770243 0.00477263 
-0.0254356 -0.00414492 0.00645253 -0.0213848 -0.00489038 0.00656257 -0.023604 -0.00799471 0.00786515 
-0.0275684 -0.0067235 0.00877627 -0.0197891 -0.0121325 0.00398409 -0.0154278 -0.0100935 0.00430369 
-0.0134829 -0.0066454 0.00508812 -0.0177852 -0.00713551 0.0056701 -0.0199018 -0.0100557 0.00743801 
-0.0155905 -0.0045828 0.00790624 -0.0157795 -0.00883128 0.0087831 -0.0106985 -0.0109774 0.00469673 
-0.00955906 -0.00676954 0.00419527 -0.00516672 -0.00859467 0.00398875 -0.00486656 -0.00457695 0.0040029 
-0.0118204 -0.0093153 0.00827121 -0.0109409 -0.00520548 0.00798985 -0.00744427 -0.00892819 0.00729859 
-0.00695218 -0.00484733 0.00848941 -0.00178201 -0.0109932 0.00415383 -0.001464 -0.00695428 0.00404313 
0.00318004 -0.00893617 0.00405422 0.00233582 -0.00475219 0.00424601 -0.00343014 -0.00796825 0.00781213 
0.000456753 -0.00948208 0.00713714 0.00371626 -0.00652835 0.007643 0.00662684 -0.00673912 0.00490111 
0.00930227 -0.00972551 0.00475974 0.0110599 -0.00614688 0.00531236 0.00581267 -0.00999858 0.00719596 
0.00842574 -0.00521928 0.00823399 0.00947703 -0.00949192 0.0087646 0.013289 -0.0099044 0.00489047 
[...]
POINT_DATA 6000
FIELD FieldData 7
id 1 6000 int
2479 1546 117 234 1691 1741 292 1031 2586 
2513 3941 3269 281 542 3453 1668 4073 135 
3968 1883 870 720 4232 3418 2122 2001 3382 
4124 502 2920 652 3098 4777 2775 710 5217 
4590 49 471 4074 20 4362 3416 4087 531 
935 574 316 2206 902 252 62 3471 537 
71 1715 1846 2101 1307 123 1903 270 468 
1890 139 2809 969 2867 204 1652 2394 2019 
918 735 2347 3724 843 1619 660 835 2850 
3492 3639 64 3298 973 3938 662 215 2810 
118 3008 708 2740 2418 314 268 364 1318 
1123 917 606 528 1962 466 1060 842 552 
452 810 773 1706 30 244 63 2444 1 
2894 684 1055 38 626 791 670 69 632 
1280 622 415 51 365 382 568 2074 600 
339 329 685 176 363 992 46 230 291 
251 2752 80 411 402 732 85 165 35 
522 247 73 274 350 1189 437 988 1354 
396 1765 654 257 2339 747 512 313 170 
1074 1311 421 638 32 48 88 762 499 
1078 1093 66 427 1197 1139 517 1044 498 
297 265 519 825 1011 2537 2213 152 1191 
1097 561 588 1141 1301 789 784 351 276 
955 1203 727 28 1406 2648 1583 848 460 
1091 640 1440 109 455 398 219 852 921 
223 214 1038 515 156 282 392 440 858 
614 91 520 781 432 1065 18 178 1732 
34 609 1584 1401 330 1713 529 1419 976 
1039 1628 646 1072 1269 550 1523 1071 2109 
441 221 822 479 404 926 128 145 812 
444 1135 1452 1626 393 307 507 333 1219 
989 2439 839 1067 1542 377 235 1861 911 
337 161 2 841 1232 1138 602 445 616 
580 677 1257 558 308 864 211 1046 682 
645 1362 964 1930 383 408 400 401 582 
1886 1045 1372 1397 209 886 1228 1015 2326 
2636 397 2863 2663 107 2263 2292 608 647 
713 75 434 474 678 957 1022 1561 1491 
635 171 883 829 671 1157 1436 380 262 
759 168 1131 1369 184 673 1156 1684 555 
650 1171 410 185 818 1206 758 987 217 
565 725 301 951 76 384 1214 545 379 
59 1766 245 1471 19 1259 1632 1446 2704 
338 173 1568 938 664 1576 44 1236 997 
241 3045 916 484 984 2366 2113 3110 1243 
906 136 885 2452 1570 1458 45 840 1016 
590 1358 96 1727 1108 366 1560 1216 1234 
1002 1101 105 98 368 564 764 177 508 
286 942 724 359 354 523 164 1094 104 
659 785 381 598 344 124 1738 390 47 
1272 1182 1792 207 1511 1829 341 2659 575 
149 208 2517 1687 4810 1525 1424 1426 857 
1606 3201 748 740 483 1304 2778 236 1709 
1534 865 1095 1340 166 1645 153 538 388 
721 306 196 591 43 1066 667 513 578 
1287 122 879 532 130 352 890 275 154 
557 2879 362 2132 2776 50 23 1693 2915 
666 672 2629 1958 658 2523 2961 3595 742 
2635 2555 2331 1855 2579 267 2709 849 2022 
893 887 1215 2383 2328 1667 1887 1642 1267 
1246 1177 701 656 1070 851 1180 311 2167 
859 266 348 937 370 1465 798 867 490 
619 688 1969 2574 57 227 1339 325 2528 
1536 433 4105 2511 399 343 2705 874 2940 
3432 2324 797 2633 2955 2290 1711 1961 583 
687 1648 2249 305 2398 811 242 2266 100 
129 1724 418 795 299 1320 420 1864 40 
603 461 385 756 279 200 1000 681 1077 
127 2764 983 530 862 592 970 1195 1970 
1564 636 61 2182 1306 2844 1907 13 993 
132 1164 927 86 601 910 133 31 637 
940 524 417 1136 1069 2161 766 572 1162 
288 620 15 828 229 373 1017 160 175 
3856 101 978 114 3953 2380 2749 3902 3475 
2216 2698 3827 3458 3730 3653 3124 4303 4272 
4466 3449 3839 3834 4768 4718 5236 4569 4942 
4544 4229 3668 4122 5124 5760 4202 4740 4556 
5808 4365 4371 5504 4602 5363 5049 4026 4434 
5691 5265 4982 525 3923 3455 1053 429 294 
1922 1733 2677 1371 1625 1277 2684 1393 1990 
2353 998 1479 1204 2891 589 3363 2378 2457 
2192 2451 2049 3132 2495 2617 2856 3208 1787 
3861 2992 3227 3129 3769 2639 5833 3767 3935 
3397 2303 3655 3315 4605 3741 4700 6045 2460 
248 4746 4985 5106 4930 4080 4649 303 3534 
5181 3933 5194 5384 126 435 706 1145 3 
774 143 738 4088 2008 3576 679 1333 3702 
3212 2746 869 1449 1261 2149 1827 1456 1376 
767 358 1193 1294 1181 960 1926 543 1492 
172 493 979 1735 2346 2070 584 1971 1245 
804 3137 2681 1899 2614 3011 1379 802 2502 
2085 2627 3122 2065 2848 1788 2791 772 3439 
1775 4831 3465 3663 2547 284 201 2969 2487 
3077 2997 3982 801 111 1148 3964 3059 2232 
3841 3379 985 371 1472 694 296 1630 2542 
2626 2329 1914 1152 3549 2585 2135 2358 3006 
1837 1088 2261 500 336 2327 2173 2000 657 
1482 948 649 1336 850 711 1383 1947 1366 
755 14 179 897 570 2038 300 1004 2003 
320 1231 761 547 1238 425 1283 448 1086 
1994 929 1290 304 1678 1483 2214 1699 2291 
3073 2323 1166 449 1841 1897 2247 2123 3493 
2741 1408 2055 1061 492 968 1781 2773 1198 
3591 2449 94 630 909 2580 29 894 945 
581 1555 2785 3027 3914 1802 1092 324 261 
1853 1194 629 2930 2602 1968 2550 2438 1539 
1550 216 81 1512 1891 1184 2612 1955 477 
576 302 374 2148 1013 628 1939 1347 278 
1345 2094 1790 1588 2477 1021 930 2510 2297 
2410 2387 1163 1776 1445 1254 2478 2491 1810 
2340 2428 991 7 1085 716 1090 1342 752 
1235 2028 1911 1387 349 112 778 148 749 
25 1244 167 648 1761 1381 786 1368 464 
1001 526 2086 782 780 1270 1151 1338 1274 
1057 607 1003 1894 116 675 962 138 2102 
1253 821 860 1281 11 125 548 238 8 
277 669 83 1548 827 169 1292 210 1284 
1403 734 1200 1633 698 1585 1651 726 737 
1600 1767 1466 1027 1352 1828 1670 1905 1129 
1221 403 459 1874 1607 1698 1305 426 1885 
2227 1115 691 549 2423 1934 1240 2097 1770 
2338 2363 2432 2990 56 1562 707 1641 1694 
1953 1172 1134 263 103 1734 1616 369 1258 
808 1252 793 1430 327 944 1412 1276 535 
919 803 974 1824 1058 2083 2056 1380 1319 
436 469 633 1036 830 949 182 1155 995 
345 1453 1714 256 188 805 97 1321 222 
925 213 847 908 346 783 405 480 1032 
198 70 1804 999 447 33 395 2274 641 
1404 627 981 1056 2280 1322 1592 1730 2654 
1832 2897 1631 881 904 2236 2392 1949 2857 
1637 78 2905 26 2560 2420 3758 1563 1421 
1462 2883 1757 1768 3353 1859 2490 1505 2059 
1722 3588 2118 2104 1334 17 2459 3005 2389 
2015 2105 2023 206 2060 1590 1450 2606 2265 
1348 1620 1051 1444 982 450 731 1175 815 
1357 1023 1337 769 1494 1266 779 714 975 
1665 836 1634 269 465 376 605 4 1169 
202 1208 873 65 391 488 37 1205 82 
423 613 653 1438 882 541 438 1532 814 
1797 1671 936 271 775 596 2793 2911 463 
2217 2534 2334 569 4205 2518 1043 3243 551 
1910 2754 4909 4403 4139 4837 2136 3753 496 
2600 1901 2768 181 1612 3040 3681 1611 1944 
2264 2687 3305 2900 2974 2385 353 3600 1300 
952 1959 1052 3915 2691 1288 162 250 1223 
900 1605 442 1850 963 1598 567 472 1480 
310 715 1643 283 1422 1158 651 2296 451 
280 634 892 587 697 534 1427 915 326 
689 1271 253 553 53 419 914 845 340 
501 106 323 134 665 1075 1117 1332 2631 
1159 2551 1862 1192 3689 1029 1821 1638 1107 
2426 4280 453 1819 618 4154 2521 4377 2100 
2436 1526 2999 3851 4035 4459 4452 3993 4191 
5135 4032 4592 3101 3793 3988 4678 3585 1614 
3093 2071 680 3662 55 92 3189 3546 1037 
3089 2577 1816 1528 1218 1400 896 2391 1798 
1420 2591 2807 2987 1831 1527 27 1385 559 
2095 514 2262 1556 950 2190 516 1654 1398 
907 231 1378 328 347 1099 1185 1126 1747 
1888 560 1581 1048 439 1103 539 2241 933 
1414 1516 142 295 1429 1957 3099 1896 2544 
959 2210 2396 9 2475 476 3909 2364 2588 
3218 3436 2220 2081 4711 4020 1487 3822 3859 
1168 3389 4252 3466 5726 2393 3245 2731 5664 
3166 5541 4188 4867 2950 3068 1225 2258 2302 
1923 146 1913 2341 2400 3023 2852 1531 2655 
2642 1689 456 676 2197 1188 2462 3431 67 
2235 2345 121 1817 663 431 1490 319 2519 
1186 2404 194 1510 729 853 826 3396 1226 
1538 1497 1388 1005 1118 1749 674 298 2315 
2830 1579 2411 2515 2996 1621 806 1390 611 
2325 1762 4227 446 1750 3408 60 3420 1317 
3368 3058 3126 3017 2111 2543 2501 1805 2454 
540 367 1034 1024 863 2751 895 412 478 
1211 258 1146 2116 1679 387 357 254 1906 
4268 809 819 1520 2256 3762 1514 546 1028 
1662 2151 961 1047 1010 1807 2403 1818 3409 
2289 3028 2589 2283 2514 1325 3052 3615 413 
3226 3747 4865 2737 3082 871 497 3374 3773 
1998 4133 4400 3794 6058 5178 2787 3464 4017 
3347 3223 5515 5539 3882 3308 5409 5804 4006 
5406 4447 3949 4853 3869 4484 5695 4128 4086 
4427 4709 4970 4060 3723 5645 4388 5929 4600 
5298 5358 4174 5684 5224 4249 5297 6037 5346 
4267 5097 2427 3216 5420 6059 315 1360 1801 
1451 2967 2846 2605 2069 1705 2134 3509 2096 
3944 3975 4033 2811 4663 4111 3424 3733 2112 
5522 3883 3361 3141 4179 1664 5048 5219 4167 
5421 5282 4469 4187 5163 3699 4956 3804 6007 
4131 3578 3961 5483 5557 4747 5290 4304 5536 
5500 3738 3791 5846 4598 4284 3710 4892 5043 
5451 5913 6043 4888 3387 473 4353 3913 5663 
6012 5105 4682 4703 3313 3421 3075 3039 4000 
1650 1739 2412 2175 42 1647 2237 971 2538 
2336 1924 1840 2647 700 2435 1869 1695 2277 
1676 4237 2567 2721 3983 2652 1367 1748 2772 
2596 1929 1870 2309 1498 3684 3009 2882 3079 
3016 3349 4063 3708 2823 3116 4890 3920 3555 
5345 4846 3351 3372 5723 3337 3748 4263 3770 
5858 4530 5235 4646 4518 4874 3772 3732 3688 
4430 4638 3230 4290 4496 5498 4355 3032 4405 
3618 3311 4741 5935 5281 4511 4257 1707 2569 
3984 2222 3443 3324 3872 5014 3479 5915 5680 
2020 1659 3335 3069 1574 1716 1809 3085 2658 
2481 2036 1160 3520 2093 2716 3607 481 1624 
2680 2578 4374 2700 965 1839 2248 1873 1447 
2119 2847 3358 2171 3778 6 1963 1931 2039 
1772 2332 2925 3105 1811 1594 1111 625 4918 
2859 2254 2382 3634 3191 3508 2892 2125 1842 
3867 2409 2494 3965 4384 2783 3577 4285 3213 
2694 3729 3003 3727 1639 4003 4260 4083 416 
2322 3147 190 3033 1995 3580 3611 577 1915 
2147 2703 2108 3666 3807 3295 2310 876 3102 
1331 3414 3373 3957 3381 3375 4389 2623 1154 
3013 2843 2536 2453 4013 3709 3066 3229 2611 
2469 2212 3254 2836 4005 2127 2877 3231 2233 
1746 3251 2018 4125 2228 1409 1586 1927 3100 
1786 2106 1996 2745 1104 753 2272 193 898 
1375 1489 838 2259 1133 2075 1604 1696 2196 
2417 1936 2298 1981 1435 2407 1537 2504 1834 
1080 1979 1517 696 1580 977 2010 2540 1635 
1543 712 509 458 733 1720 150 1170 884 
1685 861 1213 820 1629 1298 1928 2587 1935 
2174 2640 604 2953 612 1434 1867 1838 2912 
2531 1909 2503 2080 1871 1655 309 2245 2959 
1437 3192 2896 4478 1686 1751 3297 2114 639 
2603 3459 1098 2998 2732 1721 3682 3260 3048 
4046 3939 4002 2738 4254 3128 2881 3745 3617 
3293 2062 2512 1945 3473 1710 2181 1356 2620 
4498 3635 1559 2050 1161 1551 1273 486 692 
1876 1239 1147 1658 2616 1068 586 972 891 
623 1476 1335 84 1822 595 491 533 831 
566 95 1974 192 624 495 1355 1549 285 
2058 1823 931 1683 750 686 240 212 1425 
699 141 744 1997 290 1405 1233 187 875 
703 723 102 1443 1224 2051 2532 1315 1114 
1503 39 1596 2480 1289 3012 1374 3103 2156 
1799 3220 1249 3136 1063 2013 2739 3022 2666 
2129 2130 1474 986 2251 2257 3185 3446 3184 
2870 4940 3659 4155 3992 3838 4559 1872 1782 
1448 3065 3641 2099 3685 2561 2446 2744 4528 
3257 1703 833 771 3083 2317 505 1202 1124 
1573 1524 1122 2002 1795 503 1250 163 877 
610 722 225 1040 807 322 1286 1143 1165 
1459 1310 760 41 372 260 237 115 617 
1073 585 489 422 443 180 120 1217 1050 
980 1499 99 1854 2219 1100 1187 24 2384 
2960 3413 2304 2488 3215 2653 2343 4159 3900 
2861 5110 3529 4685 2842 3649 2202 5050 2875 
3855 3726 4668 2650 3857 3071 4114 3544 3393 
3542 3366 3153 4507 3583 5053 4854 3246 2356 
3020 3837 4608 4091 3999 3652 1578 3177 2696 
87 1723 3240 2977 2442 3169 2006 800 1898 
430 318 273 246 1603 360 1700 705 487 
763 137 1389 1541 1952 1054 695 1359 1316 
147 1149 1530 1229 1237 1796 342 615 2153 
332 191 1119 889 3163 834 2177 799 233 
4070 2354 3755 1464 1500 1314 2849 2238 3106 
2656 4094 2805 2923 4346 4932 3452 2568 4883 
4872 5090 5007 5560 5991 4901 5487 4857 4781 
3010 5040 4616 5200 5524 4789 4714 5422 3210 
3511 3579 3162 2748 2686 3406 2965 3410 3434 
4999 4418 3599 3209 2924 2781 2928 1803 2983 
3501 2052 2993 3279 1012 2273 2032 3094 1843 
1395 482 1432 3173 144 2073 21 1167 1329 
1653 1719 518 2373 1835 110 3095 655 1260 
1173 2484 2294 2441 1106 2862 2619 2048 2526 
2572 3256 2455 2546 3563 3757 2067 2530 4650 
2027 4882 2646 1615 2978 3476 4438 4065 2975 
2888 2692 3488 5566 3232 5259 5155 4197 4536 
3321 5495 5583 4948 5577 4258 5815 5781 5084 
4138 4885 3087 2447 3910 4341 3262 2583 2789 
2242 3444 3399 3165 3340 3540 4184 2311 3868 
1673 2821 3815 1932 3398 4334 5185 903 924 
2545 1991 2120 2144 2814 1941 4135 3581 1481 
2142 1916 2941 2972 2497 2527 1299 2395 1718 
3206 3625 2424 3929 2695 3816 4001 3597 4348 
3780 3510 3590 189 536 4390 4045 4012 4543 
4606 4482 5226 3545 4791 2618 3980 5150 3369 
3530 5542 3552 4815 3427 2895 2944 3661 2352 
2593 3107 3514 2676 3322 2708 3809 1791 1851 
3463 2622 2103 4264 2117 2962 2064 2799 3405 
2825 1627 1399 1535 521 4360 4995 3367 2499 
2788 3356 2077 3491 4391 2665 2869 3647 4381 
4176 3316 2549 3310 3967 4571 4345 3908 3364 
3536 3291 1365 4647 2782 1743 3329 3844 3138 
3840 4022 4500 5316 4756 4683 4562 5026 3947 
5368 2520 4464 5202 3892 5706 3825 3521 5424 
3285 4321 5314 3531 4919 5732 3725 5794 5372 
5402 5739 4209 4373 4761 4106 3922 5302 5055 
5052 5573 6053 5318 5229 5529 5260 3616 3586 
5227 2971 2644 3154 2598 4039 3451 4143 2458 
4704 4331 4440 2293 6057 2485 4734 1806 5927 
5736 5712 5938 3412 4847 5964 5389 5366 4437 
4153 5256 3927 2131 6001 5673 5811 5849 2853 
4604 4697 4943 4762 4140 5909 5521 5875 4553 
6032 3021 6027 4939 6029 3690 5705 2916 5728 
3558 5059 5303 5299 5134 4689 5304 5943 5936 
5238 4719 4534 5255 3714 5348 4782 5514 4737 
4465 6010 2483 3025 3104 2556 2200 1849 3195 
4241 3630 868 2474 4052 3945 3670 4222 5750 
5153 4025 2831 4271 2871 2931 3621 2381 2079 
3029 4989 4036 5039 3907 5388 5341 4527 4029 
5840 5446 3426 4378 4383 2443 5682 3403 4292 
5205 4800 5127 4659 4595 5775 4433 5390 5170 
4712 5513 5412 5220 5223 4493 5266 5426 5948 
5718 3030 5716 5261 4308 4457 5188 5081 4509 
5586 3954 5962 4357 4935 5665 4910 3692 5322 
4610 4567 5553 2906 2558 2552 3407 1509 2963 
1800 4132 2762 3893 2994 3119 3462 3265 4250 
3401 2607 5876 4754 3942 1881 1675 2557 2468 
2576 2667 3648 4407 1623 2320 1880 2818 3524 
2529 3130 2763 1222 2470 2604 741 2168 2668 
3280 1889 3207 2282 3277 2361 3202 3516 4540 
3564 3506 1660 2260 2489 5805 5035 2638 5206 
3026 4219 5128 3270 3217 3392 3781 4021 2506 
4367 4211 4243 3672 5317 5531 4095 2711 3219 
3160 3084 2800 3828 4101 4350 3826 4212 5278 
5423 4828 3019 3454 5478 5864 3948 5700 4309 
4412 5730 5080 4192 4248 3336 2335 2145 3959 
4178 2493 2757 3905 3830 4016 3437 3863 3272 
2936 2473 2710 2372 2801 1984 3139 3561 2377 
1866 3504 2399 1486 2482 3224 2321 2004 757 
1513 2554 2414 1384 2176 2207 2743 2072 1657 
2421 1808 2651 2061 2682 2082 2194 1940 218 
2496 1701 3532 1470 1992 2948 1137 2230 2198 
1692 1895 1697 1663 1113 1826 2747 1688 2128 
2355 3860 2672 113 2982 2770 3035 2054 2189 
2767 3342 1382 3550 2431 4376 3777 3478 2419 
3057 3784 5131 1041 3359 1461 4382 4240 4784 
3362 2613 4454 4924 2837 2750 4053 3636 2670 
3470 3565 3377 4318 3309 2761 4804 3151 3402 
3750 2430 3274 2774 6005 1893 1878 2769 2966 
2724 2899 2790 2898 5596 4576 899 693 2226 
36 644 990 1364 1349 1125 1468 378 1326 
151 813 511 454 1575 1153 1485 317 406 
119 1900 1190 1035 272 1084 642 228 1242 
1312 777 1431 224 787 58 2025 1230 1506 
2376 1377 428 1353 947 1708 2369 1296 2958 
2250 2312 2162 1411 2229 3323 4055 2107 2337 
4448 3296 2943 2365 2822 4276 3494 2860 563 
3238 4707 3388 3829 2184 3481 1946 4691 4246 
4946 3680 4217 4328 4618 4802 4062 4089 2945 
3977 4064 4696 2717 4419 4558 3111 3157 3062 
2932 1892 2865 3743 2314 4708 1116 1496 1082 
2139 1179 2040 2143 1150 355 1728 1264 556 
424 108 457 16 946 475 1278 856 544 
880 90 1007 407 928 846 409 776 334 
389 186 293 205 939 1059 1081 1813 255 
2817 2643 941 1825 1754 2063 2813 2910 1983 
2406 4298 4306 3798 3570 3518 4597 4727 5968 
4745 2780 3677 2505 4004 4630 4517 2719 4807 
2968 4512 4443 4658 3698 4753 3485 4922 3613 
4731 4755 3573 5117 3707 3858 3248 2076 3276 
3193 3622 3292 4566 1942 1908 1577 1391 506 
1769 2141 1729 1484 3142 1877 832 462 1554 
817 159 386 922 1413 923 1478 259 1014 
1567 668 1328 901 414 1933 1475 1033 52 
1265 1951 1327 2440 1669 3239 1351 3031 743 
1455 4343 3317 2163 4920 4239 1985 4895 4081 
4913 2908 3903 4842 2753 4876 5006 5251 5300 
3064 4370 4851 4450 4632 4692 4599 4679 4244 
4519 3842 3627 5269 3667 4907 4717 5637 5786 
5993 5264 5725 5018 3806 2610 5386 3450 4152 
6002 3934 4655 2756 1858 3400 593 4613 3895 
2465 2766 1460 1018 3037 3721 792 2795 631 
2985 1973 2641 2218 1814 1904 1783 2826 823 
1519 2570 3070 770 2828 2221 2690 1844 3117 
4395 2500 3526 1868 2904 5172 2707 4964 2952 
5600 5476 3686 4715 2140 2893 2957 5537 5764 
4269 4314 5633 5270 5176 5572 5658 4816 5083 
4667 4680 5074 5678 5162 5503 5465 3503 5649 
4531 5143 5380 4603 3146 4251 5809 4145 2760 
4555 2835 3433 4526 4270 3679 5549 3041 4453 
3304 3334 2729 4549 4351 4293 5575 4701 4698 
2306 2798 4126 3843 3675 2868 3779 3489 3442 
4738 2467 2535 3430 3904 3614 2720 4043 5231 
3002 2980 4100 5431 3704 4069 2592 2946 3810 
2854 4181 5454 4671 3996 4335 3951 6025 5981 
5103 4506 5218 4881 4699 5009 5989 4477 4990 
5174 5285 6006 5863 5934 5787 5574 5831 3775 
4277 4352 2797 3719 4933 3512 3898 4635 4748 
3805 4158 3038 2794 4190 4164 4583 4082 3288 
4108 3517 1308 2299 2884 1121 4115 3551 4690 
5180 2193 5982 4057 2699 3963 2463 4926 3665 
5184 3566 5742 5417 4591 4392 3186 4573 3950 
4224 5367 5512 4480 3327 5161 5460 3671 3484 
4687 6017 4409 5957 6019 4582 4103 5828 4411 
5428 5768 5377 5073 4752 6040 4775 5416 5944 
2645 3833 4904 4501 5511 4315 2878 4586 5093 
3820 5152 5662 4297 2984 5904 5796 4548 3120 
4834 4456 5455 5208 5232 5292 4361 2919 3283 
3088 5213 5058 5245 4811 5361 5552 4541 5839 
4295 2187 3819 4364 2566 3001 4099 3987 5359 
5243 4462 5258 5903 4875 5823 3144 6028 3415 
3326 5719 6047 4563 5347 3180 3385 4928 5241 
3731 3785 4009 1725 5045 2252 5711 4896 5639 
6048 5856 5852 4743 5592 5902 4954 4570 4463 
4744 5932 4502 5142 4148 5497 4439 5672 5759 
5949 3812 4864 1917 2662 5086 5030 5462 2838 
5400 2937 5598 4980 5533 3800 4963 1726 2590 
5146 3673 4758 5397 5789 3386 4665 4156 953 
1677 2433 5034 3273 5873 4499 5867 4657 2872 
5199 3447 5448 4420 2014 3587 5997 3205 5069 
4988 5189 2301 5481 4278 5506 5701 3932 2649 
4123 3172 5584 2066 5154 5563 4206 5740 3737 
5848 5526 5325 6016 4821 4322 5710 6068 5951 
4210 5157 3973 5277 3302 4066 2562 5912 3438 
5578 1196 1793 5985 5715 5874 2307 1863 2183 
3428 4580 4047 5772 2792 2917 5799 5044 2834 
5803 2225 2098 4050 2390 4984 1042 2413 3114 
3306 1209 2170 3538 4625 4189 3994 4302 4826 
3346 5065 2939 4220 3846 4461 5340 5826 5489 
4214 2524 4147 6065 5955 2422 5013 4359 4347 
4674 3911 4196 4339 3610 5410 5484 4130 4279 
4372 5319 5166 4587 5159 3047 4760 5072 3115 
3789 3490 2819 2425 3267 2285 5025 3014 4751 
3746 6015 3598 3182 4058 5147 5016 4417 3152 
4739 2005 2918 2759 2779 2733 2091 2466 1836 
2873 2594 2240 1636 2158 2351 3225 2362 2188 
3196 2624 1109 1977 1062 1656 287 3435 765 
1256 1251 1967 1313 2461 3486 3620 2284 131 
2450 2609 1982 1972 2927 2951 5085 3390 4358 
4102 4446 2688 3629 4320 3081 3236 2088 3669 
3873 4539 1587 2933 4085 5474 5077 4185 3754 
3628 3995 3522 5923 1302 2771 3370 5688 5646 
3090 3774 5020 1833 4150 2318 3148 1553 3894 
1282 2375 2671 3214 1346 1902 2564 1784 1690 
2851 3034 1392 1601 10 1815 1529 905 1110 
1142 1144 1875 872 1617 1087 1467 794 1950 
1780 943 249 1591 1547 1760 1386 702 485 
1096 1241 72 1794 2786 1753 1845 3472 2166 
2437 5588 3606 3548 2379 4722 3161 3572 4166 
5681 5182 2486 3782 1571 1394 2954 2796 3394 
3765 1610 3874 5765 4792 3917 4397 4636 4037 
3074 2388 5599 5432 2584 2685 5309 5456 1789 
3823 5000 2914 5351 2203 3299 996 2548 736 
1680 1569 3158 1227 2215 1295 739 1064 356 
643 197 1006 1248 1812 1582 239 1752 140 
289 5 494 573 1469 527 1613 89 158 
510 1442 1755 746 878 1297 22 2045 3852 
1978 2964 1566 2456 1830 1418 3567 3328 4078 
5070 3632 5332 5641 4375 3469 5315 2758 3626 
5393 4436 3448 4780 5670 4593 5068 2445 5990 
3482 4656 3683 3419 3261 2044 4866 2243 4337 
3234 5060 3495 4316 4161 5496 3528 1986 5057 
2164 2057 3468 1361 2295 4142 2833 1268 199 
68 1595 1599 2035 1130 335 1279 2986 1291 
1076 1112 321 888 1344 854 621 1518 913 
157 954 1852 1303 1407 77 2725 2509 1943 
226 2903 1702 2370 3700 1176 2374 2342 3282 
4824 3644 5027 2279 3263 4204 2031 3817 2615 
4458 5488 4515 4622 3391 4944 5802 5362 4614 
2722 5022 4170 3962 5806 4330 6050 3477 3870 
3768 2803 4084 5138 4473 4898 5562 5967 3897 