# vtk DataFile Version 4.2
Generated by LIGGGHTS
ASCII
DATASET POLYDATA
POINTS 6000 float
-0.0204074 -0.0400366 0.0175539 -0.0165854 -0.0387893 0.0176223 -0.00857598 -0.0441698 0.0171049 
-0.0125502 -0.0431731 0.0181521 -0.00777466 -0.0394765 0.0179236 -0.0042943 -0.0447103 0.0175739 
-0.00375714 -0.0379532 0.018602 -0.000335799 -0.0449999 0.0170202 0.00155589 -0.0398864 0.0175867 
0.0040971 -0.0437526 0.0175506 0.00646742 -0.0402927 0.0177223 0.008523 -0.0440347 0.0179352 
0.0132575 -0.0423721 0.01717 0.0162858 -0.0375583 0.0178899 0.0183767 -0.0409329 0.019123 
0.0246695 -0.0371145 0.0175719 -0.0335866 -0.0297771 0.0191706 -0.0267375 -0.036185 0.0192276 
-0.023038 -0.0346003 0.0180603 -0.0266209 -0.0323815 0.0178266 -0.0132193 -0.0368229 0.0189143 
-0.016486 -0.034337 0.0176985 -0.0198489 -0.0321687 0.0178545 -0.0147869 -0.0307591 0.0185684 
-0.00948071 -0.0356663 0.0180505 -0.0109092 -0.0297341 0.0186131 -0.00485614 -0.0338307 0.0176126 
-4.23888e-06 -0.0363639 0.018751 -0.000884815 -0.0320276 0.0182476 0.0039227 -0.0366485 0.0175694 
0.00429488 -0.0288409 0.0175715 0.00852103 -0.0362459 0.0179774 0.00675053 -0.0320529 0.0191758 
0.00948471 -0.0290757 0.0176974 0.0125107 -0.0358077 0.01829 0.0146822 -0.0323651 0.01757 
0.0167998 -0.028964 0.0188004 0.0202998 -0.0353205 0.0185559 0.0242584 -0.0318227 0.0179545 
0.027919 -0.0348271 0.0170767 0.0308025 -0.0325939 0.0188781 -0.0361739 -0.02649 0.0192544 
-0.0320918 -0.0259035 0.0183239 -0.034652 -0.0227807 0.0191681 -0.0301383 -0.0208011 0.0184035 
-0.021831 -0.0281114 0.0179688 -0.0280241 -0.0263033 0.018592 -0.0265452 -0.022479 0.0189344 
-0.019788 -0.0247513 0.0189485 -0.0151406 -0.0251229 0.019009 -0.0169796 -0.0216384 0.0181893 
-0.0128899 -0.0210903 0.0183468 -0.00733871 -0.0274957 0.0186871 -0.0109166 -0.0256283 0.0188701 
-0.00875178 -0.0212165 0.018098 0.000227897 -0.0279036 0.0184266 -0.00203227 -0.0222598 0.0174276 
0.00697659 -0.0252907 0.0179655 0.00961862 -0.0211301 0.0185992 0.0134143 -0.0222104 0.0176325 
0.0172032 -0.0233464 0.0190531 0.0198104 -0.0263303 0.0183516 0.0266904 -0.0217887 0.0177364 
0.0261548 -0.0260476 0.0179903 0.0223685 -0.0227707 0.0175059 0.029519 -0.0282446 0.0181996 
0.0337286 -0.0250146 0.0176294 0.0300426 -0.0233979 0.0192318 0.0332335 -0.0209656 0.0189768 
0.0373037 -0.0221674 0.0181168 -0.0412428 -0.0179757 0.0180214 -0.0425905 -0.0140914 0.0179652 
-0.0380815 -0.0157419 0.0190372 -0.0371659 -0.0196481 0.0190482 -0.0341964 -0.0169965 0.018297 
-0.030274 -0.0168453 0.0193012 -0.0308743 -0.0130135 0.0182259 -0.0236338 -0.0168794 0.0184331 
-0.0228531 -0.0128081 0.0182918 -0.0270089 -0.0145799 0.0185515 -0.0194173 -0.0184497 0.0184002 
-0.0153359 -0.0178072 0.0183571 -0.0158525 -0.0138117 0.0188269 -0.00487935 -0.0190175 0.0189157 
-0.0121515 -0.0154463 0.0189062 -0.00850152 -0.0172351 0.0186933 -0.00466293 -0.0150237 0.0184403 
-0.00825413 -0.0132075 0.0184909 -0.00089021 -0.018432 0.018253 0.00291307 -0.0168904 0.0182415 
-0.000693781 -0.0144148 0.0183739 0.00655335 -0.01856 0.0182283 0.0103695 -0.0142958 0.017958 
0.00611367 -0.0131478 0.0179513 0.0162132 -0.019211 0.0179967 0.0124088 -0.0179407 0.0183865 
0.0195308 -0.016776 0.0181646 0.013743 -0.0121922 0.0188391 0.023933 -0.0189072 0.0184009 
0.024657 -0.0137038 0.0185013 0.028687 -0.01365 0.0184703 0.0290748 -0.0188469 0.0192673 
0.0326082 -0.0129315 0.0190045 0.0325254 -0.0169355 0.0184641 0.0368069 -0.0143362 0.0188659 
0.0420516 -0.0155768 0.0185585 -0.0377008 -0.011872 0.0181005 -0.0438061 -0.0101281 0.01822 
-0.0406417 -0.00553558 0.0187461 -0.037286 -0.0078397 0.018259 -0.0327621 -0.0094839 0.0182535 
-0.029042 -0.005672 0.0186252 -0.0287056 -0.0096599 0.0186157 -0.0246954 -0.00926214 0.0188466 
-0.025084 -0.00522854 0.0189892 -0.0210533 -0.00476742 0.0188517 -0.0206482 -0.00875359 0.0186417 
-0.0155253 -0.00982549 0.0183279 -0.0124545 -0.00712826 0.0182616 -0.0165816 -0.00608377 0.0192931 
-0.0116775 -0.0111183 0.0180952 -0.00765894 -0.00923261 0.0183399 -0.00483139 -0.00519717 0.0184605 
-0.00882749 -0.00535597 0.0183316 -0.0041321 -0.0110577 0.0188977 0.00348184 -0.0101105 0.0182894 
-0.00164461 -0.00756538 0.0191295 0.00261068 -0.00620302 0.0184746 0.00973121 -0.0103744 0.0186735 
0.0064462 -0.007365 0.018226 0.0144699 -0.00815599 0.0182814 0.0139185 -0.00419342 0.0185025 
0.0265062 -0.0101103 0.0182803 0.0207301 -0.00885613 0.0181121 0.0242122 -0.00683334 0.0182425 
0.0304581 -0.00948241 0.0183894 0.0351524 -0.00603223 0.0185172 0.0311634 -0.00554054 0.0183728 
0.0364691 -0.00984152 0.0183494 0.0403005 -0.0117472 0.0188026 0.0438599 -0.00973745 0.0190603 
0.0402613 -0.0077064 0.0187195 0.0445683 -0.00583091 0.0178019 -0.0440848 -0.00353941 0.0183201 
-0.0398987 -0.00145853 0.0181392 -0.0416739 0.00264245 0.0185265 -0.0449676 0.000372157 0.0184541 
-0.0366339 -0.00388077 0.0183116 -0.0329239 -0.00235963 0.0182023 -0.0360983 6.87897e-05 0.0187713 
-0.031047 0.00210792 0.0184979 -0.0291559 -0.00131487 0.0193833 -0.0211918 -0.000738153 0.0190847 
-0.0251642 -0.00119155 0.0189767 -0.0229415 0.0028462 0.0187782 -0.017466 -0.00220574 0.0188329 
-0.018172 0.0018878 0.018652 -0.0141605 0.0036924 0.0184174 -0.0139355 -0.000254825 0.0190388 
-0.00716967 0.000699182 0.0183723 -0.000409631 -0.0035758 0.0186236 -0.00372581 -0.00133725 0.0184875 
0.000217406 0.000386933 0.0184027 0.00382499 0.00218678 0.0187994 -0.00343511 0.00263272 0.0189797 
0.0101112 -0.00290914 0.0181835 0.00697001 -0.000327924 0.0184018 0.0107238 0.00103462 0.0186793 
0.00773335 0.0036895 0.0185963 0.0174718 -0.00226355 0.0182717 0.0203481 0.000529197 0.0183499 
0.0146437 0.00194148 0.0185813 0.0181555 0.00387077 0.0184996 0.0219014 -0.00353216 0.0180082 
0.0267168 -0.00359297 0.01873 0.0240927 -0.000431168 0.0193907 0.0276489 0.0011292 0.0184096 
0.0236084 0.00339618 0.0183051 0.0303846 -0.00167426 0.0192627 0.0345086 -0.00210155 0.0189855 
0.0355005 0.00207865 0.0193616 0.0314878 0.0021734 0.0193765 0.0384782 -0.00355108 0.0187249 
0.0396984 0.000742216 0.0185771 0.0449143 0.00242803 0.0186536 0.0423093 -0.00242614 0.018443 
-0.0380241 0.00551547 0.018339 -0.0445233 0.00567007 0.017873 -0.0402247 0.00890051 0.0180435 
-0.0325897 0.00698239 0.0183487 -0.032884 0.0110839 0.0188604 -0.0254867 0.00592969 0.0183296 
-0.0250763 0.0099078 0.0182371 -0.0211433 0.0107278 0.0182526 -0.0175133 0.00586546 0.0187305 
-0.0137692 0.00775217 0.0183375 -0.0172486 0.00986197 0.0186122 -0.0141291 0.0123505 0.0183182 
-0.00812167 0.00461097 0.0183342 -0.00454786 0.0064119 0.0182821 -0.0102312 0.0113744 0.0182264 
-0.00474275 0.0104079 0.0183177 0.000441139 0.00436433 0.018754 0.00273862 0.00982393 0.018584 
0.00468257 0.00630626 0.0185404 0.00934982 0.00737941 0.0187753 0.00947615 0.0120317 0.0187562 
0.0150638 0.00645689 0.0184543 0.0133393 0.0102106 0.0191636 0.0175993 0.00978085 0.0190616 
0.0272171 0.0050785 0.0178641 0.0211005 0.00657452 0.0186138 0.0252923 0.00852249 0.0187222 
0.0274635 0.0119549 0.0188351 0.0234447 0.012133 0.0190158 0.0330957 0.00892686 0.0179522 
0.0292792 0.0083159 0.019004 0.0369511 0.00911169 0.0190734 0.0414331 0.00439466 0.0183086 
0.0435903 0.0108762 0.018674 0.0396484 0.0121012 0.0187563 -0.0396922 0.01285 0.0193016 
-0.0419477 0.0161361 0.0187968 -0.040274 0.0200053 0.0189255 -0.0363602 0.0187924 0.0183222 
-0.0341268 0.0154027 0.0188827 -0.0297552 0.0164734 0.0185841 -0.0254176 0.0139155 0.0183527 
-0.0204736 0.0145854 0.0191027 -0.0170557 0.0166614 0.0184051 -0.0203618 0.0193131 0.0184175 
-0.0155409 0.0203231 0.0189473 -0.00691671 0.0137745 0.0182806 -0.0111948 0.0191643 0.0191425 
-0.0113576 0.0151696 0.0190034 -0.00177799 0.0130678 0.018684 0.0017337 0.0149897 0.0187931 
-0.00395466 0.0164457 0.0186998 -0.00384183 0.0204436 0.0188693 -0.000384021 0.0183847 0.0186525 
0.00519408 0.0129759 0.0187918 0.011928 0.0151858 0.0189584 0.00796301 0.0158623 0.0187571 
0.00701331 0.0197616 0.019085 0.0111107 0.0194966 0.0187205 0.0156516 0.0134666 0.0188255 
0.0196694 0.0134734 0.018823 0.0192129 0.0174258 0.0193973 0.0152145 0.0174714 0.0189125 
0.0229066 0.0161103 0.0185499 0.0259375 0.0187815 0.0180337 0.0221424 0.0200632 0.018364 
0.0352166 0.0127249 0.018753 0.0300571 0.0149961 0.0184639 0.033753 0.0164404 0.0189925 
0.0359189 0.0203189 0.018002 0.0301167 0.0190036 0.0183438 0.038143 0.0158016 0.0183098 
0.0423777 0.0149913 0.0192685 -0.0380805 0.0234934 0.0185778 -0.0349045 0.0259463 0.0188193 
-0.0300317 0.0286084 0.0189067 -0.0269436 0.0217524 0.0181545 -0.0272358 0.0257309 0.018713 
-0.0239283 0.0279246 0.0192045 -0.0236035 0.0239416 0.0187615 -0.0200858 0.0258412 0.0191421 
-0.0162177 0.0268588 0.0188233 -0.00777501 0.021171 0.0186007 -0.0123697 0.0269109 0.0177076 
-0.00840161 0.0265345 0.0188121 -0.00516126 0.0242073 0.0184612 -0.0113172 0.0230769 0.0182187 
-0.000595926 0.0227588 0.0183733 -0.00373766 0.0279838 0.0183444 0.000176658 0.0270844 0.0184874 
0.00832817 0.0274895 0.01824 0.00429035 0.0279158 0.0184821 0.00595276 0.02415 0.0182879 
0.0105437 0.0239909 0.018799 0.0172625 0.0208939 0.0186075 0.0123709 0.0275475 0.0187064 
0.0145319 0.0238411 0.018428 0.0169896 0.0270941 0.0188134 0.020522 0.0237439 0.018445 
0.025147 0.0249212 0.0192809 0.024239 0.0288501 0.0189754 0.0309201 0.0240613 0.0186502 
0.0302388 0.0281155 0.0184121 0.0367325 0.0258704 0.0178657 -0.0237059 0.0358294 0.0185254 
-0.0272524 0.0314335 0.0181806 -0.0232402 0.0318449 0.0184439 -0.0193066 0.0296905 0.0183355 
-0.0198462 0.0339567 0.0182403 -0.0154181 0.0308181 0.0185715 -0.00924785 0.030977 0.0183842 
-0.00769233 0.0349811 0.0182577 -0.0050526 0.0319313 0.0186303 -0.00347489 0.0356141 0.0184567 
0.00105069 0.0352969 0.0186787 -0.000901988 0.0317774 0.0184632 0.00348928 0.0319819 0.0187668 
0.00674984 0.0353177 0.0179412 0.00755114 0.0314132 0.0183507 0.0113876 0.0321272 0.0192469 
0.0105931 0.0360393 0.0187915 0.0150847 0.0305893 0.0191941 0.0163405 0.0361621 0.018314 
0.0184152 0.0328135 0.0190316 0.0203476 0.0363094 0.0188162 0.0224256 0.0326384 0.0190011 
[...]
POINT_DATA 6000
FIELD FieldData 7
id 1 6000 int
5932 4744 5227 1128 2569 5093 34 2066 4737 
2609 1154 5605 4782 3479 6010 2666 5739 5943 
3421 313 2984 3039 3387 3032 5545 18 4439 
4465 3324 2536 5322 1650 4359 2222 5730 403 
3040 4412 4610 2227 3022 143 5052 4006 679 
4456 1152 5229 5529 5728 2623 5303 3120 2020 
1013 5962 1939 2612 1347 3753 1721 2905 2392 
3359 2251 2136 1687 1563 4867 2560 5420 4853 
525 5363 4649 3 5402 6043 5304 3558 5856 
4570 3549 2358 2626 654 1354 257 3075 426 
5586 1767 1228 664 2768 1236 2114 576 78 
4139 4837 2379 4159 44 181 4722 4026 4388 
2122 4249 5106 4362 3416 3961 5298 4284 5451 
2339 1630 5500 396 1732 432 274 1584 1129 
1372 582 1576 408 2704 2555 1305 1698 496 
3010 4810 4032 4789 1612 3101 5524 3585 4371 
4074 2418 1546 4060 268 3534 1741 720 364 
5846 402 5224 165 640 2810 1440 440 214 
864 1362 616 1637 1046 211 381 2659 2844 
3595 3245 459 2857 2961 2629 2709 3900 2290 
4592 5495 4883 3793 3530 2731 4600 1376 638 
1371 3098 935 529 1307 660 1108 2867 840 
758 508 1180 1645 164 560 1272 61 1749 
2915 1168 1325 3408 399 5815 2077 258 6006 
4391 60 3988 4667 2111 2327 292 2113 421 
2863 2094 88 30 441 1628 1424 1246 1534 
1177 420 133 100 3662 1215 851 1514 853 
1034 2400 572 2403 3396 1069 3665 2151 4690 
2515 2289 1627 3566 4307 417 2699 2510 1606 
2326 2452 427 2385 647 2366 1944 590 680 
2778 1304 236 993 2583 2120 687 4965 2501 
1164 2161 4264 194 2064 2283 1211 819 910 
1146 5896 483 1269 3093 2071 887 3600 3068 
1528 900 92 3189 3431 1805 2895 2852 2352 
3023 1689 2258 895 540 2799 4019 637 4360 
357 1713 3005 3322 3087 3427 3089 2655 2676 
242 2789 2462 1225 2249 412 4158 4474 5868 
367 5639 3922 5260 5302 4682 5904 5081 3616 
4315 5759 1396 5416 5827 5662 4896 3326 4312 
3325 3568 6014 4984 932 3974 1659 3714 2014 
4000 4206 5005 4534 1540 4986 3054 302 1874 
3335 5672 5514 5592 5949 5085 4322 2037 1558 
4357 4422 5364 5740 3948 4567 3313 1333 5732 
4373 6059 3702 4775 3212 4106 4752 4209 4411 
5768 6040 5822 6027 5724 4928 5167 2625 4969 
5186 4809 5957 2261 1891 4703 2878 374 5701 
5156 5848 5584 5328 3587 5325 4297 4123 5481 
361 4151 4446 5241 2638 1439 470 5423 4042 
4136 5478 1397 2453 5166 3954 3013 3709 3069 
3081 4674 3350 2922 1098 4240 4013 2732 2013 
2129 5373 5890 6037 4086 2427 473 5573 3586 
4321 5663 3285 3825 3725 4761 3216 5318 6029 
5875 5794 2008 6032 4153 3531 4939 3984 3833 
3731 3006 5059 5977 1123 4509 3021 4762 5255 
4405 2148 5281 5014 1837 4954 5189 3375 1088 
3373 2310 5665 5696 4821 5915 3102 2422 3872 
3414 2843 3957 4935 5956 2603 3781 5864 5680 
609 2998 2982 4320 3478 4382 3260 3777 2229 
1636 2337 4350 3362 5061 1242 2257 3726 2968 
2505 3185 2822 3494 4924 1901 3388 5346 3521 
4365 3882 20 3668 4970 4128 3892 5929 1962 
5297 3710 5706 4484 4174 5808 5097 4353 4088 
3576 3923 4719 4982 4267 6045 5290 774 985 
747 4689 5852 3230 5718 1065 2524 3692 350 
178 4888 5936 5711 5238 216 209 5348 628 
1539 2746 938 241 3932 4511 1015 1607 1955 
1352 1730 4376 5700 1631 1331 881 1828 1707 
1437 1885 2517 3459 2754 1905 1063 3220 2896 
4478 2107 3682 3071 2331 2420 2130 986 3136 
3161 3323 2650 2739 5393 5147 4893 4078 4628 
5040 4276 2780 4616 3626 994 3481 5684 3455 
3382 471 1903 4590 3208 2513 3839 5691 4087 
5217 710 38 281 5194 4718 2920 5557 4553 
988 5695 531 4602 528 4892 5645 6053 2135 
738 606 1145 706 3059 3492 81 3933 1512 
876 917 1914 3913 248 4741 1600 3311 477 
1472 1930 401 282 1184 629 1045 575 1632 
1221 886 2236 682 726 1027 639 208 1886 
26 2654 3045 3103 2897 1568 904 1043 3758 
997 1949 3681 2861 4872 2842 4685 2999 72 
5182 4114 4668 4448 3798 4745 3570 4298 2875 
3469 3677 3855 4450 4188 4517 2579 4436 3391 
4004 3235 2206 3938 2586 3471 1691 117 2677 
4569 1449 499 1277 574 1846 358 4777 3968 
4202 49 1715 3269 842 71 5265 3791 3008 
4080 251 2850 789 1619 2329 435 522 377 
2775 3298 118 507 329 235 247 858 5181 
1189 301 368 694 392 98 987 2 383 
964 565 659 275 91 217 1232 951 341 
338 1446 173 641 1711 3851 2793 1471 1257 
1738 4191 245 797 267 551 5135 1855 2600 
149 1374 1526 5090 2081 2633 4452 3649 658 
3993 1958 4909 5050 5583 4403 1907 4857 5007 
3518 3017 4678 175 4630 3432 4306 4807 4170 
4714 1078 537 252 1445 278 976 1261 2338 
62 48 316 1706 502 1093 63 1074 1401 
1456 552 474 608 468 870 3453 822 622 
75 1 550 170 2109 1011 171 517 1141 
1458 145 434 136 153 1171 1709 311 306 
748 1066 444 812 538 380 266 890 390 
513 1339 2631 490 1070 1000 867 1103 1182 
2879 983 1792 2911 1010 524 2776 279 1195 
2325 2182 2635 874 530 5566 2523 4392 5084 
2543 5664 4035 2705 2955 446 3166 4591 160 
3082 3747 3466 1306 2393 2940 1961 3552 4258 
4138 4948 636 3545 5781 5200 4876 2950 3967 
2990 500 1240 2059 2883 2432 1523 107 2363 
234 2292 2423 1790 1505 2263 762 397 330 
1770 466 678 1072 353 984 857 952 1218 
45 1420 1462 162 740 2015 1223 2591 2095 
1267 1850 1887 1016 849 859 2167 3581 418 
129 795 1913 1378 1798 559 1817 1969 1005 
200 1490 663 1724 766 4245 385 1864 23 
2511 620 456 31 127 40 940 298 3780 
3551 4513 3409 3028 1136 1317 15 4926 674 
1621 2869 2514 4573 3226 5982 4381 611 3615 
1818 546 3369 4791 229 1308 1017 2549 2118 
1934 1859 3210 1060 1311 1419 2636 2478 2022 
2264 484 1768 3353 906 1039 1426 2104 2663 
3201 1052 1570 1421 1037 2686 1525 2328 1667 
2691 3406 1126 1300 1642 3304 1831 67 2995 
5066 1816 1923 2345 2262 2398 4098 4135 132 
863 2117 1991 1188 2519 4664 2197 2299 1320 
1679 3463 3038 1028 927 2825 5742 4176 3963 
2256 5419 1520 961 601 387 1807 2884 5367 
5272 3186 1535 3998 4480 5430 5184 1047 3327 
3908 3950 1757 3110 1611 2097 583 2974 549 
3399 4352 893 916 1959 2687 2944 4270 3594 
2900 55 5185 2302 1614 4293 5496 2383 656 
2311 2987 950 2642 4184 4453 5575 5973 3041 
3249 1932 2814 3868 5855 5758 5082 4190 4701 
3514 2341 478 2235 2751 3809 3843 6021 4629 
5621 1399 903 13 1791 299 4082 4639 5743 
3919 2116 2962 5296 3762 2726 5180 4705 5417 
1906 1121 3889 5460 1648 3162 146 5780 2266 
4526 3775 4277 6046 4933 2797 4635 4334 2729 
3898 3444 4317 5139 5119 1673 3512 4748 6063 
2683 1024 5986 3719 4077 3290 6000 5342 2103 
5819 3805 5615 3411 4164 4108 4899 3288 2708 
3367 2794 2593 5032 1851 2454 3517 4034 3107 
1662 4501 3849 4361 2645 5213 2714 5685 5458 
5359 1521 4826 4687 1680 3306 5347 4134 3112 
5051 5556 3736 2702 2522 4586 3737 1771 3390 
3986 5841 5565 4578 2508 2386 5528 5607 3152 
5385 2886 2864 5944 4326 6016 1601 5610 5710 
4127 3553 4743 3706 5526 5203 3873 4347 3507 
5486 4464 5358 5202 5804 4562 5424 6017 4022 
5073 5828 4103 3180 4582 2520 3415 3947 4471 
1020 3847 4723 3281 2344 4875 4406 6020 2595 
5045 2784 6023 1417 4749 2195 4340 6004 1565 
5215 4803 2939 4195 3991 3801 3785 4805 2268 
5244 3345 5013 5499 1774 3994 1777 2316 4565 
1323 1062 1087 4399 5813 5588 5024 1737 4212 
113 6065 2159 4309 1293 5951 4021 1690 4988 
5294 2553 5634 5886 3435 1764 4447 5760 3223 
4017 6007 3869 4683 5515 4303 3308 4544 4304 
4140 5026 5483 5823 4919 3699 5539 5421 4700 
6047 5127 3539 5811 6001 4943 5243 2853 5382 
3447 2078 745 4308 5055 6008 4433 2301 5461 
2433 4697 4721 5719 1392 5448 3378 3454 2434 
5910 5440 5659 4339 1982 5563 4461 3019 3997 
3846 5489 5390 1965 4147 2431 2688 5278 2840 
1871 855 4165 2284 2711 4363 3776 3632 4879 
1935 2496 4904 723 485 2860 1820 796 3548 
4228 4784 4486 2613 1736 4759 1493 4849 2362 
1760 4466 5124 5236 3730 3449 542 4400 2216 
3458 3941 3347 3949 4272 4942 4122 3902 2787 
3329 4740 3935 4709 5372 5536 4427 3723 4746 
5282 3653 5406 2992 126 3690 5913 5105 3738 
4131 3741 3804 5521 3655 5134 5299 3030 5261 
5716 4956 512 5426 708 4220 5531 4910 4095 
3443 3172 5935 5188 5948 2147 4389 2245 3381 
2108 3807 4828 2770 3342 2480 1686 2355 1655 
1909 3192 3084 2958 3712 1697 2054 1751 5995 
2640 2503 3035 321 272 2051 1845 3297 4727 
2365 2369 718 3026 2231 4512 2934 2758 5445 
3857 579 5918 3827 4124 2101 135 4073 2019 
1890 429 1990 2479 3363 4768 3418 969 3132 
270 632 2346 2809 2698 3724 2457 4434 139 
1668 4605 3834 5504 1787 1652 918 652 3769 
791 5043 2001 4712 35 339 835 2916 4556 
204 371 2542 73 614 1765 1318 223 732 
801 411 520 2550 1853 781 2585 308 1802 
515 2580 2930 1092 1633 737 400 3057 2602 
1550 1403 1832 1466 2217 2156 1670 2959 1056 
612 2488 3529 1249 3012 1867 2280 309 2406 
2202 4205 1799 5110 1315 2910 3238 4597 5070 
3296 5968 4398 1312 4081 4055 4780 5641 5315 
2719 4342 6050 4330 4049 5769 1275 850 32 
452 1776 902 1031 1294 336 767 294 1053 
649 2000 1922 2237 1827 1574 2444 2036 244 
948 684 1181 570 1947 1193 1810 1163 810 
2537 1883 2894 69 979 1197 493 3137 172 
7 2460 123 221 843 626 265 1191 848 
314 825 1055 1135 188 1684 673 1542 455 
1861 365 410 333 352 558 238 1214 725 
354 548 1038 602 1829 2960 734 1259 76 
1910 666 1284 210 47 580 1766 569 4280 
742 3413 2436 4932 4252 19 2334 3317 4094 
3321 3064 5006 4842 5991 4239 2692 2568 5027 
4816 5802 4913 5560 2753 5487 4458 4269 2615 
5965 4944 3328 5422 4679 4375 4614 4851 3962 
4931 4370 4692 4289 5788 869 1588 2491 2477 
1345 1021 4002 2149 2410 4046 2173 4254 3229 
1115 66 1336 2428 2512 3066 498 707 1710 
1254 773 1044 297 646 519 17 128 2062 
957 56 1641 1436 1139 1071 1491 1562 1334 
713 1022 479 926 1340 1561 1369 942 307 
184 635 1560 96 1216 130 196 348 532 
177 667 1438 619 634 1271 1287 1118 545 
1536 1192 1747 2574 323 124 4571 142 3099 
4711 1693 4227 3126 4459 433 4020 1487 2220 
3436 3058 2975 2132 3243 3859 1750 4901 2324 
3822 5226 1762 5633 3368 5678 5541 5577 343 
5503 5176 5726 5488 5878 4599 5251 4680 5863 
4781 5300 4632 5162 4815 5380 5465 4885 5075 
4702 3588 2490 2387 3184 3128 3446 4940 2738 
1722 1782 3305 1945 2356 691 3366 3641 1953 
1694 2744 2606 3939 4155 1872 2105 2459 885 
2807 1288 1450 3209 1095 865 166 2577 701 
721 963 3094 516 366 1243 328 1556 310 
896 388 1167 1527 43 2073 1400 514 1654 
27 122 431 1398 924 937 1186 319 461 
2404 231 305 4606 688 3356 4268 2972 603 
729 809 4057 362 862 2475 373 4100 3491 
3625 5454 1564 5752 828 1970 2665 189 4348 
2588 3316 5218 1390 3980 4470 970 3364 4482 
3420 4881 4197 2737 5934 413 2618 3536 5542 
5074 3544 3153 3542 3583 3579 2748 3434 3246 
2965 3837 3599 3410 2781 3340 3020 2099 3915 
3546 2821 3177 1803 3501 3165 4351 1531 3815 
2190 3540 4126 3262 3334 2545 3398 1653 4549 
518 3675 4798 1941 4584 3442 2144 3400 121 
4583 2868 676 1538 3779 521 5558 2535 4738 
5911 826 811 2622 3036 3810 4115 5231 4394 
2777 4953 2463 4345 3405 3647 2499 3848 4069 
5133 3590 5674 4173 4141 2589 3052 2788 6025 
5404 4180 5042 5731 5834 4865 5009 5821 3888 
5463 5150 5267 5787 3623 5285 5174 4224 5140 
5989 4671 4699 4477 4152 3393 3661 2447 4341 
2242 4655 2835 3433 4603 6002 2076 5091 5549 
2608 2760 4261 1018 3897 1545 1877 4891 4169 
3357 5881 4485 4118 5173 5351 5937 1049 2889 
2727 3460 4198 5538 4915 5485 4056 5969 5094 
254 5987 5916 4503 1763 4861 5919 5287 5835 
4983 86 4199 4641 288 5126 4300 3266 5999 
4651 4487 5158 4908 4850 4978 5095 4221 5773 
5640 4256 3133 5312 5931 6030 5847 3450 5786 
2902 5984 5447 5725 3679 3234 5550 3850 5104 
4432 5543 2979 3383 4354 2276 4677 3333 4596 
5392 5234 5193 2880 5248 5113 1609 4839 5249 
3562 1857 4489 2723 5473 4813 5757 2907 4349 
5252 5331 2402 5897 5374 3656 5921 4617 4806 
2193 5491 4995 3759 4756 3840 3713 5436 2786 
4869 3523 5482 4223 5063 3575 5410 2890 1110 
4116 5527 642 1773 4595 3148 6013 3820 3338 
5350 4183 3559 709 3633 5792 4451 5152 5415 
4829 3795 2226 5668 5561 1999 1030 3703 2970 
5452 4581 2416 4238 2413 2300 1937 4561 2199 
4502 2430 4695 3464 5314 5178 1743 5552 3138 
2782 2158 2866 4776 5653 2601 757 5399 5377 
5972 2307 3603 4766 5626 3224 3814 4366 2472 
5767 1183 3691 3783 5744 3320 5839 3194 1363 
5442 5003 1977 5708 195 2137 2581 4836 4858 
2178 3965 5222 4790 6064 4031 4880 1199 5138 
1007 3461 2874 5209 1256 4296 3881 5192 4380 
4424 131 4627 3425 6048 5391 5555 2943 2767 
5891 4636 2649 3942 5327 504 5770 5336 4226 
2042 3543 1825 5912 5250 3124 3374 3773 5409 
5368 4541 3981 3671 3134 5859 5927 4440 1865 
5142 4295 5048 5316 4500 4973 4409 3883 3819 
2693 5914 5441 4364 4179 3412 5366 2639 2208 
5902 5849 5712 3250 3386 4271 5564 3072 4977 
5959 5903 5170 2131 3955 137 5775 3803 5223 
2988 788 4462 4563 5873 5395 3456 5964 3672 
1847 4818 3385 4726 5782 2024 5908 3219 1646 
5707 5979 2728 4302 2506 4917 3606 2376 2184 
4546 5650 571 2450 5068 2466 1474 1084 317 
2026 3111 2498 1755 1361 5332 5398 594 6066 
2954 5990 2621 2451 3475 2380 2919 497 3794 
3129 4554 4133 2749 2187 5938 3975 5333 2834 
4232 4229 1705 6058 4033 2270 2594 5795 2827 
4747 5736 5146 3315 4469 4111 2485 5833 3227 
2112 3141 3767 2882 3122 5705 3361 5163 4638 
3397 3841 4187 3403 3295 3160 3982 4156 4604 
5266 4358 5498 4257 5220 4457 2800 3826 4101 
3828 4367 4493 4211 3729 2912 3580 2531 1503 
1992 3611 39 2747 5128 2587 3147 58 3852 
6060 4819 2080 4792 4014 5008 777 108 5838 
77 1983 93 4023 1900 3610 4208 884 3482 
4841 4305 4259 2005 1938 1377 407 158 1702 
1461 2192 1733 3856 2846 2401 1625 978 1926 
3953 1204 101 2684 998 2134 2353 3509 1479 
3733 2811 1998 1245 2049 3283 2891 2617 3451 
1695 2721 4025 2347 2378 3861 589 1806 2772 
3670 2435 4143 1870 2303 2856 5049 1971 4598 
2394 685 735 1748 662 6012 852 3639 2740 
3688 215 5384 2232 1148 51 46 324 29 
3732 437 5412 303 3379 909 4263 296 581 
3666 4355 4518 2703 1651 2785 1194 2438 698 
1968 577 1200 1032 1585 1114 1838 1322 102 
1434 2653 1100 2063 1754 1708 24 3263 3452 
2817 2150 941 1415 1079 2343 6024 1176 2926 
334 4767 4515 4472 1830 3247 3377 3890 3931 
3972 960 1492 2277 315 3607 1647 1160 42 
2538 1360 1924 1393 543 2877 1383 2233 700 
711 2127 965 481 2578 2681 1366 755 2038 
1735 14 584 1869 1004 1911 2248 568 3011 
2213 804 1406 152 415 670 829 1452 337 
28 291 1203 1138 727 1097 1091 64 256 
818 379 85 645 841 1516 630 156 104 
677 445 598 1511 480 2274 395 83 384 
207 672 1671 438 2888 1592 2656 463 981 
1819 2805 3389 2534 4346 5537 4923 4920 4204 
5121 5753 4343 3903 220 4824 2964 3824 5362 
2935 4329 3282 1943 5651 5612 3467 4338 4244 
794 3541 5756 6018 5630 3477 2829 971 930 
657 2700 1746 2297 1482 1739 3085 1809 2836 
2340 2018 4125 3251 3473 2335 1448 3231 2228 
2181 1172 752 883 1598 1090 3100 2050 1559 
1258 1002 1157 393 897 2265 671 1358 206 
262 2060 404 1626 1219 1727 2439 105 591 
1480 555 451 280 724 1206 564 286 785 
605 1465 523 370 798 1481 3597 2241 198 
325 3218 453 756 3106 1075 3929 592 9 
2100 50 2646 5600 2530 476 3488 4105 5270 
4390 4438 2996 5259 5764 5952 4314 4843 1753 
5155 3440 5582 4622 3503 5323 4497 2722 5242 
5011 5703 5830 4193 5439 4531 5806 5722 5022 
4536 4725 2938 4356 3956 5551 5143 5729 3870 
5403 2165 5004 2881 2870 1716 2469 3745 4005 
3048 4053 2611 3685 4528 3065 2620 4691 3838 
2696 3309 2977 2389 2924 2023 800 1723 2391 
1124 1551 567 273 2983 2032 1605 2273 482 
1843 1590 442 347 2928 250 2527 1385 1916 
715 1099 2306 907 587 2497 1643 21 2142 
1388 472 681 1510 3614 5099 1226 3904 2980 
806 2820 1162 1579 3457 2764 4045 4119 1957 
3310 5925 3480 6055 1077 5103 1429 3996 4620 
536 5981 4543 5572 3275 5092 5658 5512 4993 
4990 5381 3985 3046 4934 4763 4234 4675 5083 
3906 4068 3015 6038 5850 5214 5652 5831 4868 
5649 4694 4730 5501 4557 3659 4507 3617 3511 
4608 4559 3652 2481 3910 2052 4999 4946 4418 
3240 4091 3173 3806 4613 4755 1012 5386 2993 
3380 1603 3678 2110 4698 3895 3489 1395 4566 
4508 3885 3721 2610 4793 2798 3076 3502 1299 
4693 4200 5195 5721 2467 3646 5576 3584 3505 
2720 3979 4852 5096 4673 4724 5033 3749 5785 
3740 4887 5884 5631 4652 5922 4442 4445 5275 
1956 5616 4163 4335 4012 5604 5254 4972 5257 
4247 3096 5161 5023 5892 4615 4870 3990 5284 
5100 4431 5749 4619 5574 4492 4037 3279 3667 
4519 3292 5264 5637 4555 3037 3934 817 2057 
386 4670 4217 4844 4146 6069 3135 5569 4213 
5930 4529 1856 5745 5383 5945 5253 5212 2016 
2976 1473 5130 3164 5321 5877 4676 4379 4203 
4157 3918 4275 5812 2047 4460 3925 5771 3582 
2092 5648 2367 5698 4959 5585 5123 3711 3063 
5590 5942 2507 5438 5625 5832 5860 4402 2942 
5239 5054 5334 4654 6036 3291 4075 5464 5825 
4112 2044 1202 1569 5357 4273 6044 5201 5151 
4998 5117 4473 5428 3788 2295 5657 5394 4796 
5620 4728 3875 4886 6052 4160 5148 3612 5276 
3694 2084 5879 2541 3145 4548 5079 3643 5843 
4414 5444 5694 3884 4937 5747 3474 5961 3865 
4011 3651 5994 3952 4175 4266 6051 4423 4579 
5225 4736 4332 5116 1351 5361 1699 3844 5874 
1882 249 443 5801 1042 5490 3332 5246 2160 
3506 2742 5681 4090 3864 1692 2313 5016 6035 
3236 2981 1484 1640 3547 119 4437 3217 5340 
1954 3515 5618 3144 3319 4624 2792 3970 5365 
3018 1940 3799 1656 813 2763 5293 3485 4010 
5870 5279 3569 3355 4918 4647 5432 1230 3242 
967 3878 2823 621 1594 5851 3628 5484 5072 
5036 2590 2929 1586 5689 3927 2381 2287 2183 
3880 68 2390 5741 5867 4104 4662 5673 5118 
5953 4966 4716 2715 226 1489 159 5686 3874 
744 2285 5702 1506 4454 3771 4192 2128 3255 
5762 2813 2278 4877 5295 1946 6003 199 4733 
3203 4372 4189 4684 3550 5208 4968 1557 3604 
1179 3930 1365 2470 3130 1547 5699 4510 2468 
5307 1826 5449 5177 1001 1435 4855 5352 1701 
4811 5256 4410 753 1104 5356 4099 5219 3983 
3009 5389 4846 1808 5971 3920 1664 4585 5205 
3426 2443 3717 3417 5494 4378 4059 1035 2872 
4003 2043 3596 2921 4499 4383 4426 4527 1813 
3832 2632 3774 4219 1346 5675 3159 1431 4540 
5015 5080 3720 1610 4609 1217 736 5872 5077 
1784 2855 1350 5191 3346 5516 3258 2605 5676 
1725 2458 5853 3354 4704 5232 2652 1143 4706 
4612 4048 5523 4734 3300 5763 5115 1338 5646 
2253 3424 2106 5611 1775 4222 2495 5928 1929 
838 772 2969 802 4831 973 2848 4290 230 
5909 4930 4646 3578 4496 4800 3914 5235 4874 
5858 5513 4659 4292 3591 190 5682 4083 416 
1555 3270 2198 4243 703 1928 5206 3213 5840 
2449 820 2384 2163 2743 3284 2953 4253 1443 
1248 787 939 1314 3188 2230 3445 5976 222 
2056 1720 4089 5829 5814 5088 3565 4538 776 
3631 5262 1132 114 5450 1801 3222 2644 5292 
2598 2967 1785 871 5245 4633 4214 5799 3602 
4331 2293 3944 6057 5154 3154 977 5459 1498 
4052 4963 2567 4463 3056 4237 1086 2847 1873 
1899 2070 1676 1238 1839 1387 991 176 111 
1379 2547 4985 2487 2074 2502 600 784 284 
945 3964 894 780 669 827 94 1061 59 
3618 3027 405 1915 261 70 1548 627 1213 
277 8 1404 447 2322 1289 980 2518 2532 
4274 1669 1153 2219 33 875 5647 1224 5309 
4196 5190 5101 1220 3746 3663 2582 4294 2196 
2209 3143 4751 4428 1618 5280 554 1644 1384 
1019 2336 2556 2971 868 3520 2069 4241 1948 
2712 3660 1451 2716 3195 5876 5078 4804 696 
5153 1165 1675 1878 6041 1356 1409 2647 2529 
1367 2093 3778 5734 2028 2003 1235 561 179 
320 3083 1342 2801 761 716 263 1280 359 
588 839 161 351 382 974 492 201 921 
805 109 219 134 97 154 665 1797 3757 
2521 1862 936 675 557 1029 4650 2304 618 
4377 1985 2426 4144 3215 3232 2908 1638 1499 
2045 3476 3171 1987 2440 1758 604 140 5955 
5866 1789 3696 6049 5020 3921 1033 1567 5411 
5263 5844 1794 3448 2675 4856 5002 1572 4771 
4523 3718 3484 4374 2658 2680 4132 2175 2200 
2145 2372 1624 5602 3428 3119 2761 3272 3265 
5546 3287 1616 103 1876 1786 1273 1658 1161 
1734 491 989 168 1067 1175 1085 808 112 
1234 1156 1348 759 1444 779 450 185 764 
578 539 1048 1101 57 227 1888 344 879 
2315 3206 553 3510 1497 1094 4181 3909 2528 
4154 1821 2067 3689 4964 2830 2364 4715 5518 
3704 4783 4065 5344 3755 4494 6062 3535 4072 
2333 5587 5330 4797 3314 1602 3700 5906 2563 
4681 5733 4066 5277 2133 5807 4235 5320 3853 
4225 2007 4413 4898 4589 2405 5836 5467 1529 
5457 3289 2790 2493 3893 3254 2429 2906 3750 
4498 3999 3257 3635 1703 3470 2561 1239 2724 
3598 4178 5057 651 769 5923 763 84 430 
692 87 1329 2296 1432 771 2373 892 1158 
2941 2828 1266 439 731 2395 3430 1260 2826 
3339 3256 1718 933 3816 3002 4520 5172 4653 
5431 5479 2695 2634 5954 5047 5810 5108 4506 
4194 2637 4916 1026 2201 3640 232 5613 2180 
5974 5067 2841 6061 824 4168 2885 4971 5933 
3589 4845 5466 1008 3940 5301 1207 3429 3871 
1423 1295 2559 5112 5544 5642 5683 5353 4997 
4324 3636 5636 3151 4754 3193 3157 2446 3812 
4062 5899 2006 3811 2865 1422 1524 318 1147 
3707 1427 4233 2766 6034 3619 2218 4504 655 