# vtk DataFile Version 4.2
Generated by LIGGGHTS
ASCII
DATASET POLYDATA
POINTS 6000 float
-0.0250368 -0.0373472 0.0146014 -0.0214556 -0.0395124 0.0141418 -0.0227565 -0.0388192 0.0184106 
-0.0172398 -0.0415497 0.0142884 -0.0179134 -0.0373517 0.0141364 -0.0134189 -0.0403909 0.0140186 
-0.0189855 -0.0396018 0.0173219 -0.0155118 -0.0374513 0.0174295 -0.0162938 -0.0418942 0.0192019 
-0.0130919 -0.0429785 0.0170558 -0.0106286 -0.0437319 0.0139875 -0.0094496 -0.0399053 0.0140385 
-0.00647158 -0.0372204 0.0140098 -0.00679242 -0.0444862 0.0148616 -0.0059247 -0.0407157 0.0158792 
-0.01169 -0.0374108 0.0162364 -0.00860252 -0.0398738 0.0189235 -0.0096917 -0.0439245 0.0189602 
-0.00573753 -0.0446369 0.01897 -0.00480085 -0.038279 0.018846 -0.0031885 -0.0429321 0.0139631 
-0.00277794 -0.0388756 0.0140751 0.00132879 -0.0405623 0.0138898 0.00025998 -0.0449794 0.0140678 
-0.00211527 -0.044908 0.0172868 -0.00021007 -0.0387369 0.0171448 0.00113018 -0.0425159 0.0174014 
0.0037714 -0.0392364 0.0174568 0.00532008 -0.0409067 0.0139297 0.00427906 -0.0447755 0.0139492 
0.00823881 -0.0441706 0.0139043 0.0102436 -0.0406235 0.0141563 0.00729837 -0.0371353 0.0141348 
0.0110447 -0.0435922 0.0167499 0.00998446 -0.037782 0.0170707 0.00585159 -0.04461 0.0176261 
0.00756763 -0.0409658 0.0172589 0.0137782 -0.0425063 0.0139537 0.0181406 -0.039936 0.0138488 
0.0139166 -0.0388786 0.0156499 0.0188874 -0.0408115 0.018278 0.0149383 -0.0423236 0.0178266 
0.0157661 -0.038483 0.0191953 0.018598 -0.0371065 0.0167239 0.022034 -0.0390569 0.0160396 
-0.0302271 -0.0333333 0.0140178 -0.0304682 -0.0292474 0.0140639 -0.0319247 -0.0316594 0.017233 
-0.0342991 -0.0290342 0.0191351 -0.0289681 -0.0343466 0.017913 -0.0262187 -0.033543 0.0142115 
-0.0229017 -0.0312808 0.014206 -0.021497 -0.0355016 0.0141672 -0.0260309 -0.0367084 0.0193168 
-0.0269811 -0.0299844 0.0159805 -0.0234806 -0.0342713 0.017425 -0.0238918 -0.0304538 0.0185635 
-0.0182252 -0.0332031 0.0140736 -0.0144008 -0.0354336 0.0140406 -0.0146356 -0.0314427 0.0138883 
-0.0194281 -0.0292939 0.0141179 -0.0203282 -0.0317617 0.0172866 -0.0192236 -0.0356149 0.0175357 
-0.0160115 -0.0330841 0.0174758 -0.0173091 -0.0291381 0.0175243 -0.0133628 -0.0297882 0.0173039 
-0.0107029 -0.0305349 0.0143603 -0.0101177 -0.0344897 0.0139644 -0.00686058 -0.0321663 0.0140207 
-0.0120411 -0.0335634 0.0173773 -0.00574394 -0.0346294 0.0170007 -0.00906441 -0.0358819 0.0188611 
-0.00505964 -0.0308076 0.0179977 0.00326139 -0.0370264 0.0139448 -0.00284967 -0.0319802 0.0140223 
0.000989911 -0.0332409 0.0141693 0.00347157 -0.0298756 0.0138659 -0.00184948 -0.0351874 0.0162066 
-0.00113353 -0.0323924 0.019198 0.00203957 -0.0354407 0.0174382 0.00231157 -0.0312609 0.017481 
0.00859035 -0.0328957 0.0138335 0.010061 -0.0288701 0.0138188 0.0049277 -0.0334435 0.0153573 
0.0117226 -0.0359547 0.0139331 0.00688155 -0.0299209 0.016013 0.00928988 -0.033502 0.0177261 
0.00600606 -0.0360855 0.0185371 0.0111028 -0.0296914 0.0176159 0.00587455 -0.0320865 0.0192528 
0.0163457 -0.0315866 0.0138912 0.0124277 -0.0320481 0.0146217 0.0158028 -0.0355871 0.0142664 
0.0203594 -0.0349914 0.0137577 0.0188373 -0.0313763 0.0170362 0.0149548 -0.0321881 0.0178014 
0.0126003 -0.0354008 0.0189477 0.0215674 -0.0310019 0.0139297 0.0257277 -0.031206 0.0143877 
0.0251908 -0.0366181 0.0138242 0.0279254 -0.035064 0.0163334 0.0231754 -0.0337674 0.0166087 
0.0226005 -0.0298508 0.0177023 0.0255115 -0.0370411 0.018908 0.0260786 -0.0318295 0.0186647 
0.0303774 -0.0330927 0.0137304 0.0328087 -0.0300593 0.0146775 0.0290595 -0.0303118 0.0164266 
0.0324258 -0.0311328 0.0185136 -0.0394262 -0.0214285 0.0159545 -0.0374045 -0.0249806 0.0169925 
-0.0344394 -0.0284713 0.0151608 -0.0313417 -0.0240089 0.0148543 -0.035223 -0.0229291 0.0143154 
-0.0336488 -0.0241566 0.0181329 -0.0310241 -0.0273299 0.0175297 -0.0361754 -0.0210574 0.0182742 
-0.028029 -0.021775 0.0144314 -0.0271951 -0.0265281 0.0139534 -0.0241184 -0.0236015 0.0140715 
-0.0281984 -0.0244887 0.017368 -0.0236778 -0.0276265 0.0157189 -0.024252 -0.0243036 0.0180548 
-0.028776 -0.0207575 0.0188077 -0.0219851 -0.0211567 0.0169267 -0.0176112 -0.0227644 0.0139894 
-0.0205751 -0.0254448 0.0143509 -0.0155027 -0.0275358 0.0140099 -0.0137368 -0.0238861 0.0140803 
-0.016698 -0.0252072 0.0170531 -0.0200937 -0.0241163 0.0188909 -0.0180261 -0.0207196 0.0174172 
-0.0140851 -0.0213628 0.0171636 -0.0127662 -0.0258207 0.0176225 -0.00502481 -0.0286128 0.0139429 
-0.0104914 -0.0262334 0.0141355 -0.00733173 -0.0234279 0.0140739 -0.0109403 -0.0210324 0.0142775 
-0.00891805 -0.0283366 0.0171956 -0.00967355 -0.0232944 0.0173243 -0.00525103 -0.0256919 0.0166751 
-0.00447568 -0.0217667 0.0169962 -0.000421489 -0.0287914 0.0139442 -0.00287895 -0.0240809 0.0138688 
0.00200107 -0.0255653 0.0140039 0.000746541 -0.0216515 0.0140219 -0.00166382 -0.028701 0.0177491 
-0.00124036 -0.0240649 0.0175394 0.00206776 -0.0272527 0.017638 0.00378185 -0.0219319 0.0167919 
0.00678231 -0.0226423 0.0141812 0.0117858 -0.0252563 0.0139265 0.00559593 -0.0261391 0.0157447 
0.00839437 -0.0240609 0.0178055 0.00756191 -0.0276912 0.0193056 0.0118834 -0.0224086 0.0167399 
0.0118838 -0.0259842 0.0192055 0.0190995 -0.0240362 0.0138141 0.0143086 -0.020949 0.0139074 
0.0140281 -0.0283624 0.0151001 0.0154509 -0.0245603 0.0154116 0.0198027 -0.027637 0.0156882 
0.0186245 -0.0239516 0.0178239 0.0165387 -0.0274178 0.0181019 0.0148864 -0.0232971 0.0192702 
0.0236392 -0.0273743 0.0136786 0.023858 -0.0232516 0.0136617 0.0277016 -0.0260581 0.0137554 
0.0277594 -0.0219332 0.0135658 0.0226262 -0.0250921 0.0171734 0.0259202 -0.0277277 0.0169533 
0.0211356 -0.0212176 0.0159553 0.025546 -0.0216149 0.0169277 0.0356548 -0.0273629 0.0137019 
0.034885 -0.0210884 0.0137221 0.0318522 -0.0256426 0.0139974 0.0350045 -0.02809 0.0179535 
0.0312201 -0.0267526 0.0178531 0.0349437 -0.0242201 0.0163828 0.0304681 -0.0210141 0.0165138 
0.0379486 -0.0240039 0.0136471 0.0385374 -0.0227797 0.0175624 -0.0424848 -0.014568 0.013853 
-0.0389717 -0.0168722 0.013898 -0.0415803 -0.0170616 0.0169924 -0.0431505 -0.0127089 0.0174179 
-0.0394658 -0.0139305 0.0185007 -0.0372046 -0.0171868 0.0179476 -0.0364315 -0.014032 0.0155988 
-0.035134 -0.0184489 0.0144633 -0.0323609 -0.0153136 0.0141982 -0.0295327 -0.0181354 0.0152029 
-0.0324605 -0.0204711 0.0167822 -0.0326136 -0.0150647 0.0182025 -0.0291381 -0.0143024 0.0163709 
-0.0263569 -0.0160223 0.0139664 -0.0244167 -0.0195311 0.0139397 -0.0266844 -0.0171919 0.017865 
-0.0228199 -0.0172228 0.0168029 -0.0249992 -0.0136158 0.016983 -0.0200153 -0.019303 0.0139296 
-0.015592 -0.0147579 0.0139013 -0.0206378 -0.0153107 0.0140268 -0.0159631 -0.0190982 0.0139425 
-0.0177813 -0.0167505 0.0166229 -0.0201032 -0.0129911 0.0172457 -0.0125517 -0.0175105 0.0153012 
-0.0126429 -0.015426 0.018737 -0.00904566 -0.0161829 0.013905 -0.0120607 -0.0128504 0.0138429 
-0.00679095 -0.0123381 0.0138644 -0.00738667 -0.0195198 0.0153865 -0.00512818 -0.0159763 0.0147488 
-0.00936214 -0.0133378 0.0167668 -0.0111771 -0.0191555 0.0188109 -0.00800414 -0.0167795 0.0182879 
-0.00546731 -0.0132619 0.0176762 -0.00321387 -0.0194257 0.0139832 3.661e-05 -0.0170897 0.0142915 
0.00117013 -0.0130707 0.0140894 -0.00281992 -0.012826 0.0138763 -0.000880016 -0.0200334 0.0173079 
-0.00163179 -0.0148313 0.0171401 -0.00416414 -0.0179009 0.0181857 0.00254277 -0.018053 0.0180118 
0.00231257 -0.0139584 0.0178387 0.00373268 -0.018723 0.0140617 0.0101284 -0.0197238 0.0143496 
0.0101836 -0.0155471 0.0138389 0.0048313 -0.0146795 0.0139949 0.00900246 -0.0200213 0.0181821 
0.00715983 -0.0174262 0.01575 0.007722 -0.013814 0.0174174 0.0111131 -0.0157787 0.018991 
0.0119528 -0.0128482 0.0163961 0.0145814 -0.0142195 0.0136727 0.0168855 -0.0177806 0.0142891 
0.0187641 -0.0141039 0.0147521 0.0131674 -0.0173267 0.0158833 0.0158157 -0.0135099 0.0174166 
0.0128271 -0.0194209 0.0192802 0.0192916 -0.0142567 0.0192788 0.0196487 -0.0182978 0.0183522 
0.0208527 -0.0175416 0.0137763 0.0244573 -0.0151292 0.0137802 0.0283852 -0.0138376 0.0136986 
0.0236887 -0.0180133 0.0165925 0.0227916 -0.0135046 0.0174626 0.0274902 -0.0183074 0.0153407 
0.0267936 -0.0150338 0.0182074 0.0338258 -0.0170352 0.0137952 0.0323692 -0.0132677 0.0140069 
0.0340331 -0.0191772 0.0174086 0.0363657 -0.0128594 0.0164485 0.0307929 -0.0162195 0.0163826 
0.0289495 -0.0183845 0.0192066 0.034025 -0.015361 0.0185999 0.039011 -0.0200864 0.0136194 
0.041495 -0.016924 0.013694 0.0376153 -0.0165462 0.0151976 0.0394327 -0.0132156 0.0138565 
0.0404355 -0.0188222 0.0171975 0.0426899 -0.0141657 0.0164312 0.039276 -0.0152183 0.0185959 
-0.0377393 -0.00417924 0.0138515 -0.0395877 -0.0116761 0.0142977 -0.0438195 -0.0101077 0.0143442 
-0.0409366 -0.00689077 0.0138478 -0.044657 -0.00506237 0.0140881 -0.0410406 -0.00927728 0.0171837 
-0.0404654 -0.00460756 0.0172409 -0.0443622 -0.00710814 0.0177118 -0.037597 -0.00757634 0.0160044 
-0.0343857 -0.0086361 0.0137669 -0.0303345 -0.0094236 0.0141205 -0.033765 -0.00462818 0.0139218 
-0.0298444 -0.00543857 0.0140525 -0.0331405 -0.0117792 0.0159057 -0.0346602 -0.00735041 0.0187214 
-0.0307245 -0.00726363 0.0179929 -0.036479 -0.0108723 0.0180744 -0.0228814 -0.0118722 0.0140226 
-0.0270746 -0.0117635 0.0140481 -0.0250231 -0.00418176 0.0141872 -0.0275937 -0.00486346 0.0173212 
-0.0285127 -0.0105955 0.0178211 -0.0250174 -0.00924454 0.016419 -0.0237069 -0.00571058 0.0177571 
-0.0214505 -0.00933523 0.0182265 -0.0207143 -0.00851052 0.0142375 -0.0144076 -0.0122301 0.0170926 
-0.0181522 -0.0116804 0.0140078 -0.0171091 -0.00657945 0.0139702 -0.0146535 -0.00973761 0.0139612 
-0.0198618 -0.00541698 0.0166286 -0.0171382 -0.00931212 0.0173573 -0.0160552 -0.00519973 0.0178611 
-0.0132372 -0.0081198 0.0179788 -0.0111312 -0.00783434 0.0140485 -0.00739629 -0.0063477 0.014295 
-0.00888445 -0.0093534 0.0171448 -0.00846193 -0.0051738 0.0179795 -0.00509602 -0.00732475 0.0177771 
-0.00448537 -0.00905262 0.0137307 -0.000489077 -0.00942267 0.0139062 -0.00360631 -0.00506901 0.0139724 
0.00037224 -0.0043987 0.0139485 0.00316274 -0.00777784 0.0139756 -0.0026801 -0.010443 0.017097 
[...]
POINT_DATA 6000
FIELD FieldData 7
id 1 6000 int
143 6059 5229 3586 1152 1333 5529 3216 3212 
313 3313 1837 2623 3421 4456 3006 3032 5943 
5759 4703 3387 2020 3984 4682 5932 5701 3039 
374 2261 2569 1659 34 2148 4737 5014 4000 
4439 3335 302 3324 3714 5949 5325 5322 2536 
5346 3455 5420 5402 6037 473 126 4719 5573 
5097 679 3558 774 1123 5304 2339 3923 6053 
4353 3933 3549 2626 4570 350 5856 5255 4954 
5936 18 1354 654 5586 1013 3075 5303 2746 
1088 1129 4405 1891 2358 5915 5281 241 5348 
628 1539 2310 2612 426 3373 3120 2222 3954 
1650 1154 5423 403 3479 3069 1874 3709 1397 
5730 2418 5684 4388 4249 4060 4128 1962 4026 
531 4649 528 6043 4088 5500 5557 435 4284 
2329 1065 738 1630 1145 5224 5181 2135 178 
396 1914 274 216 917 81 4741 257 3913 
1584 1732 3311 876 1184 1930 477 1631 938 
1015 1707 1600 1955 1236 664 209 1607 2843 
1352 1767 1331 1347 2114 3753 1698 609 2453 
2754 576 4412 1563 2905 4610 3040 2251 78 
2227 2013 4074 5217 4600 4569 4124 4371 4087 
3 3534 5929 4982 3416 5265 988 5298 3961 
3791 402 5846 2810 4080 606 364 2775 247 
522 858 118 1440 694 1189 3298 248 614 
223 432 1512 440 214 629 781 515 520 
282 1372 582 383 1472 682 401 1027 1632 
338 341 1576 575 408 886 1045 1568 1886 
1228 208 2857 459 3045 496 997 4867 4883 
3071 4810 4139 2517 2392 2136 1687 2331 44 
2560 3585 4159 3098 4362 4777 1741 1449 3938 
62 452 502 720 4202 870 3453 49 3968 
2537 268 935 1619 2867 1 38 2850 1141 
251 660 843 165 377 640 789 329 507 
1542 758 2 1861 410 188 987 616 217 
659 565 392 301 558 1232 91 76 864 
1046 964 238 1257 173 1259 1362 211 1637 
2555 641 245 1446 2654 2704 797 3245 2659 
2600 267 1711 4191 4452 2961 2844 2629 3793 
2290 4032 4592 2633 4678 4188 3432 181 3101 
3010 3988 3017 117 292 537 1376 1093 316 
1078 252 1445 1074 1307 1371 529 552 63 
1456 622 517 468 1011 822 466 550 170 
1171 171 2109 1108 812 145 136 368 98 
444 153 1709 508 673 748 1066 942 306 
352 890 164 354 532 177 951 275 1339 
390 2631 1471 1438 47 545 3595 1272 381 
1182 61 1738 3851 580 2911 2915 1855 551 
2182 149 2635 1958 1693 1195 1526 399 2543 
2709 3408 2705 1750 2393 2731 5495 175 60 
1907 160 3368 2111 1961 6006 638 234 421 
2863 976 2327 500 1523 1401 2094 1628 48 
762 88 2292 2478 1790 330 30 441 906 
857 678 353 45 840 1534 1304 1458 1218 
1095 1243 380 590 1180 1645 1560 1016 366 
865 43 1070 513 266 667 538 388 348 
560 851 983 619 867 1000 1103 1118 490 
2879 200 853 1010 1792 1005 524 1969 1749 
1168 530 1325 2325 874 862 23 2940 3409 
4392 2523 674 446 4391 3747 2515 2737 3082 
3369 3908 1017 1306 2549 2510 1060 1757 107 
2423 2113 427 1419 2097 2326 2452 1770 2663 
647 1570 236 1421 1525 162 2104 952 2778 
3068 1850 1462 1667 1420 1052 1642 1177 1887 
1267 2167 701 896 1831 1527 129 1246 849 
859 1913 122 311 328 559 795 420 1378 
279 385 1817 1398 1490 456 194 1069 766 
1864 572 1514 2403 3028 620 127 940 298 
2151 2289 2077 1807 15 1136 2665 3316 4591 
2514 4513 4381 1627 229 1311 1606 549 1269 
1944 3110 2636 1611 1039 483 2022 2366 1424 
3005 680 2385 1426 2071 1300 1528 3600 92 
2328 1037 2987 55 950 656 900 1798 3662 
1816 1923 2398 418 100 2262 1215 863 319 
67 3581 4135 27 305 1034 2400 1689 133 
1724 132 121 2299 1320 927 2519 663 1991 
4245 2622 1679 31 40 3396 1520 4690 2589 
2161 3551 2825 417 258 1818 2884 546 4307 
3963 961 3566 5367 5184 5982 1308 2869 1713 
1648 887 2900 3087 2266 3189 2302 1614 146 
3093 3399 1024 1673 2383 2655 3444 242 3089 
2642 2583 3023 2895 1805 2345 3868 3431 2341 
993 2852 1188 2501 2197 4190 687 1791 299 
1399 811 254 4264 3038 3463 1211 819 387 
4664 1164 86 2283 601 4360 5296 910 4019 
1146 1535 3889 1047 1225 3322 412 2462 2249 
3427 2789 2676 2593 2258 2454 4965 5819 2708 
3809 3805 3514 13 540 2352 2751 903 895 
2117 3107 4158 4164 367 3762 2064 1851 2799 
2235 478 5743 3919 2794 2116 637 5180 4995 
2962 1906 357 5739 5732 3702 5318 5260 4106 
3922 4209 4373 4775 5302 4501 5728 6027 5081 
5904 4928 3616 2878 5724 5827 4744 5639 4896 
2984 5848 5584 5545 5227 5241 3326 3587 4312 
4986 5481 1128 5093 4465 361 4446 4534 4206 
2014 5592 1540 4586 2066 5514 4123 5085 1439 
5672 2609 4782 5297 4006 3825 3882 5358 3710 
5663 3285 2427 4321 5052 5875 5794 5706 4752 
4761 3531 5424 5852 2008 5059 3576 4762 3230 
5768 4939 5977 3021 4689 4509 4308 5134 6029 
5711 4888 3690 3731 5167 5055 5189 2524 3692 
4910 3030 5948 5696 3172 1939 4821 3932 4042 
5665 2422 3414 5962 3957 3375 3102 4935 5864 
3781 470 4359 4013 5740 3013 5478 2037 1558 
3948 6010 2732 4365 3668 5695 4853 3521 4484 
5363 4174 4447 4970 4709 3949 5808 4267 5451 
6032 5372 4553 3892 4304 5536 5290 985 5718 
5299 5105 5521 3738 5913 5127 371 747 73 
5238 1765 2542 512 4638 5426 5261 5220 2585 
3443 5716 4511 5188 3160 5935 2550 2147 3872 
3454 4095 5531 3807 3381 2800 4389 4376 5700 
4320 4339 1437 2245 2603 1905 3459 5680 2998 
4382 2896 3220 2130 2768 3359 3260 2420 1721 
2666 1098 2922 1901 2129 3022 2257 525 1546 
3382 20 471 4073 4768 3827 3839 4590 5106 
5645 710 4272 281 5691 4718 4434 3418 4892 
4602 4605 4746 6045 5504 2001 339 2460 3492 
3723 1787 3834 4556 5043 3059 706 235 2916 
35 314 4712 5049 2303 4598 5384 1318 2740 
732 801 85 708 6012 2232 303 437 2580 
3379 909 2930 4257 3688 5412 3732 4263 1853 
1802 737 734 2602 324 1550 1633 2785 296 
726 1867 1730 1221 1829 1828 1466 881 904 
2236 3057 1670 612 3682 1885 639 26 2897 
1374 1063 2156 2861 1305 3726 3681 4668 2650 
3758 2739 1949 3855 4517 5040 4616 3677 2875 
1612 2505 4004 4630 2122 2206 1691 2586 3471 
1846 3208 2513 1031 2101 429 5194 3269 2920 
1668 244 139 1903 918 2677 1883 3008 1652 
1055 626 652 69 791 204 123 848 365 
1406 825 662 2213 415 411 337 455 215 
291 852 333 28 727 818 1203 64 588 
1091 161 725 1038 841 1138 29 581 156 
630 921 308 548 210 598 1284 400 1092 
645 1403 1766 83 1671 1910 2960 2793 569 
1832 2274 1819 19 698 2334 5135 1056 1043 
4280 2217 3321 2436 4205 3413 4872 4837 5090 
4909 2999 5084 658 5050 3900 3993 3243 4450 
5524 2579 4948 5560 4789 5007 5422 4876 4680 
4138 574 358 1277 850 1715 1261 842 499 
1053 32 1294 767 2000 1044 2444 71 1706 
773 948 2036 684 1336 810 1139 519 297 
646 66 265 498 2894 979 1197 7 221 
568 713 1191 1436 1135 152 1157 393 1684 
1369 307 184 1219 1097 2439 1626 555 724 
445 602 605 130 1465 104 286 785 1206 
256 677 1214 198 523 323 379 1516 1075 
480 384 1192 666 124 1511 50 453 207 
1487 4459 3126 742 4227 5664 5566 3859 4711 
2220 3436 4035 2081 5815 2324 5541 3166 343 
3822 2955 5726 3530 5583 636 2950 4667 3552 
3466 4258 5781 5200 4791 278 1240 1115 869 
2338 2477 1588 2387 1072 1163 608 691 2062 
2363 474 1776 1021 2428 1694 434 397 740 
75 984 1071 17 957 1641 1172 1223 1491 
479 1562 166 96 1340 926 1022 1358 671 
1002 635 1216 196 1727 250 1561 591 715 
451 105 1271 1287 472 937 57 634 1480 
280 2241 879 907 798 1747 227 142 603 
370 3099 3597 1481 1888 1510 688 325 2776 
2574 1536 3625 4571 806 3218 1579 592 362 
9 2475 433 2511 2530 1429 2132 1077 476 
3058 373 1317 3226 828 1564 3615 1762 2588 
1621 1970 3545 970 611 3967 413 5989 4881 
2618 5150 3364 3536 4671 3980 1934 2990 4002 
2059 3588 2432 2118 2490 3184 3353 484 2883 
2263 1505 1782 1722 2512 2356 2459 885 2015 
2389 2105 1872 1334 1450 2807 963 2095 721 
1288 2591 3094 2577 1605 2265 2273 2928 1654 
1400 1531 310 2190 1556 587 1385 516 1843 
347 514 1186 231 1167 1916 1099 2527 2497 
1299 2306 431 681 1388 3614 2142 461 756 
3904 1226 3929 4606 2972 3356 729 809 4100 
2764 2820 1162 3457 4119 3780 3665 5454 3491 
4926 4348 5981 5752 3647 5103 5674 4620 3590 
4176 189 3052 5463 5404 4345 5512 4335 4573 
5272 2699 3186 3950 5009 3327 5821 2264 1859 
3210 3544 916 583 3393 1768 3305 2748 3246 
3434 3153 3201 2099 2691 1959 3020 3915 3340 
3262 3177 3546 1803 2924 2781 2686 3815 2311 
3209 2821 482 4351 1126 2120 4184 4126 4584 
518 3398 2545 1653 3334 2144 2404 4098 2073 
676 3675 1941 2535 3442 5721 924 4268 3779 
1538 521 4394 2720 4738 3584 3749 826 3405 
4115 5231 4953 5033 5919 4057 2463 5742 3810 
3848 2499 4069 4300 5133 2788 5430 5417 4705 
5896 5042 6025 3888 5931 4850 5095 4480 5460 
5312 893 2974 3579 2447 3162 2944 2242 2687 
4352 3661 3406 4334 5185 4453 4293 5496 3041 
3540 5780 3357 5549 5575 3304 2814 2729 4701 
5066 1932 5973 4798 2727 5758 3843 2868 2995 
4915 5082 2889 4583 4082 3036 4198 5538 5911 
5969 5558 5485 5916 2256 5621 4651 5126 5287 
2777 4503 2723 3367 5835 1028 5419 288 4487 
2726 4983 5158 4199 4641 5491 1121 3998 5773 
4256 3775 4270 3594 2103 2797 4933 4635 4526 
4277 2902 2760 6046 4748 3512 5881 3898 6063 
4077 4317 5139 5984 5119 3850 5855 3719 4474 
3290 3411 2683 3460 5986 6000 5234 3333 5615 
5987 4108 3288 4899 4489 5897 5392 5342 4813 
5473 4629 4034 3517 4639 6021 5032 4617 5868 
3656 5757 1662 2193 5374 3651 5073 6017 3833 
4411 5822 2645 5213 1396 4361 5662 4315 5328 
3568 6014 5416 4809 3974 932 4297 5156 4151 
5005 3325 2939 2784 3986 3801 2508 2522 5841 
3152 2268 3737 2638 2886 5944 1771 5385 4326 
5710 6016 1777 5605 4322 4422 4743 2864 3706 
4399 5526 5203 5364 5486 4086 4683 5314 5804 
5368 5202 6040 3725 4919 4582 4562 4464 4103 
5026 3415 4969 2625 5186 3539 5828 6047 3847 
1020 3180 3281 4220 3447 5957 2301 3378 5719 
2078 1417 6008 1565 745 2434 5910 4195 4565 
5448 4805 3785 3991 5499 3994 5956 3846 5563 
1774 3997 6065 5390 4461 1323 1847 4147 1982 
4136 5024 4674 3350 1737 5166 3081 4357 4347 
3873 5588 2688 4567 4309 5373 4466 5760 3347 
3869 3223 4303 4017 5515 2787 5539 3464 4544 
3308 3329 4427 5483 4140 4153 5282 6007 4131 
3804 3653 3699 2853 4700 5243 5421 3741 5811 
4956 4697 6001 4187 4943 5959 5163 3403 5266 
5705 4433 5775 4800 2433 5909 4462 4604 5170 
4721 4156 4457 5659 5223 3295 4358 3456 4493 
5440 5489 3826 4101 2912 1965 4211 3828 3611 
5278 4828 3019 1871 3342 1686 2711 2355 3084 
2480 2982 3777 4478 3136 986 3362 3478 2107 
2337 3161 4350 1293 4240 1636 2860 2822 5890 
4893 3185 4276 3388 5124 4400 5236 542 3449 
2019 3856 2216 3941 3458 270 4122 4942 4740 
3730 2992 3902 3129 3935 4133 3733 3883 835 
5406 3315 4232 3655 4229 4469 3841 4747 5833 
2394 3397 3639 3227 111 1148 3982 4290 4646 
2969 5498 4496 5513 894 4430 3964 4355 3914 
5235 3591 2108 2438 1915 3666 2703 3618 4518 
3580 3192 1585 2531 1909 1838 3012 1434 102 
3103 2842 2959 3529 2202 4685 3323 4448 2503 
1249 1799 1708 2229 4114 3798 4722 2379 4745 
5393 3238 2780 2968 4375 3469 4512 3626 4436 
3962 2479 135 3953 1990 1733 1625 2192 2684 
1926 1890 2809 969 632 3724 2457 2698 3132 
3363 2049 1479 2378 3137 2856 3767 3769 589 
493 2347 2681 2811 3011 1971 2772 685 46 
3122 4985 670 51 2074 735 1899 1379 2502 
2487 2547 600 176 109 973 2752 363 230 
284 492 94 201 80 3027 945 1061 827 
962 460 3077 1651 1194 577 1968 1200 669 
936 1032 261 8 981 309 395 1322 2805 
463 1797 1114 618 1592 2280 2488 4932 3649 
5991 5110 2406 2656 2568 4094 5006 4403 4901 
3391 4857 5487 4306 4842 3570 3317 3518 2753 
4597 4269 4714 4170 4807 4632 4781 3328 4679 
4692 4885 4851 5380 4370 1922 649 902 2149 
294 960 2237 1827 1574 2277 315 1492 1160 
971 2346 1947 1181 1245 1393 570 543 1383 
1193 1366 711 128 804 1735 755 172 752 
1235 2038 179 14 584 1342 1452 1280 897 
561 761 404 991 320 1231 349 784 989 
839 1156 382 185 112 1067 1101 974 351 
911 359 805 219 154 97 665 405 780 
1169 1205 82 3909 438 675 344 557 1029 
59 613 1862 3689 1117 4252 3106 2534 672 
2100 2521 4154 1821 4377 1638 4964 4020 2646 
2996 5259 2975 2888 5600 4346 3488 5155 2692 
3389 5270 5226 5633 5176 5678 5764 3503 5577 
5863 5300 4599 5503 4197 4815 5074 5465 5162 
5083 4531 4536 5075 336 2491 2410 1345 2877 
657 2173 930 3229 3607 2297 1746 1482 1810 
3066 707 1710 1254 2233 2018 2335 3231 3473 
56 883 1090 2050 2340 2248 1616 1273 1559 
2060 1085 829 103 808 759 168 263 1348 
1444 1412 564 779 262 1266 1185 689 836 
1634 915 578 253 764 1048 539 553 1094 
534 914 1581 2315 1414 134 3206 1497 2528 
2551 3510 959 1896 1957 2830 2067 4045 2364 
2411 4911 4105 536 3996 4438 5108 5572 3704 
4390 4653 4993 5810 4506 5218 4470 4482 3420 
1390 4990 4234 5658 5652 5542 5934 4699 5174 
5787 5616 4477 5267 5831 5023 4868 5749 4615 
3128 3446 4046 4254 2738 2881 2870 4005 2469 
3048 3641 1953 3251 1945 4940 3939 2606 3685 
3745 3065 2620 3257 1598 2023 1258 1551 567 
1620 833 2696 2391 1590 1234 206 651 430 
2296 1158 1175 1422 769 442 2032 731 815 
1329 1643 1432 892 21 2798 2373 655 439 
2941 2395 933 2826 4520 1173 1260 2294 1904 
4043 3430 1718 5099 3816 2980 3002 2690 3705 
2634 1964 4001 3310 5431 2695 5925 3480 3740 
5519 5954 5479 6055 4652 4543 4173 4141 3275 
4445 5631 3985 1956 4012 3623 5285 5834 5381 
5892 4442 5604 4865 4224 5161 5140 3291 4619 
5125 5100 3542 3659 3366 3837 2744 3599 3410 
3583 4155 4608 4528 4507 3652 4946 4559 3501 
3806 1723 5386 2052 2977 4755 1124 3173 2983 
800 1395 3895 1012 4613 3885 273 2610 2993 
3400 4549 4698 3489 2766 4508 4200 3619 1127 
4793 4693 2828 2467 3502 5195 5644 3190 3646 
4396 3076 5576 4852 5096 3505 4673 4724 3979 
4230 2660 2947 599 5785 4887 4460 5812 4157 
5123 3582 4275 5884 5999 4978 2367 5698 4959 
3952 5625 3063 5922 5585 2507 4180 5731 6036 
4402 3133 4163 4221 5438 2942 5334 4736 5239 
6030 5464 5860 5825 2965 4341 3511 4999 2835 
4152 3433 3165 3279 4655 6002 4603 3910 4418 
4037 3292 4492 4261 1018 3897 3721 2076 5091 
4670 5637 3678 3037 5264 3934 2044 4169 3249 
4118 2057 2608 4891 1049 2110 1856 5945 5173 
4485 4056 5569 5930 5937 5130 5745 5253 5094 
5321 4349 3164 2976 1473 6052 5771 5877 2907 
4806 3266 1763 3918 4203 4861 3865 2047 4937 
3925 5590 3060 4175 5640 3759 5921 2402 4266 
4011 6051 5407 5661 1504 4908 5832 4579 5225 
4332 5786 4555 5847 3450 1569 3234 5550 5104 
5351 1877 4432 5543 5447 6044 3679 5725 1545 
5357 5193 3383 5248 2979 5249 4354 1857 2276 
4677 5428 3788 5394 5657 4596 2880 4839 5252 
5113 3562 1609 3612 4160 5148 4414 5879 5276 
5331 5079 5843 5994 3643 5747 5444 4054 5694 
4423 3849 5458 3840 5685 1680 4687 5347 2714 
3713 5063 5051 4984 3306 5565 3054 5556 4134 
3338 3390 3736 5013 4578 5607 2386 4829 3345 
5528 5668 4031 3820 5452 1363 4127 5610 3799 
2226 5561 3795 6064 1030 1601 2300 3703 3553 
2416 4581 4502 4238 4561 5891 1937 2649 1690 
4988 3947 5178 3138 1743 5359 4022 2520 5823 
5045 5972 4756 3844 4869 4471 2344 4875 4723 
2595 4749 6020 5626 4406 2702 4340 4366 6023 
6004 5461 5244 2195 1392 3112 4803 1977 5016 
1199 788 1062 4880 2874 4726 5442 4451 5209 
5708 2581 131 2316 5908 5192 5138 5222 2043 
6048 3874 5686 113 2284 5813 1646 4380 2024 
2728 4424 5555 4627 2159 4363 3507 4212 855 
4021 5951 5886 3776 2943 1764 2553 5634 4924 
3435 3124 3374 4440 3773 5409 3981 4541 4500 
2782 3671 5927 5859 3819 5366 5552 4295 3412 
5048 5316 2208 5914 4409 5307 5382 4179 5849 
4099 5377 5902 3603 4811 3250 2131 3578 2988 
3803 5564 5903 5873 3955 4858 4977 3927 1808 
3426 5782 5395 5205 4585 3672 4818 5979 5128 
4367 2443 3385 3219 1992 2587 4499 2506 2770 
2840 4302 1655 4904 4165 39 1697 5707 2054 
1087 5061 2431 1751 3297 1242 3712 1820 5995 
3632 3494 796 718 485 5147 3548 2613 4784 
1845 2934 2369 4849 994 5445 2451 2380 3475 
2919 3794 497 2401 2749 3134 4554 6058 3975 
3283 2187 4973 5938 2834 2594 3861 4033 2639 
4111 2485 4364 5712 1806 2827 5441 3361 5736 
3141 1775 5219 4831 5256 5964 5522 4271 3424 
2065 2381 3920 5673 3009 4846 4930 1664 3555 
4167 4063 4292 4874 4530 5858 4659 5199 3770 
3748 5345 4527 4083 5206 190 3729 3147 4285 
1213 4243 2694 416 1928 1315 2747 1503 2322 
1100 2080 3852 1224 2063 2958 3296 3035 2640 
2365 2051 2910 4055 72 4298 3481 4628 5968 
5641 4078 4727 5070 4049 5182 5315 4780 2719 
5769 3235 4330 978 101 1204 1360 114 2846 
998 2134 3509 2644 2598 2605 5450 1998 1705 
2353 2891 2617 3451 2435 5853 4331 3944 4704 
2070 2112 4025 3670 1748 4143 1498 1870 1367 
2309 2495 1238 2882 2848 2614 4663 2596 929 
2627 1583 992 772 802 955 2323 2648 1761 
3465 625 2791 3439 2085 2997 1555 1841 968 
1151 1198 1897 2055 449 138 277 1548 627 
1253 70 1804 596 169 1292 821 125 1404 
2532 2426 2653 3215 447 2518 1289 980 1499 
2304 4239 4913 4920 4816 1754 3452 5802 5121 
1985 4614 3064 2615 4398 4458 5965 4944 4342 
5362 4923 5251 6050 5488 4244 4338 4289 5806 
5022 4931 3477 3956 4497 1647 1924 1801 2538 
42 2069 2336 2971 2967 2556 868 3520 700 
965 2127 4237 1695 2721 481 1869 3195 4052 
2647 2003 1004 1676 300 2093 1839 1409 716 
1931 1086 2847 3778 547 1134 1994 1290 276 
425 749 1387 148 778 1301 793 4 1483 
1270 786 782 873 464 650 182 1036 398 
1321 419 469 1274 1057 653 633 949 925 
1532 423 2048 2544 213 814 1332 1107 2354 
541 346 3755 4650 1500 3757 4065 1464 4070 
2923 5476 2849 4314 3476 4824 5537 3232 4204 
4072 4715 3440 6062 3903 5952 4622 4843 5582 
5027 5242 4329 5703 220 5649 4725 4702 5878 
2938 5143 2722 4557 5011 5551 3870 5729 5004 
5403 5722 4125 1716 3085 2700 1739 2658 4374 
1809 2836 2680 2200 2175 1624 3428 2228 2145 
2716 3100 3119 2761 3272 2578 1356 5876 3265 
1911 1161 1786 1876 486 2801 1927 1658 1276 
369 1131 25 1252 2028 972 1244 1068 1430 
919 898 1357 714 803 975 845 269 327 
982 465 53 340 2619 2526 391 488 2862 
2210 2396 4181 295 2946 2455 2424 2140 2572 
4387 3563 2978 3951 4916 2893 3946 3686 4637 
5427 6056 5974 5518 4783 3046 3640 4162 3535 
4194 5330 6061 4068 5284 4763 4845 4934 3015 
5850 3940 5323 5933 3589 4675 4730 4870 5544 
4694 5501 3906 5683 4324 4053 3893 2611 2493 
3254 2906 3462 3838 1448 3309 3635 1239 2561 
2724 5603 2181 771 1734 1703 692 1051 1578 
1427 450 535 1023 763 1898 1494 246 360 
2218 144 2985 283 697 3095 110 1700 1530 
1389 2053 792 501 1106 2441 3070 1719 259 
1868 1933 2713 3256 3117 4301 4113 2592 2854 
1682 5172 4772 4661 3307 5047 4552 4435 3537 
2845 5339 5887 5092 5275 2029 4247 4972 5337 
5164 3044 4912 2201 5254 4075 5257 3990 3096 
264 5214 5622 5817 1920 5958 1918 5301 1717 
5574 4431 5183 4522 4112 4997 5547 3664 3617 
3959 3636 3999 4091 3750 2481 2446 4691 2790 
3470 3157 2769 3240 84 3193 2006 2865 4233 
3707 623 1858 2756 1603 1122 87 3811 1577 
1524 4316 5098 527 1147 6034 593 1783 1973 
2570 2465 2795 4504 3339 2359 3168 5283 5901 
2991 3004 2152 3876 2986 5818 816 5720 2305 
5697 5796 1608 1140 5210 5942 5443 4987 2275 
5798 2092 3928 1533 2281 3657 5627 4735 4757 
3352 3711 4479 4601 1386 751 3701 3624 4654 
5054 2223 2804 2041 5405 4287 4660 2734 5509 
4564 4835 2288 3151 4854 1247 3274 3992 3667 
4519 4717 4658 3380 4566 4146 817 318 2314 
4120 3680 386 4844 4217 5383 6069 4429 157 
5738 923 4529 1848 2016 544 5212 4483 4739 
1076 1966 4379 4676 2084 3924 5069 5793 10 
4327 5137 3958 5648 5961 4991 4838 3528 3078 
3007 3937 2755 4823 746 4444 5629 4788 5790 
5632 5869 905 4093 4455 2802 4207 4941 5997 
5228 4812 4028 4907 5201 5963 3146 4368 3261 
5117 4796 4273 5151 3135 5598 4998 4886 4473 
1795 4325 4213 5620 3000 1552 3875 2295 5776 
5021 4728 5638 5204 5221 3145 4071 3884 3694 
4548 2541 5746 5171 4514 2211 4753 4799 4878 
3474 5401 2674 5751 4894 1291 3092 5247 2718 
3792 1521 5436 5246 3523 1110 3559 6013 4116 
5801 5755 2786 5350 2970 4183 3633 5792 5340 
709 3301 1692 2168 1954 1999 2413 3515 2792 
6009 4090 4150 5667 5741 1089 5391 5365 4624 
1940 3255 2763 2533 4177 4454 5293 1227 1296 
3881 2199 2430 5870 1656 4010 3786 4695 1946 
5770 4647 5116 2158 2628 1547 5361 3814 2890 
5279 5490 4968 1773 757 5789 4223 4036 4532 
4766 4826 5527 3575 3224 3691 2313 1701 249 
4688 1183 5410 1484 5215 1007 3319 3018 5589 
2137 5744 195 3114 2948 4790 4296 2178 2715 
1256 4716 2858 3461 2285 2408 1431 3717 2278 
5702 813 2128 3867 2767 504 3771 3425 5650 
4877 3942 159 2184 2813 5762 4228 2042 5294 
2496 5327 4636 1755 571 1825 5398 1736 4226 
2026 1361 5208 2091 1865 3604 5232 1778 2693 
3258 3242 1365 4148 4957 2866 2472 3386 5653 
5432 2601 4776 5851 5399 1557 3783 5484 5839 
3072 5767 5356 2651 3605 5570 2307 4437 3320 
5971 3194 5258 5867 1042 4563 5682 4836 3417 
3965 3506 3987 4420 2079 5889 5953 4003 4378 
1506 2872 3217 1688 1995 58 723 3270 3606 
4917 6060 2450 3596 4219 4879 1493 321 4486 
4546 1935 2231 3026 317 2376 2758 2362 2954 
3610 579 4759 108 5332 4259 1084 3857 1760 