# vtk DataFile Version 4.2
Generated by LIGGGHTS
ASCII
DATASET POLYDATA
POINTS 6000 float
-0.0229901 -0.0385636 0.00406909 -0.0220483 -0.0391617 0.00797759 -0.0154227 -0.0419843 0.00401036 
-0.0188725 -0.0408353 0.00599912 -0.0193425 -0.0368138 0.00495833 -0.0142976 -0.0396985 0.00722237 
-0.0121921 -0.0429661 0.00812178 -0.0183975 -0.0381962 0.00928759 -0.00825171 -0.0441745 0.00562047 
-0.0113296 -0.0417001 0.00427768 -0.00407188 -0.0447805 0.00539508 -0.00754939 -0.0401625 0.00397843 
-0.010689 -0.0382782 0.00623643 -0.00846579 -0.0418902 0.00905819 -0.00671832 -0.0371257 0.00733237 
-0.00411256 -0.0426048 0.00876988 -0.00130379 -0.0421874 0.00410271 0.00262075 -0.0411257 0.00415239 
-0.00371019 -0.0394817 0.00590184 0.00128017 -0.0447927 0.00583839 0.000361866 -0.038773 0.00653963 
0.00138146 -0.0416264 0.00919315 0.0100912 -0.0414136 0.00462113 0.0051762 -0.0445812 0.00420853 
0.00640856 -0.0396431 0.00420851 0.00991285 -0.0374127 0.00457792 0.00863533 -0.0440873 0.00736392 
0.00528736 -0.0419671 0.00821054 0.0119024 -0.0391156 0.00762111 0.0164777 -0.0417998 0.00411357 
0.0129974 -0.042989 0.00697649 0.0160547 -0.0385185 0.00686578 0.0196415 -0.0404798 0.00645613 
0.0167585 -0.0417119 0.00918066 0.0238712 -0.0380968 0.00831692 -0.0314155 -0.0321248 0.0040723 
-0.0292814 -0.0341384 0.00680504 -0.0289904 -0.0300986 0.00655831 -0.0337013 -0.0297203 0.00653994 
-0.0316575 -0.0319554 0.00915515 -0.0231619 -0.0342077 0.00399716 -0.0266104 -0.0320836 0.0039962 
-0.0230357 -0.0301726 0.00414672 -0.0262524 -0.0363864 0.00538405 -0.0225759 -0.0352041 0.00782245 
-0.0259126 -0.0331642 0.00874793 -0.0224276 -0.0312133 0.00936675 -0.0253215 -0.0290015 0.00770406 
-0.0194932 -0.0321017 0.00401755 -0.0162689 -0.0291693 0.00398491 -0.0126406 -0.0304793 0.00506791 
-0.0121953 -0.0346637 0.00550501 -0.0158792 -0.0360417 0.00705867 -0.0159791 -0.0320589 0.00683787 
-0.0191455 -0.0334372 0.00887615 -0.0127158 -0.0367561 0.00940235 -0.00805433 -0.0348866 0.00423164 
-0.00461334 -0.0323922 0.00552168 -0.00861017 -0.0310266 0.00509033 -0.0114505 -0.0320608 0.00860751 
-0.00546294 -0.0302744 0.00900512 -0.000147632 -0.0316068 0.00547545 0.00277943 -0.0290257 0.00398988 
-0.00238372 -0.0358645 0.00697071 0.00148967 -0.0349352 0.00694756 -0.00202213 -0.0322978 0.00908073 
0.0114834 -0.0337611 0.00406114 0.00632427 -0.035573 0.00478051 0.00432192 -0.0322398 0.00590078 
0.0103154 -0.0298967 0.00440188 0.00856117 -0.0327802 0.00684375 0.00566421 -0.0302961 0.00911863 
0.0171417 -0.0352514 0.00398269 0.0151315 -0.0321076 0.00556171 0.013568 -0.0354002 0.00719823 
0.01905 -0.0320882 0.00687611 0.0196594 -0.0358496 0.00847061 0.0125809 -0.0303245 0.00809383 
0.0209834 -0.037029 0.00469454 0.0239857 -0.0342841 0.00592588 0.0279657 -0.035038 0.00635179 
0.0228302 -0.0308834 0.00772131 0.0269988 -0.0311765 0.00734909 0.0337798 -0.0295093 0.00560459 
0.0309997 -0.0324872 0.00709762 -0.037608 -0.0247062 0.00500574 -0.0384376 -0.023359 0.00917431 
-0.0343041 -0.0267059 0.00399569 -0.0303556 -0.0273429 0.00401335 -0.0289242 -0.0233461 0.0040057 
-0.0345819 -0.0221736 0.00442035 -0.0319587 -0.0245875 0.00643646 -0.0362189 -0.0266689 0.00819397 
-0.031163 -0.0276613 0.00886414 -0.0346189 -0.0223995 0.0084643 -0.0264257 -0.028043 0.00397689 
-0.0233276 -0.0255197 0.00397305 -0.0255377 -0.0212092 0.00402154 -0.021823 -0.0220891 0.00533759 
-0.0279986 -0.0260473 0.00704402 -0.0244508 -0.0239917 0.00765383 -0.0279801 -0.022142 0.00785343 
-0.0221423 -0.0272322 0.00937511 -0.0211405 -0.0214434 0.00923076 -0.0177787 -0.0246406 0.0039831 
-0.0150051 -0.0217986 0.00432049 -0.0198924 -0.0278649 0.00499194 -0.0141919 -0.0259578 0.0051158 
-0.0196848 -0.0247297 0.00747439 -0.0169676 -0.0276969 0.00769054 -0.015909 -0.024017 0.00880581 
-0.0129623 -0.02685 0.00885605 -0.0103523 -0.0268514 0.00575295 -0.00661769 -0.0276863 0.00401938 
-0.00820105 -0.0239613 0.00403634 -0.0110427 -0.0208162 0.00399234 -0.00439583 -0.0211447 0.00444094 
-0.0122623 -0.0230667 0.00708565 -0.00627558 -0.0253587 0.00722223 -0.00956936 -0.0248374 0.00946311 
-0.00919087 -0.0287911 0.00906978 -0.00689137 -0.0214121 0.00777346 0.000811684 -0.0255257 0.00398758 
-0.00296967 -0.0287095 0.00525117 0.000619616 -0.0218073 0.00538175 -0.0023924 -0.0244665 0.00617177 
0.000534332 -0.027931 0.00715791 0.00348497 -0.0226438 0.00806618 0.00383894 -0.0267215 0.00923035 
0.00519951 -0.0248364 0.00401074 0.00657135 -0.0284368 0.00543786 0.00921718 -0.0246039 0.00433314 
0.00443816 -0.0209391 0.0045818 0.00943254 -0.0277339 0.00830966 0.00690965 -0.0247116 0.00762369 
0.0106336 -0.0239681 0.00885961 0.0127444 -0.0267058 0.00522205 0.0169966 -0.0283613 0.00568283 
0.0163272 -0.0244423 0.00517183 0.0191703 -0.0216146 0.00455544 0.0127354 -0.0226652 0.00451102 
0.0199037 -0.0282633 0.00854405 0.0136441 -0.0265698 0.00932873 0.0163086 -0.0212798 0.00776903 
0.0240397 -0.0274329 0.00547186 0.0283349 -0.0250777 0.00432103 0.0207044 -0.0252386 0.00581751 
0.0232635 -0.0221084 0.00598617 0.0272529 -0.0220797 0.00714179 0.0270626 -0.0268651 0.00805674 
0.0235604 -0.0251273 0.00895213 0.029745 -0.0287472 0.00573935 0.032576 -0.0257857 0.00432686 
0.0323698 -0.0218039 0.00535379 0.034959 -0.0233088 0.00823831 0.0362089 -0.0263409 0.00591435 
0.0321084 -0.0276435 0.00899626 0.0386023 -0.0228289 0.0057613 -0.0411459 -0.0182491 0.00398789 
-0.037328 -0.0170735 0.00398835 -0.0395857 -0.0213651 0.00592137 -0.0425722 -0.0145277 0.00401002 
-0.0412821 -0.0161915 0.00739983 -0.0366603 -0.0190659 0.00739147 -0.0404204 -0.0197638 0.00952614 
-0.0374506 -0.0150636 0.00743331 -0.0421393 -0.0154413 0.0112193 -0.0335418 -0.018341 0.0039927 
-0.028765 -0.0188294 0.0040401 -0.0291186 -0.0148548 0.00399517 -0.0364742 -0.0130818 0.00398858 
-0.0330085 -0.0146019 0.00524581 -0.0313854 -0.0206397 0.00643401 -0.031652 -0.0170555 0.00818281 
-0.0340188 -0.0138544 0.00905915 -0.0300415 -0.0133491 0.00758259 -0.0220191 -0.0178759 0.00402416 
-0.0215318 -0.0138508 0.00398507 -0.025521 -0.0162114 0.00517303 -0.0239795 -0.0192097 0.0075282 
-0.0277808 -0.0180398 0.00797364 -0.0228743 -0.01551 0.00852547 -0.0261388 -0.0132027 0.00844312 
-0.0185827 -0.0199417 0.00400672 -0.0152575 -0.0178267 0.00467636 -0.0175549 -0.0146282 0.0039804 
-0.0193652 -0.0165654 0.00696142 -0.0138746 -0.0130976 0.00400158 -0.0149928 -0.0201712 0.00797669 
-0.0150816 -0.0158603 0.00814246 -0.0183162 -0.0187649 0.0101108 -0.0197629 -0.012812 0.00830755 
-0.0114441 -0.0168261 0.0039836 -0.00454943 -0.0167804 0.00399269 -0.00834134 -0.014346 0.00405917 
-0.00801442 -0.0185125 0.00522351 -0.0114629 -0.0181867 0.00773286 -0.0115439 -0.0142599 0.00705555 
-0.0068271 -0.0144504 0.0077416 -0.00784889 -0.017903 0.00947677 -0.000801232 -0.015319 0.00398224 
-0.00166407 -0.0186085 0.00606101 0.00244519 -0.0173853 0.00506506 -0.00397375 -0.0128637 0.00462724 
0.000369166 -0.0153192 0.00782746 -0.00387761 -0.0176363 0.00923436 -0.00309406 -0.0135758 0.00883895 
0.00325993 -0.0129874 0.00932562 0.00647073 -0.0175514 0.00400088 0.0101229 -0.0158524 0.00401868 
0.00439975 -0.0140292 0.00398773 0.00935574 -0.0205584 0.00443557 0.00799588 -0.0132028 0.00614882 
0.00874234 -0.0183792 0.0077866 0.00528795 -0.0158555 0.00742419 0.00486336 -0.0192015 0.00956135 
0.0123138 -0.0165503 0.00727971 0.0113013 -0.0128332 0.00837707 0.012971 -0.0187178 0.00399335 
0.0142809 -0.0149029 0.00404355 0.0181572 -0.0136839 0.00398631 0.0199666 -0.0176606 0.0041813 
0.0162396 -0.0175006 0.00644944 0.0123726 -0.0204955 0.00786809 0.020082 -0.0143407 0.00752359 
0.0151877 -0.0145107 0.0091888 0.0202931 -0.019739 0.00791832 0.0255014 -0.0185932 0.00508955 
0.024215 -0.0139905 0.00478643 0.0281341 -0.0150973 0.00609211 0.0235003 -0.0164012 0.00801186 
0.0258173 -0.0129345 0.00872664 0.0361704 -0.0172261 0.00472973 0.0321795 -0.0157156 0.00549396 
0.029505 -0.0188554 0.00607305 0.0330617 -0.0188714 0.00823604 0.0350233 -0.0129989 0.00694051 
0.0418193 -0.0153948 0.00546845 0.0385744 -0.0131828 0.00470524 0.0405068 -0.0194253 0.00687113 
0.0382027 -0.0163906 0.00808468 0.0397142 -0.0127263 0.00871131 -0.0437143 -0.0107056 0.00398121 
-0.0380929 -0.00921506 0.00398675 -0.040817 -0.00628765 0.00444961 -0.0398763 -0.0122742 0.00591491 
-0.0442352 -0.00801756 0.00687115 -0.0446579 -0.00527509 0.00399166 -0.0434026 -0.0118499 0.00811637 
-0.0405749 -0.00900572 0.00809409 -0.0396877 -0.012562 0.00992254 -0.0441495 -0.00842971 0.010826 
-0.0370356 -0.00739186 0.00895086 -0.0415629 -0.00554903 0.00985904 -0.0447842 -0.00418009 0.00782458 
-0.0329551 -0.0108226 0.00400043 -0.0368956 -0.00534792 0.00398817 -0.0290511 -0.00680955 0.00432528 
-0.0343392 -0.00767015 0.00601981 -0.0308741 -0.00940963 0.00712947 -0.0361891 -0.0109655 0.00735397 
-0.0313241 -0.00545208 0.00744662 -0.0288399 -0.010798 0.00398974 -0.0252382 -0.00808974 0.00401654 
-0.0214721 -0.00495667 0.00399872 -0.0251735 -0.0122339 0.00460161 -0.0215317 -0.00964814 0.0045008 
-0.0231783 -0.0067008 0.00718013 -0.0231268 -0.0105859 0.0081218 -0.0268898 -0.00942187 0.00739823 
-0.0181575 -0.00718703 0.00398132 -0.0178229 -0.0109121 0.00538213 -0.0145493 -0.00876413 0.00461775 
-0.0147239 -0.0118835 0.00779293 -0.0196573 -0.00850396 0.00799887 -0.016263 -0.0064436 0.00741672 
-0.00718967 -0.0105198 0.00405847 -0.00537155 -0.00698129 0.00434817 -0.0109915 -0.0106411 0.00525772 
-0.0115067 -0.00617525 0.00474758 -0.00583087 -0.010603 0.00815991 -0.00874127 -0.00799765 0.00722853 
-0.00955429 -0.0116103 0.00927589 -0.00655126 -0.00460565 0.00745012 -0.0111365 -0.00463369 0.0086369 
0.0010847 -0.0119465 0.00500358 -0.0020118 -0.00936013 0.00428663 0.00169509 -0.0080713 0.00596882 
-0.00127347 -0.00551575 0.00517247 -0.000894412 -0.0103014 0.00816177 -0.00356314 -0.00732572 0.00791095 
7.72214e-05 -0.00650275 0.00935792 0.00865752 -0.00991396 0.00399421 0.00549484 -0.00738882 0.00408645 
0.00924121 -0.00604422 0.00488345 0.00471146 -0.0108007 0.00630477 0.0114618 -0.00866334 0.00694356 
[...]
POINT_DATA 6000
FIELD FieldData 7
id 1 6000 int
5943 3922 5932 5639 3421 6027 5904 4775 4682 
4744 1128 2984 3039 5081 4703 5662 2569 34 
5545 5227 4439 4896 4737 5093 4465 2536 2066 
1659 1154 2609 3335 1874 4782 5605 5740 5739 
1333 3586 5573 4373 313 3313 3702 6059 3212 
4752 4209 5875 4456 5529 5728 3032 3387 3984 
4106 4928 18 3120 2020 3731 2148 1088 2310 
2261 1891 5014 2222 3324 5962 2612 5322 3373 
5730 403 1650 3040 2453 3957 3479 4412 2666 
1397 4610 2013 2227 6037 4086 143 5052 679 
5363 4006 2427 5663 4321 1152 5229 4088 6043 
473 5794 3892 2008 3576 5856 4570 5318 2623 
3216 3006 985 5059 5303 1013 654 2626 1354 
747 3692 5255 1123 350 1939 4405 1539 2358 
5915 241 628 426 3375 1767 209 2843 1955 
1352 1347 3753 1236 2114 1228 1721 609 1885 
2905 2392 2768 78 2331 3359 2251 2136 4867 
44 2968 2560 1687 5040 5420 525 5346 4853 
3521 5297 3882 4365 20 4649 3 5402 4026 
4128 5929 3710 5691 1962 5304 5451 3558 3923 
5097 4553 5557 774 3549 2339 6053 1630 4689 
2135 5852 606 396 1584 1732 257 178 3933 
81 5936 1600 5586 1129 1372 477 3311 1930 
1632 664 1576 408 1607 575 1730 1045 1631 
1886 2654 576 2704 208 1698 639 2754 997 
3045 2517 4139 496 1305 3758 1949 181 3010 
4837 4159 4810 3101 5524 1612 4789 3677 4388 
4249 2122 3455 5684 4371 3382 471 4590 3208 
1903 2206 2586 5106 4060 4362 4087 710 5217 
38 3416 5298 364 3961 4284 3791 5695 988 
5224 5500 2329 738 435 522 432 214 274 
247 1512 1189 3913 301 694 582 440 383 
864 1472 565 91 1637 1046 211 341 245 
1446 173 3851 2555 2659 2844 3595 267 4191 
797 2633 2857 459 2629 2961 1374 5090 4032 
3900 4883 4592 2290 5050 4678 2731 3793 3585 
3017 4074 1546 2418 3938 3471 1691 117 1715 
1449 4569 3534 268 1741 720 4777 49 3968 
4202 502 402 5846 5265 2775 4080 3008 3453 
550 165 660 2810 640 858 377 2109 1440 
758 508 616 153 368 98 1171 890 306 
444 164 1272 266 560 1362 275 659 390 
381 61 1168 2879 1182 641 983 1792 3245 
2915 1325 399 258 1195 551 1526 2182 2523 
2709 3408 5815 4391 2081 5084 5583 4392 60 
5495 6006 3166 3747 3988 3530 3552 4258 1961 
4138 175 4948 636 4600 1376 638 1078 537 
1093 252 1445 2327 1371 3098 62 48 234 
63 1523 870 935 1307 529 468 517 397 
1108 840 2867 857 1011 171 812 1458 1218 
1180 1645 1246 1177 1709 311 1016 1913 851 
420 133 513 490 795 1000 1070 1378 1749 
1514 853 200 1969 766 524 456 572 2403 
1069 3396 3665 2325 620 127 40 2077 4513 
2543 3028 4035 3409 15 2515 2289 4591 3082 
3226 2514 1306 417 4667 2111 2699 5982 3369 
4791 292 2510 421 2113 1240 2990 1934 1419 
2094 1770 2863 107 1790 88 1628 30 1570 
1424 647 906 330 678 2104 1525 45 1534 
441 236 2778 952 1850 1420 162 1267 590 
1304 1798 3662 1642 849 1887 67 2398 859 
100 1034 1215 418 2501 1724 1490 2262 1817 
559 1188 1320 2400 1164 687 4264 663 132 
4245 1991 2161 194 2283 31 1679 3463 940 
2519 1028 3551 927 2151 4690 5742 1211 1136 
4176 3963 1627 4307 5367 2869 1535 4573 4381 
1807 5272 5430 3566 546 1047 3327 3186 229 
3908 1308 1606 1060 427 1311 2452 1269 2326 
3110 2636 762 2366 3399 2385 893 1039 1426 
1037 2944 2328 680 1944 2071 2311 1300 2987 
1421 4184 2686 1831 3068 900 656 2120 1923 
3304 1932 4098 993 4965 1816 2117 2345 3868 
4190 4135 2852 1689 2341 3023 863 2352 2197 
2235 4664 1399 2064 1791 13 3038 2299 299 
2256 819 2116 387 1520 5419 601 4705 2884 
910 4360 3998 1146 1121 5184 5417 5460 5896 
4480 3950 1757 549 2097 3162 1611 2974 483 
887 3093 55 2302 1648 4352 146 4933 4293 
3600 2383 2900 5185 3005 4453 3444 5973 3089 
92 1528 2583 2642 1673 950 5575 2729 3189 
1805 2895 2462 3431 3809 3514 6063 5855 2814 
3290 3843 2258 2103 903 478 2751 6021 4108 
2723 895 3919 540 5743 3367 2454 4082 5621 
4639 4629 1851 637 2799 4019 367 5296 2962 
4651 4983 3762 5180 2726 4487 1906 357 3889 
4256 1713 2266 3775 4277 3322 3087 1614 2797 
4635 4334 4317 2655 3427 242 2676 4748 4526 
3898 5139 2683 4077 412 1225 2789 3512 2249 
5819 1024 3411 3719 5986 6000 5342 4158 4474 
3805 5615 4164 2794 4899 3288 4489 5897 2593 
2708 5868 5032 4034 3517 3107 1662 5302 5073 
5260 5822 3616 5759 4501 4361 5827 5724 4315 
2878 3568 5416 1396 5328 2645 6014 3326 374 
4123 4206 4000 3325 4312 5005 5156 4986 4297 
302 2014 3714 5949 5592 4534 1540 4322 5672 
2037 5514 1558 3069 4357 6010 3948 5358 3725 
4683 5515 4411 5732 5768 5424 4153 6040 4464 
5202 5823 4103 5539 5977 3833 2625 4939 6029 
5828 5186 3847 4919 6047 5701 5167 1837 4509 
4969 4809 3587 5957 1417 5055 4821 5848 361 
5189 5584 4151 4446 5696 5241 4359 5325 4935 
1439 5481 5665 470 4042 3781 5680 5423 3954 
5478 3013 3709 4013 1098 2922 2732 3022 4240 
2129 3185 4447 4466 5760 3285 3825 6007 4761 
3223 3347 3869 4303 4017 6032 3531 4719 5026 
4140 4304 5536 5483 3699 4427 4762 4353 3230 
5718 3021 3690 5127 4131 4954 5711 4888 3447 
4308 5134 3030 5299 5281 5348 3075 2746 2422 
2524 3932 4910 3443 3102 2603 4376 1331 5700 
3872 5864 1707 3459 2998 1905 4382 4320 2982 
3220 3478 2107 2896 4350 3136 3260 2379 2420 
2229 3777 2337 1636 3161 1563 2505 2257 2650 
3726 5147 3388 3494 4628 1901 994 4276 3668 
5124 3449 5236 4970 5706 4484 4174 5808 4982 
4272 4768 3949 4942 3730 4709 4267 6045 5372 
4434 4122 3723 3834 5504 1065 917 1145 126 
5290 3059 5105 3738 5043 1914 5238 216 876 
629 2542 5261 5716 73 371 938 1184 682 
401 4511 1015 1853 2585 520 737 881 1221 
1568 1828 726 2236 1437 1633 1670 3682 400 
1063 26 3103 904 2897 4478 2156 3071 3681 
2130 2861 986 2842 4448 2739 3798 3323 4205 
2202 3238 4685 4616 72 5393 5182 3469 4893 
4078 4298 2875 4722 2780 2579 3626 3481 3235 
4780 3839 2513 1846 3827 4124 2101 850 2677 
4073 135 429 1031 4718 531 281 5194 2920 
3418 139 969 2444 270 632 2346 4602 4892 
528 5645 1668 2460 4605 1787 1652 706 3492 
235 3298 248 35 339 848 1318 626 5181 
4741 392 987 614 781 455 1861 188 338 
282 964 1257 1027 1232 558 308 1259 238 
725 886 1711 2793 1829 2960 1466 1910 2436 
5135 2600 1043 1958 742 4452 1855 2217 4280 
1056 3413 3321 4872 658 4857 2999 3570 3649 
3317 5006 4668 3855 4114 4909 5007 4745 4517 
3518 4403 3391 5487 4188 4450 4306 4436 4630 
4170 4004 4375 4614 574 499 1277 32 452 
358 902 1294 1776 1588 1053 3269 842 71 
316 2036 1706 773 552 244 948 684 251 
2850 789 1619 123 1141 1 810 1883 2537 
69 519 118 329 507 170 843 221 1436 
1684 265 1191 713 2 217 748 1066 352 
1369 673 1542 177 184 951 1339 2631 532 
1471 545 1214 619 1738 2911 1010 149 1693 
1118 2776 76 1192 666 1487 2574 2635 5664 
530 874 4711 3859 2705 4227 4459 4020 5991 
3822 3993 2955 5566 3243 4842 4901 1907 3466 
160 2393 5560 5577 5541 4269 5176 3432 3545 
4807 4714 5200 4876 2950 4599 5422 3328 4680 
4679 5300 4632 4781 5162 278 1074 976 500 
1261 2338 2363 2432 2477 869 3588 1456 1401 
474 466 1505 608 1115 66 1872 691 622 
822 75 434 740 297 1044 17 1071 145 
136 1139 1095 1491 479 1562 166 865 538 
380 366 348 1243 328 1560 635 388 43 
867 1103 129 385 279 1398 122 667 937 
1747 1186 1005 23 298 3356 4606 1536 688 
3625 729 2511 674 3780 862 433 373 2475 
3126 3058 5454 1564 1317 1621 446 828 1750 
2665 2324 1970 2588 2940 611 3615 3368 970 
3364 343 5726 3420 5503 4197 5781 3967 2737 
1017 5863 5934 4815 2618 5074 2059 2118 2883 
2490 3544 3184 3305 2292 2423 2478 2263 1072 
1722 1782 2356 3353 2099 353 2015 984 2663 
2781 2459 2105 2577 885 1462 1223 2095 2591 
1531 896 2190 701 2545 2167 3581 1556 3675 
1527 1167 2073 319 514 2535 121 27 431 
1538 305 3779 924 4268 521 2404 1864 826 
2622 2972 5231 809 4057 4345 3491 4100 2463 
3647 5752 3590 5674 4926 961 2589 189 4348 
3316 3052 5404 4470 1818 4482 5463 6025 5009 
3980 4881 5787 4865 2549 413 5989 5150 3536 
5542 4699 1859 3210 3579 2022 484 2264 3201 
916 1768 583 2748 3915 3393 2447 1052 1959 
3340 2691 3020 3262 3546 2821 1667 1126 3406 
3815 3540 4126 3334 3398 4584 2995 5066 2727 
518 676 4798 5173 3442 4583 5082 4198 2868 
4915 5558 4738 5911 811 3036 3810 4115 254 
4394 2777 4953 4503 2825 4199 86 2499 4069 
5133 4173 2788 3405 5158 4180 3848 5042 5731 
5834 4141 4163 2367 3888 5312 4850 3623 5285 
5174 3133 6030 5140 5821 4671 4224 4477 3661 
4270 2242 2835 2687 5780 3433 5549 3594 1018 
2760 5496 3041 5881 6046 3249 3357 4118 4261 
1545 4701 3850 4169 4485 2979 5351 5937 1049 
5428 2889 5758 3460 5538 5392 5485 4056 5094 
5969 1473 5987 5916 2907 1763 4349 4861 2976 
5287 5126 5835 4641 5921 4300 5919 3266 4203 
4157 288 5491 4978 5095 5999 5773 2402 5640 
3759 4908 5931 4221 6036 2902 5847 5984 5119 
4432 5543 3679 5725 3333 5550 3383 5104 5447 
5248 5249 4354 2276 4677 5234 4596 5193 2880 
1609 4839 1857 4160 3612 5148 3562 5473 4813 
5113 5252 3656 3918 5079 5843 3643 6052 4414 
5757 5374 4806 2193 5331 3865 5994 4995 4617 
4011 6017 4582 4022 4471 5213 3849 5359 5458 
1521 4756 5045 1020 1680 3306 2714 4749 5685 
4984 5556 5051 5347 4134 3974 932 6023 3054 
2522 3986 4586 3390 5565 1771 5085 2886 3737 
5385 2864 4136 2638 4326 3994 5364 4422 5166 
4743 3873 3706 4567 3507 5804 5368 5314 5409 
4562 3464 3415 3947 4295 2782 5178 4409 2158 
3180 2344 2520 4875 3281 4943 2853 5552 5377 
2595 5366 3539 2078 4723 2195 6004 6020 4406 
4340 2433 2784 745 2939 4195 2434 3991 3378 
3414 3785 4805 1565 3801 5956 5499 1774 5563 
4147 1982 4461 5024 3081 1087 4674 3350 5588 
4363 1737 855 4212 2159 3362 5373 1293 2860 
4309 2553 5951 3776 5886 5634 5890 4924 796 
2613 2362 4400 3475 3374 3308 2787 3124 4541 
3329 3981 2749 3773 3671 3883 4554 5421 4544 
5048 4700 3653 5316 4500 4973 5811 5913 6001 
3741 5243 3804 3412 4179 2639 4747 6008 4433 
2301 4220 4956 5719 4721 5382 4697 4638 3454 
3172 4095 5910 5531 5948 3846 4389 4828 4339 
5278 2245 3019 3381 5489 1871 2840 2431 2688 
2355 4165 1655 1697 3084 5061 1242 3712 485 
1751 3632 1820 4879 718 4486 2822 1845 4849 
2934 3548 4784 2369 4759 2231 579 1760 5445 
2758 5918 2216 542 3941 2451 3458 3856 2380 
2846 4740 3902 3935 3132 3129 3733 4133 2187 
1998 2353 2811 4746 2001 5282 5406 2992 3769 
4232 4229 835 1705 3861 4111 5521 3655 512 
4712 2303 3315 4469 5426 1765 515 732 708 
2740 2550 5935 2602 5188 2930 1802 3160 2147 
324 3057 3342 1550 2108 1867 3192 1651 1686 
2959 2480 1249 3529 1909 1315 3012 3035 2958 
2503 2640 3296 5995 2051 272 2910 2365 4727 
3297 5968 5070 1312 941 4512 2719 4330 3857 
4049 2019 767 2479 1990 1890 3363 1922 294 
2192 1625 1733 960 2277 2698 3724 2457 1181 
1479 1393 1245 543 918 652 2809 791 204 
493 3137 2378 2681 2347 2856 2916 4556 314 
411 6012 5049 215 2213 1406 727 223 801 
1038 852 337 3688 85 28 2580 1092 210 
548 29 437 645 1403 1766 841 1284 734 
612 569 19 1832 2274 981 309 1819 2488 
2568 2280 2334 2406 4094 2656 5537 2805 1799 
5110 3064 4239 4913 4398 5802 4055 5121 4597 
2753 4458 4342 5965 4081 3824 2964 5641 5315 
4851 3962 6050 4931 5769 4338 1275 794 3541 
649 2000 336 2149 2491 1827 2237 1574 1492 
2877 1947 570 1336 1197 1810 1163 1193 1383 
2233 1366 1254 646 2894 979 172 7 128 
1055 926 1735 755 804 897 825 1135 365 
568 393 152 410 307 333 942 818 2439 
1219 130 1203 605 104 555 47 354 602 
1438 323 379 286 198 523 1271 1516 384 
1075 798 580 4252 124 598 1511 50 325 
3218 3106 207 453 2646 4932 2220 2975 2888 
2692 3436 2132 5600 3389 4314 4204 4816 5027 
5633 4923 5952 2935 4329 5678 2615 5488 4944 
4622 5362 4497 4370 4692 5380 5251 4289 4702 
4244 5788 5022 5756 5806 1345 2410 1021 4002 
4046 3128 2738 1710 2387 4254 2173 3229 930 
657 2881 2428 2512 3066 498 1945 1694 707 
2340 2018 3939 2977 1022 957 2062 1288 1450 
1641 1334 56 1172 1598 2389 2023 1340 96 
1561 721 310 1002 671 2265 591 715 2273 
1216 196 1654 1727 1465 250 1287 105 1480 
451 907 1510 2241 634 142 603 370 756 
472 2142 1162 1481 3597 3929 3099 4571 806 
476 592 1579 4045 9 4438 362 1077 2530 
5259 1429 4105 5572 536 4390 5155 5108 5226 
5218 5658 1762 5764 4843 4993 5582 4934 5242 
5878 4675 3503 3906 4068 2722 5703 5011 6038 
4885 5465 5075 4531 5652 2938 4536 5649 4725 
5143 5551 5403 4694 5729 3446 3366 3542 4940 
2870 3659 4155 3641 1953 3246 2744 2606 3685 
4528 3410 2807 3209 3177 963 2924 3173 482 
3806 3885 3094 516 1400 2032 1385 1605 1843 
3489 1941 2144 2527 1916 1099 587 1299 2306 
2497 5099 231 461 1388 3457 2720 681 3614 
1226 4852 2820 2764 4119 5033 3310 5925 4887 
3480 5103 4620 3996 5981 4652 4543 4445 3275 
5092 6055 5512 1390 4335 4990 5381 3985 5257 
4763 4972 5616 5083 5023 3015 4234 5850 5214 
3664 5267 5831 5749 4870 4868 4730 4557 5501 
5574 3153 2965 3583 3511 3434 3837 4152 3501 
3599 4341 3165 4608 3910 2052 4999 1803 4351 
4655 3292 4613 3895 4755 3037 1653 3678 2608 
3400 4549 2110 4508 4200 4793 3721 3076 5945 
3502 5721 4693 5569 5195 5576 2467 3646 5253 
3584 3505 4673 5096 3979 4724 3749 5812 5785 
4460 3740 4275 5443 5884 5698 5631 5922 5585 
5275 1956 3711 4601 4012 4442 5604 5254 5438 
4247 3096 5239 2804 5892 4615 3291 5161 3990 
5464 5284 4075 4431 5100 4522 4619 5125 4603 
3279 4037 4492 6002 2076 3897 5786 5637 5091 
5264 4555 3934 4891 1877 4213 2057 386 4844 
4217 6069 4670 5930 4529 5657 1856 2016 2295 
5745 5212 3135 544 4739 5130 3164 5321 4676 
4327 4379 3924 3876 2047 3925 5877 3582 5771 
5648 2092 5961 4838 5137 3060 4959 5123 3952 
3063 2507 5590 5942 6051 5627 5661 5625 4579 
5832 4402 2942 4736 5334 4654 2223 5997 5860 
5054 5825 4112 3450 2044 3234 1569 6044 4273 
4998 5151 5201 5117 5357 3788 4796 5620 5394 
3875 4886 4728 1795 4473 1552 5021 5276 5879 
3145 2541 4548 2084 3694 5746 5793 562 5776 
4799 5444 3884 4937 5747 4071 4514 2674 5171 
4054 746 1291 5401 3651 5694 4175 4266 3474 
4423 1504 5407 5247 5225 4332 3138 3840 5361 
4826 5972 3713 5436 4869 2890 2702 4687 3736 
5063 3575 5410 4578 1110 4116 6013 5527 5841 
3112 2386 3152 5528 5607 2268 3820 5013 3338 
5350 4829 5944 2508 1777 6016 1601 3553 5610 
5710 4399 5203 4127 3795 2416 5526 4347 4581 
4238 4502 5891 4988 5486 2649 2042 5927 1865 
3604 1743 1365 1557 4776 5653 2693 2601 757 
5279 5399 5432 5307 2866 5626 5902 3603 2208 
4766 4366 2472 3814 3224 3072 5461 4803 1183 
5215 3783 3320 5744 4977 5448 5440 5244 3345 
1392 5390 5442 5708 4565 2316 1323 3997 6065 
5813 1062 5222 5908 5192 2284 113 5555 4380 
5650 1646 4021 2496 1690 5294 4228 1764 2767 
4546 2943 4636 571 1755 1825 3435 1736 4226 
2026 1361 5250 497 5516 5208 5859 3134 4440 
5142 5333 5938 1179 3930 3354 3300 3819 5914 
2270 4364 2594 5441 5523 5712 5849 5736 5833 
3250 4271 3386 5146 2131 3361 3141 5775 5163 
5959 5705 5564 5266 4462 3403 5903 5170 5659 
3295 5223 788 3807 2988 4358 4493 2711 1965 
3611 3826 3672 3219 1847 4818 3828 2770 2054 
723 39 4904 2024 58 5707 6060 2450 1935 
321 3026 1493 2184 2376 4819 5398 1900 4014 
317 1084 2954 3610 1938 5332 6066 5838 594 
2621 4305 158 2919 978 101 3794 998 2401 
114 5450 3346 3975 3283 2617 2834 3451 5853 
4331 4025 6058 4033 1806 2485 2772 2112 5795 
2827 4734 1498 3397 4598 3227 3767 3639 735 
4187 2394 2882 3122 1748 3841 5498 5384 303 
3982 111 4263 5220 5412 2785 4257 4101 2438 
4457 3732 4355 2800 2912 1585 2703 3666 1838 
577 3580 4518 1404 1503 2531 102 1708 2080 
3852 2747 1100 2322 820 1983 2063 4792 24 
2343 3452 5008 1415 4274 2150 108 77 93 
4208 1176 884 4841 5088 4767 5309 2005 4259 
4472 1377 407 3931 1461 1702 3143 1926 3953 
315 1204 1647 2134 2684 3509 2538 2336 1801 
2644 1360 2049 2891 700 711 2038 2721 1695 
1869 2293 3195 5876 481 589 1971 3670 2435 
3011 1870 4143 1873 2003 662 685 415 51 
670 2070 1899 179 1280 2232 291 3379 156 
1138 1148 46 1091 64 284 921 909 1194 
296 630 83 581 1968 1200 669 492 936 
698 1322 395 2534 1032 1592 1114 1754 463 
4920 2653 618 3263 1434 2304 1669 2440 1943 
334 4343 2817 1153 6024 1079 1830 3282 2926 
4515 4751 3696 3921 3377 3247 5630 1794 3972 
4428 3890 2675 971 1160 42 3607 1739 1746 
1924 2556 2700 2971 2658 4374 965 2127 3100 
2228 2578 1911 3119 14 584 1090 752 1004 
2248 1235 1409 1786 103 1157 1097 1452 829 
404 724 561 989 839 578 256 445 1206 
57 161 359 185 879 677 480 785 227 
1671 3909 805 344 675 3206 1821 438 672 
2100 3488 2521 4154 4377 4065 4346 3903 5270 
4072 3476 5587 3232 2908 5866 5753 220 1753 
3440 4824 1987 6049 3171 140 1758 1033 5612 
5651 5830 3467 2563 5020 5277 1572 6018 5722 
3477 2829 3956 4356 4225 3448 5002 4856 4523 
4589 3251 1482 2297 2469 4005 3085 1716 4125 
1809 2836 3309 2611 3473 3231 2335 1448 1551 
2050 3065 2181 769 883 1358 1258 206 1590 
1559 1273 651 1626 2060 262 442 1643 168 
1085 1156 1234 1266 280 564 764 439 933 
553 4520 3430 1888 2315 1718 2695 1497 2830 
3510 3816 2528 1957 2996 3704 4653 2067 4494 
4916 5518 5810 4715 4783 5344 6062 2637 5330 
2333 3046 2180 2841 4797 3700 5906 1602 824 
4168 5323 4193 5439 5933 4681 2133 5807 3871 
5320 4235 3870 5004 2165 2007 4413 2405 5112 
5836 5467 5457 3048 3745 3617 2620 4559 4053 
3636 4691 2696 1723 3652 3838 3999 1124 4091 
3193 2391 567 800 2983 273 1395 1012 763 
1524 2928 4698 347 2798 1329 21 731 2296 
1432 2373 892 1260 2941 2828 2395 1964 2826 
3256 3339 3904 2980 2634 3705 3002 5172 4230 
3307 4301 5954 5431 5479 4552 4772 5047 2357 
4506 4194 2029 5164 3640 5613 2845 5974 5958 
6061 3205 1309 2885 1207 4950 4971 5996 3589 
4845 5466 5301 3940 2348 3429 1423 1008 1150 
5544 5183 5642 5683 4997 5353 5704 2559 4324 
4507 2481 4754 4946 4418 3240 4854 3151 2865 
3274 5386 2993 2610 4566 3380 1603 3811 2006 
318 1422 4120 6034 2766 3619 2218 4504 5283 
5644 2986 2294 4113 599 2947 816 5818 5720 
5798 2660 5069 4661 3928 2281 3657 2275 1682 
5337 4757 3044 3352 4735 4987 751 1386 4912 
3701 5887 264 1918 1920 4287 1190 4947 2949 
2525 5817 5622 1717 5547 2734 4786 3024 1780 
2806 5888 1081 4710 5305 3667 4519 4717 1247 
4658 4146 817 2552 3680 4368 3014 5598 1848 
923 2985 1617 5383 157 5901 3004 3995 1573 
1966 2641 5697 4483 243 2375 2305 10 3958 
3140 631 2730 3500 1875 3007 4991 3078 3528 
5210 2755 905 1116 4788 5790 5629 1571 5660 
428 331 3487 1685 4207 4479 5405 2041 4660 
4455 5571 1201 3624 5509 4564 2288 5595 5594 
4835 1202 5738 4817 5963 4325 5568 3627 5221 
3000 5204 2584 2211 5998 1268 3524 5470 1554 
4753 2733 1731 5638 2956 4949 2832 36 1696 
2189 4894 5751 2599 4823 6033 4093 4897 5614 
4444 5869 2718 5632 3792 4084 4941 4812 5228 
4028 5116 1351 3523 2786 3844 5482 4223 1882 
3332 1773 642 4595 1042 5801 5152 3559 3633 
3148 4183 1363 709 1999 5792 2970 5003 5415 
4451 5668 5561 2226 6064 1030 4031 2300 4561 
5452 3703 4790 5138 1937 3881 2430 2199 3255 
4695 5770 4189 3569 1547 2470 4647 1230 3242 
3878 967 3355 4918 457 5036 3691 5851 5767 
3628 2307 5484 2590 137 3194 5839 3803 195 
3927 1977 4726 5395 4836 2137 2581 2874 4880 
3965 4563 4858 4585 1199 4424 131 2728 3461 
5209 6048 5391 4627 3942 3425 2466 504 159 
5686 5762 3832 5327 3543 5912 5336 5080 2813 
4372 2632 3203 4609 4684 1725 3130 3258 4968 
5699 5177 4510 4706 4255 2312 5232 1826 5449 
1001 1435 5115 4410 4855 5034 1338 5356 4811 
3424 4831 1701 5219 5256 802 4156 3955 4099 
2969 5873 3578 3009 5964 973 3456 5782 4604 
3426 4367 1808 5205 5235 2443 5128 5979 3385 
1992 2506 3270 3606 4659 4003 4302 2587 4917 
1813 1035 777 4219 703 5068 3111 2498 1474 
1610 3774 1346 5015 5675 2384 3188 5990 3720 
3445 5976 1217 5077 736 5829 2855 1784 3565 
1350 2605 5292 2598 3602 1785 3222 4214 4704 
2652 1143 5676 977 4612 3056 5154 4463 1580 
5763 4963 5646 4222 1086 2106 2495 1775 1676 
176 1379 1929 838 2848 4496 5909 4985 945 
4290 4646 2487 4211 4800 3914 5513 3591 1548 
894 1915 4874 5858 3027 4292 3729 3147 3618 
190 1928 3213 5206 169 1213 4243 1289 2219 
2953 2449 1224 4253 939 4023 2163 1443 1220 
2230 787 1314 5814 2196 3482 222 4089 5190 
776 1720 2056 5434 4294 4538 5262 3631 554 
1132 868 2967 2069 4633 1948 5245 5799 3660 
3944 6057 3154 696 5459 5578 2529 1675 4052 
1367 2567 6041 2647 4237 1342 5865 3778 2847 
1839 1238 2074 320 588 1387 991 784 716 
2502 2547 109 3964 600 94 382 780 1061 
261 405 201 827 8 277 1804 59 1797 
70 2532 627 1029 596 1500 980 447 2518 
4144 1985 2678 604 33 5647 875 3746 1789 
4196 733 115 5101 2582 3663 2209 5263 4404 
2010 3516 1644 1618 1384 1019 5280 239 4344 
1663 3174 3520 2680 2175 4241 2712 2372 1451 
4132 5602 1624 2716 5078 3272 1356 4804 5153 
3265 5546 1165 1658 3287 1616 2093 3083 1348 