# vtk DataFile Version 4.2
Generated by LIGGGHTS
ASCII
DATASET POLYDATA
POINTS 6000 float
-0.0242589 -0.0378684 0.0184235 -0.0210616 -0.039705 0.0200246 -0.0176004 -0.0413566 0.0185644 
-0.0138576 -0.0427162 0.0179616 -0.0142677 -0.0380011 0.0189292 -0.0074161 -0.0430075 0.0185983 
-0.00696832 -0.0389605 0.0188473 -0.0107341 -0.0403806 0.0189813 -0.000733183 -0.0442129 0.0190897 
0.0019485 -0.0412829 0.0185221 0.000763383 -0.0374633 0.018418 -0.00366148 -0.0413774 0.0191179 
0.0039482 -0.0447844 0.0182561 0.0100026 -0.0402877 0.0186748 0.0059835 -0.0412858 0.0189804 
0.00876414 -0.0441132 0.0195421 0.00632484 -0.037292 0.0193212 0.0126912 -0.0431652 0.0194301 
0.0163962 -0.0417712 0.0188243 0.0200806 -0.0402653 0.0192906 0.0235369 -0.0383214 0.0198104 
-0.0303915 -0.0331996 0.0183834 -0.0331836 -0.0303223 0.0183484 -0.0244138 -0.0331704 0.0185539 
-0.0229245 -0.029408 0.0184797 -0.0274174 -0.0356799 0.019539 -0.0274317 -0.0305273 0.0188163 
-0.0210952 -0.0354163 0.0184943 -0.0172396 -0.0343469 0.0182994 -0.013348 -0.0333828 0.0184995 
-0.0171413 -0.0301141 0.0188142 -0.00474358 -0.0313964 0.0184242 -0.0106314 -0.0363392 0.0182907 
-0.00667609 -0.0349356 0.0182345 -0.010358 -0.0309088 0.0194884 -0.00333162 -0.0371226 0.0188505 
-0.00114099 -0.0337978 0.0178478 0.00379534 -0.0341174 0.0185183 0.00170293 -0.0305407 0.0185793 
0.00780543 -0.0335802 0.0188166 0.0107165 -0.0363266 0.0188216 0.0122705 -0.0326263 0.0187325 
0.00594931 -0.0301339 0.0179493 0.00995043 -0.0294013 0.0181268 0.0152595 -0.0357563 0.0194935 
0.019115 -0.0334305 0.0187398 0.0159181 -0.0314365 0.0201268 0.0222709 -0.03062 0.0188637 
0.0269182 -0.0360383 0.0191304 0.0232654 -0.0343206 0.0200297 0.032806 -0.0307996 0.0177661 
0.0295572 -0.0329348 0.0187528 -0.0387182 -0.0228754 0.0182591 -0.0357623 -0.0272157 0.0177714 
-0.0309379 -0.026991 0.0181937 -0.0347393 -0.0233755 0.0183475 -0.0307307 -0.0229425 0.0181701 
-0.0262428 -0.0267048 0.0188129 -0.0267618 -0.0226121 0.0188636 -0.0224205 -0.0254201 0.0185977 
-0.0206792 -0.0218423 0.0181884 -0.0184148 -0.0253112 0.017956 -0.0141556 -0.024508 0.0181927 
-0.0133845 -0.0283967 0.018761 -0.0166918 -0.0214008 0.0184363 -0.0103129 -0.0256385 0.01854 
-0.00441216 -0.0252939 0.0183508 -0.00734347 -0.0283145 0.0190208 -0.00183523 -0.0286454 0.018852 
0.00153934 -0.026756 0.019884 -0.000255826 -0.0232705 0.0187557 -0.00368574 -0.021301 0.0195128 
0.0108625 -0.025485 0.018512 0.00513207 -0.0262208 0.0181686 0.010037 -0.0216052 0.0180003 
0.0187307 -0.02881 0.0182047 0.0148059 -0.0278943 0.0184191 0.017373 -0.0248249 0.0181495 
0.0138787 -0.0228591 0.0183277 0.0217951 -0.0252192 0.0186344 0.0257323 -0.0244111 0.0188888 
0.0276566 -0.0278647 0.0195645 0.0315122 -0.0269464 0.0184903 0.0296307 -0.0234876 0.0177243 
0.035029 -0.021134 0.0182731 0.0388847 -0.0223371 0.0185865 -0.0405922 -0.0193346 0.0184571 
-0.0421283 -0.0156081 0.0191267 -0.0382947 -0.0164437 0.020025 -0.0372387 -0.012964 0.0183091 
-0.0363223 -0.0196893 0.0187567 -0.0331458 -0.0174057 0.0196416 -0.0296093 -0.0191833 0.0189998 
-0.0310885 -0.0140636 0.0187527 -0.0221357 -0.0181814 0.0188854 -0.0259817 -0.0178287 0.0201686 
-0.0231406 -0.014453 0.0178383 -0.0270863 -0.0140368 0.0192666 -0.0124858 -0.0198887 0.0194471 
-0.0182538 -0.0177481 0.0179786 -0.0142017 -0.016011 0.0185699 -0.00758224 -0.0207013 0.0185276 
-0.00551536 -0.0174539 0.0196267 -0.00934726 -0.0164439 0.0183833 -0.00528128 -0.013661 0.0183718 
-0.0114673 -0.0130296 0.0184079 0.00403404 -0.0205064 0.0187473 -4.70963e-05 -0.0192633 0.0181229 
-0.00178398 -0.015676 0.0184788 0.00316888 -0.0165782 0.0188728 0.00135426 -0.013035 0.0181607 
0.00736629 -0.0180084 0.0178309 0.0117828 -0.0177841 0.0175483 0.0102058 -0.0142639 0.0190636 
0.00624263 -0.0139928 0.0182649 0.0173195 -0.0208427 0.0186344 0.0157299 -0.0172253 0.0180011 
0.018616 -0.014478 0.0186075 0.0141811 -0.0136429 0.0189294 0.027122 -0.020541 0.0187959 
0.0221504 -0.0199384 0.0185687 0.0224287 -0.015859 0.0183215 0.0289888 -0.0134264 0.018873 
0.0336211 -0.0160416 0.0189017 0.0408459 -0.0188161 0.0184638 0.0423416 -0.0151628 0.0191483 
0.0377253 -0.0157708 0.0185999 -0.0432983 -0.0118925 0.018123 -0.0404433 -0.00936498 0.019874 
-0.0442421 -0.00768199 0.0196267 -0.0410196 -0.00545067 0.0186335 -0.0370361 -0.00505501 0.0181974 
-0.0365753 -0.00902078 0.0184318 -0.029079 -0.0105831 0.0188284 -0.0332964 -0.0108843 0.0199294 
-0.0304075 -0.00683586 0.0183096 -0.0253319 -0.00916968 0.0181415 -0.0235051 -0.00559279 0.0179639 
-0.0270468 -0.00532782 0.0199891 -0.0201744 -0.0118112 0.0183185 -0.0156699 -0.0122458 0.0183779 
-0.0129868 -0.00920037 0.0182996 -0.0177082 -0.00916334 0.0200599 -0.019502 -0.00613615 0.0181471 
-0.0154483 -0.0059859 0.0184051 -0.00457127 -0.00911458 0.0182445 -0.00814408 -0.0111164 0.0195997 
-0.00833119 -0.00724479 0.0184743 -0.0116188 -0.00511729 0.0197495 0.000609356 -0.0090246 0.0183837 
-0.00205477 -0.0119394 0.0199947 0.00409537 -0.006531 0.01798 -0.00253386 -0.00556853 0.0186852 
0.00437431 -0.0104654 0.0187077 0.0111667 -0.0104031 0.0182589 0.00769302 -0.00834962 0.0179568 
0.0130516 -0.00693716 0.0189228 0.0206665 -0.0110266 0.0185227 0.0166499 -0.0101277 0.0185093 
0.0204243 -0.00700139 0.018408 0.016741 -0.00535021 0.0186837 0.0240877 -0.00865743 0.0186137 
0.0246698 -0.0125799 0.0191738 0.0280327 -0.00923474 0.0189333 0.02525 -0.00471217 0.0190425 
0.0354467 -0.0123933 0.0188876 0.034687 -0.00597043 0.0177409 0.0319684 -0.0104408 0.0182646 
0.0313263 -0.00657947 0.0198412 0.0372759 -0.00907297 0.0173049 0.0398194 -0.0121977 0.0180779 
0.0412065 -0.00827093 0.0188633 0.0397214 -0.00445351 0.0195341 0.0437812 -0.00485083 0.0191498 
-0.0447966 -0.0038342 0.0181996 -0.0408515 -0.0013692 0.0186647 -0.044482 0.000113209 0.0169685 
-0.0373314 0.000631475 0.0188681 -0.0407045 0.0025352 0.0173911 -0.0330522 -0.0038393 0.0179923 
-0.0320071 0.000219339 0.0180099 -0.0214524 -0.00238431 0.0192618 -0.0253833 -0.00200878 0.0184757 
-0.0278175 0.00122132 0.0187914 -0.0227284 0.00125461 0.0181082 -0.0176114 -0.00259203 0.0180776 
-0.0137231 -0.00187834 0.0187107 -0.0155 0.00164383 0.0180005 -0.006173 -0.00388344 0.0180765 
-0.00974712 -0.00204308 0.0178918 -0.0115297 0.00148829 0.0186612 -0.00518664 0.000956686 0.0178739 
0.00116642 -0.00398658 0.0189606 -0.00178893 -0.00137819 0.0181143 0.00252796 -0.000385434 0.0178591 
-0.000357739 0.00243061 0.0180329 0.00561071 -0.00281084 0.0186496 0.00921195 -0.00454451 0.0180189 
0.0104608 -0.00048335 0.0189711 0.00692942 0.00115206 0.0180153 0.0135202 -0.00298848 0.0182492 
0.0171556 -0.00133889 0.0191708 0.0205533 0.000821725 0.0192401 0.014137 0.00117251 0.0180279 
0.0174931 0.00336939 0.0186169 0.0212718 -0.00309876 0.0187926 0.0280706 -0.00191761 0.0185123 
0.0242999 -0.000461726 0.0186529 0.0276969 0.00224339 0.0185784 0.0239401 0.00331402 0.0200231 
0.0314239 0.00033214 0.0181426 0.0349888 0.00211576 0.0184898 0.0334739 -0.00278589 0.0199084 
0.0372068 -0.00118895 0.0196093 0.0389135 0.00235242 0.0177548 0.0413262 -0.000737126 0.0185537 
0.0445154 0.00278488 0.0190761 -0.0395893 0.0102099 0.0183735 -0.044845 0.00376473 0.018651 
-0.0411979 0.00635416 0.0187032 -0.0439125 0.00971304 0.0192985 -0.0373099 0.00522127 0.0175438 
-0.0332274 0.00531287 0.018411 -0.0290516 0.00556701 0.0181006 -0.0334707 0.0101988 0.017688 
-0.0236355 0.00523937 0.0181065 -0.0274462 0.00935665 0.0176857 -0.0223963 0.0100089 0.0177214 
-0.0196483 0.00390368 0.0177995 -0.0138841 0.00535864 0.0181045 -0.0171823 0.00763631 0.0183822 
-0.0139359 0.0100049 0.0178542 -0.0186674 0.0114182 0.0185272 -0.00803144 0.00372361 0.0186478 
-0.00639615 0.00727934 0.0195905 -0.0104016 0.00691402 0.0193685 -0.00986528 0.0108338 0.0183794 
-0.00492964 0.0110726 0.0191979 -0.00312065 0.00484303 0.0196991 0.000845785 0.0063292 0.0178061 
0.00373179 0.00355418 0.0183793 0.00165127 0.0103483 0.0189329 0.00456329 0.00760921 0.0187859 
0.010808 0.00350798 0.0179769 0.00989773 0.00744682 0.0180575 0.00741439 0.00476367 0.0196992 
0.0131394 0.00981343 0.0183614 0.0144802 0.00604599 0.0185539 0.0207112 0.0096315 0.0197311 
0.0171369 0.0102625 0.0180082 0.0213486 0.00592072 0.0183207 0.0252025 0.00693925 0.0188731 
0.0284812 0.010404 0.0185758 0.0244188 0.0108671 0.0188761 0.0293998 0.00647448 0.0186462 
0.0334996 0.00585611 0.0193426 0.0366129 0.00828118 0.0183931 0.0333019 0.0106233 0.0190127 
0.044256 0.00753427 0.0188542 0.040617 0.00579489 0.0189169 0.0402954 0.00957279 0.0201902 
0.0435021 0.0115073 0.0187012 -0.0375512 0.0181055 0.0179578 -0.042263 0.0133134 0.0175936 
-0.038187 0.0140158 0.0184122 -0.0416394 0.0170545 0.0189603 -0.0334398 0.0175168 0.0172224 
-0.0300609 0.0125495 0.0183681 -0.0294678 0.0165061 0.0177655 -0.0343144 0.0136617 0.0195727 
-0.023536 0.0159437 0.0174812 -0.0255801 0.0126651 0.019178 -0.0272242 0.0198599 0.018015 
-0.0194901 0.0154576 0.0181244 -0.0156033 0.0142924 0.0177514 -0.0138796 0.0179389 0.0185743 
-0.0179878 0.0192415 0.0178733 -0.0115587 0.0146416 0.0172869 -0.0065785 0.0145733 0.0177604 
-0.00915359 0.0180058 0.0178911 -0.0028378 0.0160854 0.0180164 0.00108745 0.0169904 0.0180806 
0.00454589 0.0192297 0.0184439 0.00690616 0.0147384 0.0179309 0.0121087 0.0137002 0.0180028 
0.00851761 0.0185487 0.018046 0.012651 0.0182581 0.0184321 0.0159066 0.015631 0.0180137 
0.0197104 0.01718 0.0187691 0.0165109 0.0196377 0.0185217 0.0269156 0.0140776 0.0189693 
0.0256409 0.0179043 0.0186692 0.0229805 0.0148724 0.0192852 0.0348332 0.014478 0.0192186 
0.0308887 0.0138088 0.0193236 0.0329367 0.0182621 0.0186672 0.0376767 0.017319 0.018947 
0.0396599 0.0134829 0.0189892 0.0416566 0.016946 0.0188121 -0.0388617 0.0221652 0.0177856 
-0.034339 0.0227681 0.0174091 -0.0369313 0.0256878 0.0193016 -0.0311031 0.02066 0.0190869 
-0.0313684 0.0252202 0.0185627 -0.0251415 0.0233203 0.0174561 -0.0221962 0.0201832 0.0171391 
-0.0212688 0.0244303 0.017934 -0.0164121 0.0229191 0.0176601 -0.0122771 0.0216403 0.0181048 
[...]
POINT_DATA 6000
FIELD FieldData 7
id 1 6000 int
5346 5420 6037 143 2008 1333 1152 4719 3212 
3006 350 1123 1837 2020 2623 4682 2746 3984 
374 2569 2261 4249 5684 4649 5298 3455 531 
473 126 3923 4088 2135 774 2339 2329 2626 
178 5586 81 654 1354 4405 257 1584 1013 
18 1539 209 34 302 403 1397 525 4600 
4060 4371 3 2418 5929 5265 5846 435 606 
528 4284 1630 396 738 1914 432 694 917 
1930 3913 1512 241 938 477 1732 582 1631 
609 1885 664 1228 3753 5217 4569 4124 4074 
4362 4087 49 3938 988 3534 3416 5194 3059 
4080 364 5181 248 247 3298 2810 1189 274 
858 440 214 781 1472 1027 964 1372 383 
338 1259 886 1576 341 797 3045 2331 44 
496 4777 2122 1741 3098 1371 720 4202 268 
3453 1619 2867 38 935 165 843 251 660 
329 1440 118 640 1542 392 223 616 987 
282 91 864 1362 245 1046 211 1272 3595 
2555 1855 551 2857 2844 2659 3245 4032 4867 
2290 1961 3432 117 292 537 63 529 870 
468 1141 1 517 1011 789 377 1171 2 
758 98 508 301 217 659 352 565 76 
390 275 1471 1738 1792 381 61 1182 1526 
2915 2182 874 399 2393 2629 2709 1907 5495 
175 427 421 638 1060 1628 30 441 762 
170 906 171 2109 444 1108 590 840 368 
1066 673 153 306 177 890 164 513 867 
2631 983 1339 200 2879 2325 1749 530 1168 
3409 674 2523 2543 3368 2940 2111 60 2737 
3369 2636 1311 2452 1419 647 330 1570 2326 
857 678 1421 1304 1709 1016 2778 1645 538 
1180 1070 851 385 853 194 1490 766 1514 
298 1069 620 2077 1325 3747 4391 4392 3908 
3082 2515 1269 549 1757 1525 2366 3005 236 
1426 1642 1177 1887 1667 1246 1267 100 129 
420 418 1913 456 1320 927 2622 40 2403 
572 1136 2289 3963 3028 15 4591 4381 1627 
1807 4513 2514 1611 1713 1424 887 2266 893 
1528 1673 849 1215 2341 2583 2398 1034 2400 
1689 133 3463 31 258 3396 961 1818 417 
546 1047 1308 92 2258 1024 2462 993 895 
2655 13 903 1851 1791 687 299 2116 3762 
637 1211 2283 819 910 1535 5297 2427 5358 
679 5573 5229 5663 5739 5052 3285 4209 6059 
313 3216 5529 3586 4353 5318 4106 5943 5260 
6053 3313 3702 3421 4570 3032 5759 4954 5728 
4744 5081 4703 4456 3387 5255 5303 5701 5932 
5639 5189 3075 3039 5281 1659 4000 4439 1128 
3335 1650 3714 4128 4388 4006 3825 4970 4853 
3882 1962 3710 6043 5402 3521 4267 3892 4321 
3531 4761 5097 3933 3558 5451 5794 5875 6032 
5424 985 5304 3576 3549 3230 5105 5134 5055 
6029 5299 4762 747 1065 5936 4741 216 3311 
2542 4689 4308 5238 1184 3692 5716 5348 4910 
5848 2524 5935 2358 2148 1891 1088 3443 5014 
4821 5915 3932 4095 3872 1707 2612 1154 1939 
2310 3102 2222 3013 4013 628 1874 2114 2453 
4365 3668 20 4026 4982 5363 4484 4447 4174 
3949 4709 3869 3961 5557 5645 5695 5372 6045 
5536 4746 5500 1145 4892 5224 5290 5718 4553 
4304 5521 3738 2916 1318 1765 4712 708 5705 
4888 5913 629 73 371 512 5261 4638 3688 
876 1853 520 4511 2585 2147 3160 5412 1015 
408 2550 682 1828 1221 1129 426 1607 1600 
1955 1352 1730 1767 1331 2905 576 459 1236 
1698 2843 26 1563 3459 78 2560 3040 2136 
471 3382 4768 3827 5124 5236 4073 4718 4590 
5106 710 5691 4434 5808 4122 4942 4740 281 
3418 4605 5504 4602 2001 4556 5049 5406 706 
2775 3791 314 5043 4598 3492 3639 4747 3397 
35 6012 2740 522 111 3841 5384 4290 614 
732 515 801 909 303 2232 3732 3982 1148 
3379 1802 437 1092 324 2930 2785 296 1403 
1632 401 734 400 1446 1045 737 1832 726 
1550 698 2704 1637 1886 2654 1829 1568 2236 
1466 881 1910 1043 208 267 2961 2897 2768 
2754 575 1305 3681 4837 997 1687 4810 4139 
2517 4159 4883 3585 1546 502 3208 3839 1903 
2586 2479 2019 135 1691 3968 2920 1668 139 
3269 2809 969 918 2677 2850 402 1787 3008 
339 204 3834 652 2856 835 1652 791 2460 
235 848 662 46 1406 415 685 51 670 
411 1861 852 215 4985 291 64 2487 2547 
109 600 727 455 1091 2580 1038 85 156 
284 921 841 308 558 210 238 29 645 
581 548 630 1194 83 379 641 173 1284 
1511 1766 2793 598 2274 1819 580 1711 149 
2999 3851 2960 569 4280 4452 4191 2633 5135 
5090 5084 4909 3988 3321 658 181 4188 4592 
3793 3101 4678 3010 2579 4948 62 1449 452 
2206 316 234 3471 1031 2513 1846 1715 574 
1053 252 2537 552 1307 244 71 622 1456 
2444 773 626 1883 825 810 2213 519 69 
1055 265 221 507 123 365 1191 568 1097 
1135 152 588 1452 188 410 333 337 28 
818 1203 161 555 307 1219 942 725 354 
1232 602 104 1138 785 286 1206 951 47 
1257 1438 1214 198 677 480 438 1075 1516 
124 545 2911 666 384 453 1671 50 207 
1192 2600 1693 2635 1487 4459 742 4227 2220 
3126 1195 4035 2705 3166 1958 2081 5664 2955 
343 2731 160 3017 2950 3530 5726 5583 636 
3466 4138 5781 4258 4667 1376 1074 2094 1093 
1078 48 842 1277 358 88 1445 869 1790 
1401 550 466 297 1044 1706 499 66 608 
145 822 434 1139 713 75 646 498 7 
926 474 1071 812 1684 748 136 1436 184 
1157 393 479 1561 380 1369 130 1560 2439 
724 1216 105 667 532 1271 605 1465 57 
578 359 798 280 1287 1118 490 523 619 
323 2574 142 3909 227 3597 3099 1010 23 
524 1969 325 2776 362 2132 3218 1536 1429 
2530 2511 433 3058 3859 3436 476 1564 373 
1077 3408 1306 1750 446 1317 2324 1762 1970 
2618 1621 5815 970 3552 6006 3967 3545 3364 
4881 3536 611 976 2863 2113 2327 500 2663 
1039 1072 107 2263 1523 2292 2478 691 1115 
2338 2423 1458 353 397 1534 740 45 984 
17 1288 885 1243 1095 1218 1562 865 1491 
166 96 721 1223 366 311 388 701 635 
43 1654 196 1727 591 250 348 559 266 
122 795 634 1103 472 937 681 231 560 
279 1000 688 1747 603 1888 370 756 2142 
862 1005 4606 4571 729 3625 5454 806 5981 
2764 3356 5752 4348 2475 127 3052 5103 2588 
3590 3665 2665 189 3226 828 4573 3615 5463 
5512 4335 1017 413 2549 3186 5989 5150 3327 
2097 2510 916 484 1770 1934 2990 1505 3353 
2883 3110 1944 2022 1300 1462 2104 3201 2105 
2459 1768 162 900 1850 952 1037 1420 963 
1052 2095 2591 1798 656 859 896 2167 2262 
1831 1400 1527 1531 2190 67 1126 1378 1817 
1724 328 319 27 1186 2404 1167 676 663 
2519 2972 305 1398 431 461 1388 3614 4268 
1864 940 4100 3780 4057 809 826 2820 5231 
4176 2151 4926 2788 3647 6025 3491 4345 3848 
5133 5042 2463 3316 4307 5272 4480 4180 5404 
5430 5009 5460 2699 229 3950 1606 1859 2264 
680 583 1648 483 2328 2687 2900 1959 2974 
2385 2071 2383 1614 3600 242 3662 3068 3189 
2987 1816 2501 2642 3023 1805 1923 1932 950 
2345 2120 4184 2852 863 811 1188 2197 1991 
4135 121 1679 132 4690 387 1164 4664 1399 
924 2299 4115 3036 3551 1520 2161 2825 601 
2256 4245 1028 3810 2884 4360 5742 2589 1121 
5184 5419 5417 288 4705 3998 5367 5982 2869 
3566 5896 1225 2302 3093 2249 2895 146 3427 
2944 55 3089 412 3087 2454 2751 2352 2593 
3868 3809 2708 367 3107 540 2235 2103 2117 
2794 478 4158 254 2814 4164 3805 3038 2064 
2962 4264 3919 2799 4995 3517 5180 5743 357 
1906 86 5296 1662 4019 3367 1146 3889 2726 
5202 5073 4582 4752 4373 5732 5768 5828 5302 
4411 5822 6040 3922 5059 4775 6027 4501 4928 
3833 4315 4969 5416 5977 5904 5584 5856 2984 
5852 5545 3326 3616 3587 2878 5827 5156 4986 
4896 4534 5481 5227 5241 1540 4586 4312 2014 
4737 4465 5093 4206 5949 2066 5592 4123 5672 
4782 5514 4086 4562 5804 4683 5368 5314 5706 
3725 4153 4464 4103 4022 3415 3947 2520 3021 
4140 4919 2625 2853 6047 4697 3180 5186 3281 
4875 4939 3690 5127 3731 3539 5775 4433 3447 
5957 1565 6008 4721 2301 4509 5711 3030 5167 
5266 4220 5910 5719 4195 3378 5188 3172 4446 
5948 5531 5696 2434 4151 361 3414 2422 5325 
3375 3454 3120 4339 4042 5563 5322 3324 2536 
3954 4935 5962 3479 5730 5665 4359 5423 1347 
3069 4412 3948 4466 5760 4017 3124 3347 4272 
3223 5515 4303 5539 3464 3308 5178 5409 4541 
5483 4427 5282 3723 3699 6007 4544 5026 5421 
5243 4700 3412 3741 4131 5811 6001 3804 4943 
4099 5959 4187 4179 5909 5163 5426 4956 4604 
4462 2433 5170 4156 5873 3578 5220 3403 5498 
4800 4493 4358 5205 4457 4257 3295 5513 3666 
5223 4211 4101 3828 4292 4355 4518 3807 2602 
4389 2245 3381 2800 3019 4376 3826 2912 3057 
2108 3373 1905 2603 5680 3957 1437 4828 2896 
5700 3682 2420 639 2227 3709 3359 1721 2998 
2130 2732 2666 3260 2251 1098 2013 3022 542 
3730 3449 4400 2216 3941 3475 4554 2992 2787 
3935 3129 3902 3329 2749 4133 3733 6058 3132 
3315 4229 4232 3653 3655 3883 2639 4033 4111 
2303 2394 4469 5833 3227 3361 3141 1775 5736 
1664 2969 4646 4831 4846 4930 3920 4263 894 
4430 3964 3914 5235 4874 5858 4530 1555 4496 
1968 1915 3618 3591 577 4083 190 1633 612 
2438 19 1867 309 1651 1585 2703 2531 1434 
904 1374 1056 1670 1063 2156 2861 3192 3529 
2959 3758 2392 3726 3103 1949 2739 4668 2842 
2650 4205 3071 5040 3855 1901 2875 3677 3953 
1890 3458 3856 1625 3363 978 2684 2451 2380 
2353 114 2192 101 270 3724 2698 2457 1998 
2617 1705 2049 1479 3769 2378 2681 3767 2347 
3861 2811 2112 2772 2485 3670 589 176 3122 
735 2074 1379 2882 2495 802 2627 2848 1899 
2614 1061 973 2752 230 992 772 2323 3465 
382 94 945 80 201 492 827 962 3077 
968 1200 675 936 669 3027 261 8 1253 
1548 627 277 1804 1029 395 2534 981 1322 
1032 463 1797 1404 1114 3215 2334 2217 2436 
2280 3413 4872 2805 2488 2656 3649 2568 4932 
3993 3900 5050 3243 4901 4403 4857 4842 5487 
4517 5991 5560 5524 4616 5422 4789 4714 4876 
4450 5007 4632 4599 4630 4679 4370 4781 2101 
429 767 1990 902 1733 294 1922 960 1926 
2277 315 632 2036 2346 1181 1393 543 700 
1245 2435 3137 2894 979 804 493 3011 1735 
320 1971 2038 584 172 1280 784 561 989 
1231 2502 1238 1290 955 351 276 839 185 
363 1301 911 460 780 1067 1583 1761 1270 
782 445 805 256 219 97 154 405 398 
1036 1205 344 557 613 59 3689 423 213 
1532 1117 1862 672 3106 3757 2521 4377 1821 
618 1638 4154 3755 2426 4650 4252 4711 4020 
2646 2888 4346 2975 2692 3389 4314 3488 5600 
3822 5566 5541 5633 5678 3503 5764 5200 4680 
5577 4815 5503 5300 4885 5162 5465 4536 4531 
850 948 1294 1261 32 2000 2237 1827 1574 
1492 1160 2149 684 1336 1163 1947 570 649 
1193 711 1383 1366 1810 2877 128 1197 755 
897 752 14 179 1235 1090 1626 761 404 
991 1085 829 547 349 1342 759 263 1156 
564 1101 262 112 974 793 779 836 764 
665 879 253 1094 4 689 1169 82 914 
1048 553 134 2528 3206 2551 1414 1896 2411 
959 3510 2100 9 592 2067 2364 4964 2830 
4105 5259 2996 4438 4390 5572 3704 5155 4993 
5270 5810 5108 4482 4470 5218 3420 5787 5226 
5176 4234 5658 5863 4791 5542 5023 4197 5934 
5652 4699 5074 5831 5267 5083 5075 278 1240 
1588 2477 336 1345 2173 657 2410 1776 2428 
1021 2491 3066 2233 3229 957 1172 2062 1641 
1254 56 1334 883 2340 707 2023 1694 1022 
310 1340 1358 671 2060 103 1234 808 206 
451 1480 514 1002 1266 587 715 168 731 
1185 1634 442 347 2241 1510 907 1099 2497 
439 539 1581 1173 2941 1481 2315 3929 1497 
1718 3816 933 2690 4001 2395 2980 1579 1162 
3310 1957 4045 5431 2695 3275 5925 4911 5519 
4652 536 3996 4543 4653 4141 3985 4445 1956 
5631 5285 3980 1390 5616 4990 5892 5381 5254 
3990 5604 3291 4865 4671 4224 5174 4477 5140 
5749 4615 4619 2432 2387 4046 930 2059 1722 
2363 3588 4002 2512 2490 1710 3128 4254 2738 
3184 2389 2015 1872 3020 1782 1450 2099 3641 
1953 1605 2807 2273 2265 3209 2391 1590 1598 
1385 3094 1556 516 1843 1643 2296 2545 1329 
1916 518 2527 1299 1941 2073 2306 2467 21 
2144 1226 3904 2720 5099 4852 5096 3505 4069 
3457 5033 5674 4119 5785 4887 5884 3480 3740 
4460 4620 4012 4300 5731 4173 4442 2367 5999 
3888 4850 5834 3623 6030 3133 4402 4163 5860 
4221 5821 5161 5464 5125 3305 2118 3544 3446 
3153 3393 2691 3915 2356 3210 2748 3366 3246 
3177 3579 3406 3431 2781 2577 3262 2924 2686 
3340 2821 1803 4334 3581 2311 4126 3815 3304 
4584 4453 3398 5575 3779 4190 3675 2868 4583 
2535 4098 4915 2995 521 4651 1538 4394 4198 
3584 4738 5911 5969 5916 5987 3405 4953 4199 
5919 2777 3749 4503 4641 5835 5287 5126 4487 
2499 4256 5158 5491 4978 4908 5640 5312 5931 
5095 6036 4579 3546 3162 2447 3322 3444 3399 
2242 4352 3661 2676 3514 2789 2797 4965 5185 
4933 4748 4293 2729 4635 6063 5819 3719 3843 
4474 3512 5758 4077 4701 3290 3411 4082 3288 
4629 4034 4108 5868 4899 5897 5538 6021 5032 
5615 4617 4983 2193 5621 5374 4639 5757 5331 
5773 3651 3759 5694 3849 5458 1521 6017 3847 
2645 5213 2714 1680 3713 4361 4687 5724 1396 
1020 3568 5685 3306 4809 3974 3054 5556 4984 
745 2784 6014 3325 5662 4297 2939 932 5565 
2522 2268 2386 2886 2638 5005 5385 5944 3986 
5610 2508 1771 5085 3737 4322 4743 5605 4422 
2864 3706 2609 5364 3138 3844 4756 4647 1743 
5823 3840 5972 5359 5045 5361 3814 2890 5626 
5552 4366 4471 2595 5382 6020 2344 4723 4749 
4406 4766 4340 5461 2078 6004 1417 4803 6023 
1392 5659 5448 3785 4805 5328 3801 788 2874 
1199 5841 4565 3846 3991 3997 5489 1774 4461 
1323 5908 5390 6065 5864 1439 5956 4147 5499 
3781 3994 5740 5478 2037 1558 5166 4610 6010 
4357 4440 5232 3773 3981 2782 3671 3819 5927 
4409 1865 5653 3604 4295 5366 4500 4811 5316 
2208 5914 5307 3386 5849 5377 2131 5902 3250 
5839 3603 3783 5767 5903 5673 3009 2988 5564 
3955 4977 4858 2566 3927 3456 5440 3426 4659 
5199 5782 2443 5395 3385 4585 4367 3611 4818 
1965 1847 5128 5206 2747 3342 5278 1982 2711 
3672 2770 1686 3580 3084 4320 3220 3777 4478 
2982 3362 3136 4382 2922 986 4240 5890 3161 
2129 2257 3185 3374 2919 497 5859 3794 5208 
2458 5333 2187 4973 3134 5938 2834 5142 2594 
2693 5795 3346 5048 4364 5712 1806 5441 2827 
4410 5523 3423 5611 1826 5964 5256 4271 5219 
2381 4063 5837 5389 5484 4167 3555 3748 4437 
4847 5723 4890 3770 5345 2694 2997 4527 3372 
3727 5840 6028 3493 4285 1213 3729 2322 416 
3147 3213 1928 2449 1838 2532 102 1909 1629 
2080 1503 1224 820 1708 3012 2202 1249 4448 
1799 1315 2503 2958 4114 2229 3323 3798 2379 
4745 3296 1612 4004 4807 2505 2780 4512 3469 
2968 2846 871 4331 3509 2401 4039 5292 2605 
5455 5960 3283 3975 4143 3451 3944 6057 5853 
4704 5245 5115 5449 3602 2891 4663 4025 4734 
1498 3424 2309 5146 5928 1929 2065 5522 2791 
2596 1483 3708 3016 625 2823 3684 2214 3439 
449 2085 1788 3079 3349 2123 1678 1594 1841 
1198 1151 2055 1781 821 2773 847 1897 860 
2102 1292 70 814 125 169 783 187 775 
1592 596 447 2518 980 2304 1854 1289 1499 
2653 5110 2406 5006 4094 2753 4920 4239 1754 
4913 3452 3317 4685 2615 4306 3518 3570 3391 
3064 4398 4458 5965 4692 5380 3328 4375 4851 
4170 4244 4614 4289 3962 5806 1204 1360 998 
1647 2134 2069 1801 2644 2598 2967 5450 2293 
1451 3154 1695 1367 2721 4052 2567 4237 5153 
3945 1869 2070 1004 1748 1676 1870 300 1931 
1839 1873 1086 1994 786 425 1283 929 448 
1381 148 2648 304 464 650 1274 1338 1166 
1058 607 138 653 469 1057 1321 346 925 
949 1894 1073 391 2544 1332 1107 271 2354 
2238 541 3163 2048 1159 4065 1464 2923 4070 
1500 2849 5476 2957 3232 5537 3476 4204 4072 
4816 5121 2908 3903 4824 4269 5952 4622 4843 
4944 5027 4329 5242 5703 5251 4702 5878 5488 
4725 5022 2722 5143 3870 5551 4497 5729 5722 
5004 5011 971 2538 42 1924 2336 2556 2971 
868 3520 3630 2200 2658 965 2127 481 2700 
2647 3100 3195 2716 2578 5533 2248 2003 1911 
2093 1409 1786 1927 1134 749 716 1252 2028 
778 1244 1387 25 898 1430 1068 1276 873 
714 1131 182 919 803 269 327 982 465 
845 534 419 53 340 2619 633 2862 3117 
2946 295 2396 3563 2424 2526 2455 2572 2546 
2978 2893 4916 3951 3686 4162 4117 2140 2713 
3307 4637 4715 5518 4783 3046 3440 6062 3535 
3946 5587 232 4068 4845 4763 5582 5850 4934 
3015 3940 5323 5330 5649 4868 4870 4675 4730 
2938 4557 4694 5403 3906 5683 5501 3607 1739 
1482 3085 1809 2175 2836 1624 2297 1716 1746 
2018 3231 3251 2228 4125 4374 3473 3272 3309 
1616 2050 1258 1945 1559 1161 2335 1273 3119 
1876 2181 486 1551 833 1348 369 1444 1620 
1734 972 450 771 1175 1412 915 1158 975 
815 144 535 1427 697 283 1530 110 1700 
1260 2441 1904 501 3070 1719 4181 2210 3002 
3430 1964 3256 2854 4113 2592 4043 3339 6055 
5954 5172 5047 4772 4435 2845 4301 5427 4506 
5974 5092 5337 2029 3640 5164 6056 4601 4194 
5284 4972 5257 4247 6061 264 4522 3096 5214 
5817 4075 5100 5574 5183 5544 4431 4997 4324 
3664 5547 2469 2611 3048 3939 4940 2881 4005 
2620 3745 4053 3838 2870 3617 4559 2744 3685 
2606 3065 4528 2977 3257 2928 2983 651 567 
800 1723 769 1012 1124 1395 1422 892 1653 
2032 430 2373 655 1432 4698 273 593 2766 
2985 2218 4549 2826 5721 2798 4693 2294 2828 
4200 3646 3190 5644 2634 4520 3705 4724 2947 
4230 2660 5576 4673 599 4157 5479 4275 5123 
4661 5798 3582 5443 4175 5698 5922 5625 4959 
5585 2507 5275 3063 4552 3711 4757 5627 4735 
5438 2942 5239 5334 4654 5054 5622 2804 2223 
4564 5825 4112 3542 3659 4507 3583 4155 3837 
3434 3410 4608 3599 3511 2052 2965 3540 3041 
4152 3501 3173 3165 3806 4655 6002 482 5066 
3334 3400 5496 4169 4351 3895 3678 3357 3489 
4798 3442 5173 4508 4485 3502 5321 5558 5094 
5195 2723 3164 5485 4349 2907 5812 3266 4806 
4203 3979 1763 4861 3925 3918 2976 5832 3952 
5921 5225 4266 2402 5661 3865 1504 5407 4736 
4941 6051 4332 4207 4812 4341 3279 4999 4603 
3775 2835 5780 3433 3594 5549 4270 3897 4277 
4526 4317 5973 3898 2760 5881 2902 6046 3249 
5855 5082 5986 2683 2889 5342 2727 3460 5139 
5550 5234 3850 3333 4489 4813 5473 5252 6000 
5392 4596 2880 5193 3562 3656 5747 3643 5079 
5994 4054 4414 4011 5401 4423 1773 3523 6013 
5051 5347 1110 5063 3559 5801 3633 5792 4134 
4578 3338 2195 3736 2970 5350 5013 3820 5528 
4829 3345 6009 4031 5668 1363 2413 5452 2533 
4624 3152 5710 4127 6016 4326 1777 3795 1030 
2226 5561 2199 2300 5203 5526 3553 4581 2416 
4502 4238 4399 5486 4988 3507 2628 5279 5497 
5111 2573 3300 5436 4826 4776 4223 3575 3966 
249 2313 757 4869 5527 2702 1484 1183 4116 
3319 5607 5410 1977 3390 3112 5244 3803 5708 
5016 5971 5215 5442 3018 2178 1007 5209 4726 
4880 1062 2581 5222 4451 2715 1256 6064 2316 
131 6048 1601 1431 2043 3703 4424 5192 470 
5024 4136 4674 3350 113 2728 5813 4627 4347 
3081 3873 5588 2159 4567 4363 5373 1293 4309 
796 2091 312 1365 2158 4148 1547 5116 2271 
3242 4968 3286 5237 5432 2472 2866 1882 2601 
5699 5851 5490 5399 3072 5356 3320 2307 3691 
2651 953 1808 3194 4836 5258 4420 1042 5388 
5889 3417 5682 4499 4563 2803 4378 2489 3987 
5979 1992 4243 2872 4302 4904 3217 3270 1655 
3219 1646 4165 5707 2506 2054 2024 2840 58 
1871 3478 2480 1737 2107 2688 2337 4350 2355 
2284 4212 3297 2860 2822 3388 5147 3494 485 
3481 4849 4722 4276 994 2719 5516 3258 6039 
5676 5737 5727 5029 4048 2286 3930 3354 1778 
1785 2270 3370 5107 4463 5689 2831 5046 1649 
5058 5799 5579 3878 5036 3621 3091 5034 218 
2783 3907 3355 1222 5857 3116 5039 4383 5397 
2871 741 4665 3003 2409 4029 3508 3772 509 
2079 3506 4989 4540 3577 3867 4003 3033 861 
1995 2494 1688 1639 1720 2682 733 2953 1100 
39 1298 2587 3852 1813 777 939 1751 3035 
2365 2910 2431 1636 3238 4055 5393 4298 5968 
4078 72 4893 4727 4628 3626 5315 4436 5182 
4330 3235 3912 3088 2096 4516 2815 1113 2046 
5273 3422 2712 4265 1370 1725 3211 5078 5609 
2590 3983 4758 2225 5619 5898 2917 3148 5894 
5169 3673 2925 2119 2859 5216 3337 1111 3634 
1842 1726 1979 1811 3351 3073 4918 3663 977 
1408 2892 1208 1453 2291 11 1281 2741 2125 
458 712 212 744 141 1425 999 617 33 
1170 1405 1443 699 787 290 2163 875 2063 
1314 2219 2817 2964 24 1669 1351 743 5802 
2343 3467 4515 3282 3263 4597 4081 3824 5070 
4342 1275 1079 4049 6024 6050 3477 4931 5641 
5769 4338 4780 4974 5788 4589 5017 5756 4633 
5030 4860 3159 1948 5865 3527 2575 5687 4110 
3302 4963 4222 5715 5820 1917 3358 4980 6041 
3318 2937 2529 2468 2652 1447 3778 6 838 
2557 2417 1996 2039 1699 1368 648 2086 1963 
1001 1319 1435 2075 1143 1834 1772 2247 1824 
1003 526 1380 1714 882 202 1517 443 1155 
332 116 908 489 1286 2027 2153 3239 1050 
1119 99 585 3031 2440 3644 1985 4343 4144 
4895 220 3171 5866 5753 4538 140 2926 1132 
5362 4923 2333 5830 2935 5651 3541 5612 4356 
2397 3956 2007 2165 6018 4225 4588 4413 2829 
5435 5002 3499 4856 4241 5824 2838 3831 3104 
5413 3348 5750 3800 2474 1849 1840 2680 1881 
4250 5677 2994 5876 2667 2372 5803 2171 2662 
2847 1586 2801 2745 1104 2106 4132 586 3139 
167 2272 1476 193 831 1375 1337 891 65 
610 2083 944 830 2056 1665 37 695 326 
147 1359 488 1316 995 191 799 106 1054 
1229 2221 2707 3376 889 2500 1615 233 2725 
1844 1508 3817 3976 4882 2279 2952 2374 2679 
5613 4404 1327 1026 5807 2841 2525 3700 2637 
1987 3589 5933 4494 2180 4193 5344 3429 2876 
3871 2133 4797 5112 5439 5836 3289 2405 6038 
5089 4833 4542 5457 5467 4488 3893 1800 3462 
4992 3407 4864 2145 2761 3265 4498 3428 5602 
3812 2906 1356 1658 692 1239 4804 3083 5603 
505 1051 1703 1023 1898 1578 1357 163 491 
3095 376 1389 360 2484 877 1835 770 792 
1868 1933 259 2177 4395 2053 823 3899 2359 
4387 3526 1682 2904 5988 3916 5360 4008 5339 