# vtk DataFile Version 4.2
Generated by LIGGGHTS
ASCII
DATASET POLYDATA
POINTS 6000 float
-0.0211547 -0.0396649 0.00934562 -0.0246091 -0.0372907 0.00586018 -0.0194569 -0.0405392 0.00516412 
-0.0164511 -0.0377054 0.00484306 -0.0129715 -0.0387557 0.00714987 -0.016698 -0.0417568 0.00806208 
-0.0127138 -0.0428869 0.00760452 -0.00970984 -0.0408243 0.00556194 -0.00650389 -0.0384303 0.00405297 
-0.00484227 -0.044234 0.00778067 -0.00881349 -0.0440877 0.00842212 -0.00718939 -0.0388025 0.00811099 
-0.00287674 -0.0403629 0.00429063 -0.00197623 -0.0446919 0.0044705 0.000950111 -0.0422341 0.00593085 
0.00380243 -0.0447173 0.00728438 -0.000918726 -0.0393039 0.00854188 0.000207997 -0.0449998 0.00944647 
0.00823617 -0.0438288 0.00798232 0.0106489 -0.0401686 0.0068185 0.00720663 -0.0381607 0.00783989 
0.00443012 -0.0409482 0.00881333 0.0120875 -0.0432765 0.00905256 0.0144782 -0.0410877 0.0058979 
0.0180881 -0.0410535 0.00793757 0.0133823 -0.0376899 0.00880926 0.0182299 -0.0370968 0.00654862 
0.0216052 -0.0394461 0.00687822 -0.0313919 -0.0321691 0.00588412 -0.0335108 -0.0290878 0.00443877 
-0.0228266 -0.0324611 0.00440884 -0.028352 -0.0348636 0.0063296 -0.0279446 -0.031243 0.00830518 
-0.0206369 -0.036826 0.00618296 -0.0252554 -0.0344468 0.00886031 -0.0215998 -0.0301252 0.00761298 
-0.0176724 -0.0303129 0.005481 -0.0153679 -0.0348943 0.00761331 -0.014648 -0.0305224 0.00835992 
-0.0192375 -0.0343047 0.00910797 -0.0087095 -0.035405 0.00631903 -0.0121375 -0.0329752 0.00612058 
-0.00599756 -0.0316019 0.00625165 -0.00447437 -0.0353628 0.00679384 -0.00927622 -0.0305074 0.00827723 
-0.00418983 -0.0290077 0.00905935 0.00172003 -0.0296503 0.00466058 -0.00170165 -0.0310671 0.00631189 
-0.000503834 -0.036024 0.0062355 0.00101228 -0.0330894 0.00887695 0.0094016 -0.036795 0.00413576 
0.00448879 -0.0352073 0.00837637 0.00887721 -0.0334232 0.00712392 0.0111497 -0.0301206 0.00665536 
0.00443136 -0.0314382 0.00698637 0.0139005 -0.0355581 0.0052412 0.0145198 -0.0314909 0.00471764 
0.018501 -0.0307029 0.00474289 0.0184112 -0.0332571 0.00784482 0.0169197 -0.029194 0.00886471 
0.0260665 -0.0332156 0.00634394 0.0220172 -0.0317132 0.00639286 0.021832 -0.0354589 0.00797452 
0.025576 -0.0369836 0.00778929 0.0251671 -0.0294477 0.00744942 0.0302091 -0.0330567 0.00413462 
0.0303909 -0.0290485 0.00499793 0.0288828 -0.0306996 0.00862052 0.033973 -0.029462 0.00739971 
-0.0392985 -0.0215965 0.00550151 -0.0366492 -0.0259081 0.00558449 -0.0305443 -0.0282678 0.00726286 
-0.0333898 -0.0252054 0.00807267 -0.0314284 -0.0221079 0.00605554 -0.0355615 -0.0219878 0.00697291 
-0.0268622 -0.028767 0.00516857 -0.0229526 -0.0269391 0.00555204 -0.0283027 -0.0245232 0.0067462 
-0.0238416 -0.0228006 0.00630958 -0.0246014 -0.0257307 0.00901272 -0.0198262 -0.0244893 0.00672537 
-0.0163168 -0.0267459 0.00777321 -0.0123242 -0.0271819 0.00820949 -0.0129809 -0.0231574 0.00697701 
-0.00772767 -0.0282832 0.00408794 -0.00937991 -0.0248834 0.00621997 -0.00535107 -0.0259705 0.00668498 
-0.00741666 -0.0214465 0.00692686 -0.00164213 -0.027038 0.00540441 0.00218759 -0.0255673 0.00435576 
0.00206447 -0.0228908 0.00831146 -0.00324716 -0.0226232 0.00765176 0.0026868 -0.0278528 0.00817844 
0.00990062 -0.0264884 0.00466047 0.00556397 -0.0277758 0.00532465 0.00581787 -0.0243337 0.00791754 
0.00991579 -0.0233402 0.00726661 0.0139004 -0.0275202 0.00425289 0.0178011 -0.0261938 0.00443496 
0.0179229 -0.0227309 0.00662746 0.0140958 -0.024995 0.00786075 0.0133017 -0.02105 0.00644295 
0.0261801 -0.0217054 0.0048492 0.0287186 -0.0254094 0.00546108 0.0209747 -0.027826 0.00636903 
0.0246282 -0.0256602 0.00604233 0.0219901 -0.0230822 0.00759399 0.0273276 -0.0265505 0.00918024 
0.0269725 -0.0225446 0.00910562 0.0345237 -0.0222429 0.00533093 0.0327157 -0.0257905 0.00591935 
0.030919 -0.022402 0.0072934 0.0365228 -0.0262201 0.00746907 0.0384707 -0.022855 0.00501069 
0.038502 -0.0230705 0.00902875 -0.0416747 -0.0166697 0.00554801 -0.0378381 -0.0178211 0.00592976 
-0.0338621 -0.0182305 0.00535448 -0.0304504 -0.0185944 0.00778879 -0.0320519 -0.0148636 0.00689926 
-0.0359081 -0.0148947 0.0079922 -0.0278397 -0.0156797 0.00680464 -0.0265434 -0.0196615 0.0072499 
-0.0238036 -0.0164706 0.00703589 -0.0230407 -0.0197165 0.00933865 -0.0213853 -0.0128808 0.00745059 
-0.0195278 -0.016349 0.00586137 -0.0155485 -0.0200142 0.0068944 -0.0137042 -0.016451 0.00727758 
-0.0198257 -0.0201774 0.00699583 -0.0167661 -0.0131283 0.00626967 -0.0107964 -0.0143032 0.00547241 
-0.00892366 -0.0176796 0.00653397 -0.00577699 -0.0152085 0.00633654 -0.00441628 -0.0187982 0.00760968 
-0.0107188 -0.0202694 0.00910245 -0.00835533 -0.013382 0.00903473 0.00322988 -0.0183228 0.0067465 
-0.00172311 -0.0158812 0.00655424 -0.000479383 -0.0197414 0.00787027 0.00236041 -0.0143863 0.00637038 
0.00876315 -0.0196998 0.00571212 0.0120058 -0.0170974 0.00545828 0.0111026 -0.0131261 0.005564 
0.00640626 -0.0157486 0.00671055 0.00575346 -0.0203619 0.00919769 0.0165572 -0.0190152 0.00530125 
0.0192267 -0.0159461 0.00507508 0.0153648 -0.0149013 0.00530342 0.0201798 -0.0193457 0.00700999 
0.0178543 -0.0131698 0.0084852 0.0253818 -0.0128298 0.00596367 0.0228124 -0.0160648 0.00737129 
0.0241945 -0.0197604 0.00821731 0.0284242 -0.0192387 0.00722163 0.0285223 -0.0152783 0.00636629 
0.0347913 -0.0159341 0.00639731 0.0334081 -0.0193806 0.00812768 0.0318995 -0.0131094 0.00662316 
0.0370975 -0.0191307 0.00567412 0.0410406 -0.0184231 0.00567842 0.0386265 -0.0152422 0.00541002 
0.0425735 -0.0143784 0.00534249 0.0373047 -0.0168065 0.00942488 0.0395963 -0.0135199 0.00933504 
-0.0406274 -0.00620092 0.00604588 -0.0389384 -0.0106803 0.00670707 -0.0426183 -0.0124951 0.00659601 
-0.0439841 -0.00826653 0.00730651 -0.0365495 -0.00689815 0.00699281 -0.0343989 -0.0113461 0.00669985 
-0.0304602 -0.0113237 0.00792108 -0.0329928 -0.00809109 0.00877812 -0.0276185 -0.00897654 0.00605556 
-0.0254401 -0.0124496 0.00738229 -0.0237407 -0.00778496 0.00699538 -0.0272301 -0.00458818 0.00640327 
-0.0198809 -0.00922292 0.00679644 -0.0150907 -0.00855748 0.00942001 -0.0177163 -0.00583812 0.00707417 
-0.0136167 -0.0056285 0.00691518 -0.00931297 -0.0105345 0.00521316 -0.00583544 -0.00711978 0.00557549 
-0.00505008 -0.0111104 0.00604906 -0.00972489 -0.00725231 0.00755007 -0.0116449 -0.0105384 0.00879881 
0.00188951 -0.0103646 0.00540578 -0.00170511 -0.00833404 0.00573648 -0.00255795 -0.00448858 0.00469323 
-0.00121813 -0.0119381 0.00743747 0.000919571 -0.00533087 0.00718532 0.00430964 -0.00706492 0.00551421 
0.0122088 -0.00822967 0.00458166 0.00648721 -0.0116446 0.00679882 0.00841224 -0.00758629 0.006048 
0.0101443 -0.0103851 0.00853596 0.0118942 -0.00614706 0.0084447 0.0064014 -0.00472168 0.00847682 
0.01955 -0.00889736 0.00565433 0.0158922 -0.00723394 0.00584567 0.019182 -0.00498775 0.00480036 
0.0147292 -0.0109886 0.0065892 0.017336 -0.00919167 0.00927792 0.0201017 -0.00597983 0.00891358 
0.021428 -0.0124772 0.00542439 0.0261449 -0.00865541 0.00518961 0.0238401 -0.00762792 0.00844282 
0.0270024 -0.00528984 0.0073072 0.0294262 -0.010693 0.00412472 0.0335335 -0.00953824 0.0075233 
0.029944 -0.00787737 0.00817222 0.0364345 -0.0122139 0.00684764 0.0341776 -0.00576939 0.00610453 
0.0404584 -0.0108468 0.00591417 0.044053 -0.00903904 0.00589423 0.0380523 -0.00443879 0.00538323 
0.0373469 -0.00830887 0.00642094 0.0411555 -0.00674563 0.00744293 0.0433548 -0.0120534 0.00856043 
0.0447009 -0.00492281 0.00782092 -0.044622 -0.00415271 0.00588393 -0.041784 -0.00123261 0.00645044 
-0.0448552 0.00225902 0.00633578 -0.0373565 0.0010123 0.00783166 -0.0383508 -0.0035532 0.00875229 
-0.0449118 -0.00136701 0.0089512 -0.0311258 -0.00350808 0.00640313 -0.0351111 -0.00270122 0.00655724 
-0.032706 0.000766561 0.00739663 -0.0214023 -0.00422861 0.00766601 -0.0246121 0.000707596 0.00679353 
-0.0286378 -0.000742438 0.00789474 -0.0249363 -0.00268744 0.00907917 -0.0217548 0.0034631 0.00762792 
-0.0187741 0.00163277 0.0056726 -0.0140812 -0.00140559 0.00700899 -0.0177223 -0.00207283 0.00860588 
-0.0141721 0.00289982 0.00652038 -0.00586899 -0.00190687 0.00607436 -0.00958931 -0.00315783 0.00745279 
-0.00996297 0.000641677 0.00605407 -0.00604742 0.00196465 0.00707937 0.00112785 -0.00275713 0.0039721 
-0.00206089 0.00146612 0.00549518 0.00280167 0.000960075 0.00488926 -0.00134313 -0.00195535 0.0075718 
0.00325116 -0.00208063 0.00857437 0.000506482 0.00313116 0.00811351 0.00932256 -0.00370681 0.00497815 
0.00613386 -0.00126118 0.00591202 0.0106619 6.70225e-05 0.00495352 0.00770962 0.00299956 0.00572313 
0.0108669 -0.00177823 0.00853546 0.014038 -0.00354475 0.00520265 0.0170497 0.00259728 0.00553664 
0.0130544 0.00350334 0.00570674 0.018016 -0.00183502 0.00702715 0.0144053 -4.81653e-05 0.007112 
0.0205775 0.00128409 0.00726261 0.02321 -0.00427641 0.00590025 0.0234844 -0.000438471 0.0046864 
0.0270418 -0.00130299 0.00638269 0.0252373 0.00296918 0.00597218 0.0348759 -0.00181261 0.0054672 
0.030582 -0.00371789 0.00624723 0.0307878 0.000259202 0.0071798 0.0363884 0.00185762 0.0060238 
0.0342941 0.000128372 0.00915185 0.0418917 -0.000939866 0.00666288 0.0381148 -0.00134005 0.00796787 
0.0448371 0.00181426 0.0068098 0.0449146 -0.00123864 0.00938655 0.0411065 0.00321216 0.00615678 
-0.0377483 0.00529539 0.00590799 -0.0374076 0.0108063 0.00505482 -0.0405937 0.00832499 0.006245 
-0.0443503 0.00750472 0.00745251 -0.0415297 0.0044652 0.00722059 -0.0429096 0.0119763 0.00739646 
-0.0313716 0.00428121 0.00582585 -0.0346302 0.00798179 0.00584739 -0.0307021 0.00884462 0.00563838 
-0.0333999 0.0118182 0.00547071 -0.0346985 0.004632 0.00842259 -0.0299878 0.00722225 0.00930863 
-0.0267188 0.00754596 0.0055241 -0.022403 0.00836501 0.00693942 -0.0276352 0.00400673 0.00732834 
-0.0253517 0.0116784 0.00620385 -0.0150895 0.00701 0.00629789 -0.0184402 0.00597773 0.00836879 
-0.0152559 0.0113027 0.00618705 -0.0191822 0.0112985 0.00779252 -0.00643043 0.00606038 0.00556316 
-0.0100796 0.00795435 0.00477391 -0.00680284 0.0105199 0.00455836 -0.00924999 0.00429269 0.00817569 
[...]
POINT_DATA 6000
FIELD FieldData 7
id 1 6000 int
810 179 979 517 1044 1053 552 632 244 
316 902 804 71 574 1 452 69 1546 
139 123 51 62 135 600 251 660 291 
870 1060 1093 415 684 265 441 1139 145 
307 498 276 1055 784 507 1301 588 989 
1542 28 365 519 670 727 568 176 80 
329 230 339 522 215 909 3 435 118 
471 274 1318 917 257 606 1269 1078 547 
822 499 1336 561 1097 648 812 1290 112 
393 1001 185 839 444 377 949 337 1061 
138 780 46 109 235 445 214 85 402 
455 677 282 614 350 111 73 440 629 
781 324 178 396 18 34 576 421 427 
646 991 1452 278 1244 749 1156 898 803 
1067 184 526 673 1101 1171 1861 182 410 
1219 750 725 995 782 285 841 256 951 
161 821 616 277 987 548 783 1404 858 
29 91 558 308 216 964 432 1732 401 
886 210 1930 1072 56 638 1022 1561 713 
221 808 759 380 1131 1369 327 1665 564 
764 1684 555 830 1206 974 758 633 760 
469 317 1208 1036 818 222 346 141 1453 
1232 1321 1205 217 699 213 301 70 405 
76 8 379 1257 383 580 1372 1015 545 
211 682 403 209 474 128 434 262 103 
957 349 1234 1216 1266 1002 366 1560 836 
815 436 1357 163 65 779 1634 975 98 
368 724 475 777 269 188 1143 942 41 
1233 1286 354 422 290 908 653 565 785 
805 523 384 627 1214 341 198 400 19 
496 997 338 310 865 168 45 171 1304 
283 153 715 538 388 1175 591 326 196 
1066 451 1573 465 667 122 605 532 376 
610 1040 508 115 37 359 322 856 457 
202 873 409 4 16 1459 104 613 617 
205 882 390 82 381 180 846 659 344 
874 423 59 47 154 665 480 149 742 
551 124 206 353 1426 483 887 1287 166 
250 2167 851 1480 311 937 306 1643 859 
705 587 578 879 280 832 487 253 177 
689 130 1165 1310 714 286 391 419 372 
488 1054 1094 1169 340 553 489 880 585 
53 275 1117 541 1075 164 453 1029 1107 
343 797 61 433 916 92 795 1177 420 
993 1648 680 1180 1070 13 701 456 1398 
430 1654 266 27 347 559 1427 763 1185 
619 634 490 144 915 21 513 1465 1048 
695 534 798 845 106 914 890 1271 1359 
867 501 352 834 134 147 1237 1339 1118 
688 1536 1159 1332 50 323 295 557 666 
9 129 100 40 927 133 637 1320 299 
132 863 603 418 348 357 67 1378 663 
370 288 319 231 907 601 127 560 439 
1103 983 620 1000 1747 200 279 1010 142 
57 298 681 1581 1969 1306 325 674 1621 
959 175 1390 1762 1564 258 676 121 1164 
194 367 387 461 895 86 1211 417 1146 
254 756 2256 809 31 862 819 828 572 
826 373 524 60 160 1077 1069 227 1047 
15 592 970 1195 446 1017 48 978 172 
493 30 842 767 2346 755 825 252 320 
2537 1625 63 2101 2213 1706 626 117 468 
292 1379 1890 735 589 537 38 270 835 
791 1031 1903 1741 204 281 720 248 662 
1619 710 35 502 49 466 1074 1197 773 
570 429 584 2109 550 294 1776 297 425 
2070 14 1191 148 1971 1011 789 1203 351 
955 1141 304 1238 1699 1231 622 1166 460 
852 382 772 1406 152 284 411 685 363 
640 201 2460 223 732 708 165 64 156 
1148 801 894 988 296 364 20 706 935 
1123 371 437 314 985 531 774 1354 528 
1765 747 1449 869 1419 1294 170 7 1456 
926 543 752 1492 960 711 1445 1810 762 
716 1135 761 479 897 1163 1366 2272 1086 
1157 1436 778 300 448 1368 1375 167 753 
333 911 1626 1283 1583 786 1381 2298 1151 
848 116 1270 464 1408 1003 219 1274 1435 
398 515 2 1091 11 1138 1440 962 977 
712 458 247 392 83 669 492 581 1038 
827 1253 1092 630 1189 1512 1213 577 1802 
1968 512 654 737 81 1184 313 1891 477 
2148 1129 302 426 32 1071 75 1311 691 
678 707 976 1401 608 404 358 1090 649 
1172 944 1523 1276 1562 885 891 1252 793 
1342 2083 595 1476 2259 757 982 919 2056 
650 624 1058 193 25 533 192 1549 607 
2439 1824 1823 1974 1981 566 1355 1714 1057 
931 831 2058 1319 1153 228 454 218 1155 
212 847 925 1281 125 1425 602 1997 187 
675 169 999 642 723 150 733 734 1403 
58 238 1548 1585 309 1629 698 1550 1434 
2174 261 864 520 1065 1466 1362 1600 1670 
1730 609 374 1584 1397 1607 1874 1221 1698 
1039 397 529 1421 330 2326 883 1358 984 
2883 1085 1412 1023 263 369 972 1734 1258 
1273 1348 623 1430 450 84 505 1161 1335 
486 535 95 693 378 495 1337 1468 1384 
151 807 1380 406 1485 813 1080 1190 1575 
345 237 1278 872 119 240 249 1247 2087 
1467 2110 686 1760 744 1683 1035 1674 1591 
1020 97 272 1405 428 255 1242 1212 33 
1032 1230 1443 2025 2051 787 2532 102 1353 
645 582 981 1651 1027 1322 1056 1224 1200 
612 2236 1592 459 1228 1284 1886 78 726 
408 241 26 1631 1832 1491 136 829 647 
906 17 1628 1052 1713 1458 1727 1570 1016 
105 1108 721 671 840 1590 1444 1551 731 
769 1822 503 1116 1147 1364 36 1494 225 
1125 1728 356 10 571 1529 1690 739 736 
1264 556 877 1087 1248 1295 745 1350 355 
1920 1617 794 1780 1533 155 1493 1330 5 
1084 260 2034 1597 1210 866 1993 407 293 
89 224 939 573 1771 1312 1297 2313 1275 
1217 1804 775 875 703 158 2219 2643 1081 
947 447 395 641 173 2343 39 1374 1114 
881 1766 463 1045 598 1046 1236 664 938 
1612 1637 1687 1243 590 236 1424 635 484 
952 1667 748 1709 2264 1340 1124 43 1598 
96 1578 1223 1051 1122 1524 567 1158 1250 
87 1422 1942 1496 1620 1795 2002 137 722 
1484 108 1064 1391 197 90 643 1582 1752 
1150 1227 335 239 1006 140 79 1796 1207 
790 243 74 1112 494 527 913 321 1613 
12 232 289 389 510 334 1469 186 554 
746 77 271 99 1059 24 443 1050 1314 
1813 2063 1187 1854 936 814 1671 1182 1797 
1073 1100 245 980 2704 2280 1471 208 44 
1499 1576 1272 181 207 1901 1511 1632 740 
162 1095 1462 1525 900 1614 1605 857 1645 
2328 1850 1037 1603 442 472 1400 651 800 
2032 1723 1769 892 462 1595 318 1898 1541 
1729 1577 967 424 1812 2035 386 68 1291 
1130 1814 1599 1229 668 1007 901 199 854 
621 1220 1201 1199 120 946 544 1344 1407 
157 2016 414 52 776 1033 1265 1303 1083 
954 1951 332 1438 928 1455 1327 1464 596 
2132 1192 618 1862 1532 2217 2911 438 362 
1043 2100 575 672 658 2523 1910 1711 1738 
849 893 55 146 1218 656 1215 1246 1528 
1385 1225 583 896 1864 2296 2262 1267 514 
1527 1642 1798 273 516 246 1329 1432 2190 
1831 697 159 817 360 631 506 655 593 
1952 1389 922 923 1554 562 1519 1530 1014 
615 342 1478 888 1852 1328 1719 1316 1149 
1567 259 823 799 1868 2441 1429 1792 191 
1119 889 1516 233 2551 2354 2879 2048 1414 
189 23 536 2631 1907 2475 1896 1693 1168 
2182 687 1024 811 1887 1534 305 540 385 
1188 2454 2266 1724 2383 1913 1817 328 518 
1167 950 478 1126 903 1034 2404 2197 924 
1099 1835 2120 1941 1653 2306 1510 539 1888 
1700 110 1388 1538 2484 2073 3095 933 1481 
1106 1028 1260 2527 1497 1718 1783 1226 2528 
1173 2411 1005 2515 2619 2142 2497 530 1162 
611 1957 1970 2862 2574 476 2737 636 399 
2940 2530 412 2116 2751 1490 1679 1906 431 
1791 3107 1851 940 1916 3762 2161 2764 2103 
2519 2794 910 1186 729 1136 1121 1520 1514 
2064 766 1399 546 853 1299 961 1807 1535 
1308 1627 1818 2289 2151 2077 229 1749 1325 
2283 2403 2695 413 806 1579 1733 42 998 
1360 114 1990 1204 1801 2605 66 1371 1715 
1376 2444 1393 2677 2617 101 2206 1846 2049 
1307 542 802 2867 3471 2347 2513 2380 2378 
2586 3492 2681 1652 1691 1775 918 2479 2394 
3397 3269 2487 843 652 268 973 1883 525 
3534 1668 3298 738 1152 1922 1261 2149 1647 
315 88 1181 948 1827 700 1926 1004 1947 
971 2277 1676 1193 929 1245 1748 1929 1479 
2435 1735 1899 1280 2214 1678 2894 1483 3105 
625 449 2074 2648 2502 2123 2247 2085 2773 
1841 992 945 1781 2547 968 2055 2001 2752 
2449 509 303 694 2008 94 2232 2785 1145 
143 1853 2542 473 679 2329 1630 2626 1962 
2585 126 2261 1088 1333 1345 1588 1809 500 
1383 336 2327 850 1790 2094 2000 657 2478 
1387 2003 1235 965 1409 2038 1068 2036 1447 
2248 1586 1489 6 1936 1994 1839 1133 2309 
1931 1772 2196 1761 2291 2086 2407 1963 1834 
1811 1660 2176 1979 696 1894 2948 2540 1580 
1940 1826 1842 2010 2194 1992 1338 921 2102 
1897 861 1895 1517 860 1198 1194 1292 3027 
1298 190 416 1928 2953 1915 1867 2550 2438 
2703 2930 1633 2612 1539 1472 1955 1939 1013 
1347 1914 2020 1331 628 2114 1098 2613 549 
930 1240 1021 2097 1716 2387 1115 1134 1616 
1254 1641 2340 1694 2297 2423 2127 1786 2062 
586 2004 2028 1222 1984 1911 2171 2106 1537 
1486 2207 1326 838 1604 1696 2482 1815 2321 
2421 2779 2504 1470 1701 2082 1900 2072 1657 
1836 1635 1543 943 1477 1875 2344 2188 1589 
1557 884 1431 1656 1137 1720 1977 361 1547 
1663 1113 1062 1128 820 1170 1935 1685 1688 
72 1241 604 113 1967 1773 2587 1871 1838 
1655 2531 2355 1686 2054 2982 2480 1828 1909 
1767 2245 639 3192 904 1751 2603 2959 1905 
1885 2227 1721 2750 563 2292 2023 2060 1934 
2636 2459 2263 2432 3353 2338 1710 2490 1953 
1872 1770 1927 1559 2050 1945 1356 2620 644 
491 1876 1104 2399 899 2745 2377 1658 1893 
511 905 1346 966 2137 1513 1110 2005 1515 
2554 1282 1988 2042 1144 1950 1725 1742 1736 
1341 1636 2240 1857 2068 1025 1439 1622 2507 
1856 2408 1756 2170 131 287 1386 855 1847 
1488 1777 1540 1820 994 1697 702 485 1363 
2166 2089 956 2157 768 1506 2376 2767 1845 
1296 1972 2250 1566 1503 2156 3103 2202 3012 
1315 2379 2503 3297 2162 2910 1305 1352 1563 
1063 1474 986 2130 2184 3494 2129 107 2452 
2366 1334 2663 1757 1606 1768 2104 2512 1505 
3110 2059 3939 1288 1450 1448 2606 2113 2015 
1239 2181 692 771 990 996 1179 2226 1784 
1892 2307 1902 2616 1349 2209 1495 1921 1789 
2571 2898 2041 1142 719 1764 2024 1262 796 
1196 1763 1677 2043 1649 2246 1502 1396 1392 
2047 2319 1918 2203 1309 1544 920 1030 2253 
1079 1441 579 1712 1666 1140 2252 1753 22 
709 195 1794 470 594 1975 1980 2030 504 
1096 1755 1377 1983 1418 2755 1708 2312 1442 
2866 2813 1978 1596 1799 1289 2861 2392 2274 
1754 2369 3136 2488 2420 1568 2666 2560 2013 
1259 1949 3022 4276 2739 3185 1300 2265 1859 
2863 1611 2389 1959 1722 2118 963 2105 1202 
833 1703 2446 1782 2099 3005 1082 2215 2139 
2143 1680 2317 3083 2314 2669 2724 788 1569 
1268 1008 1609 2375 2037 1986 1293 824 1504 
183 751 312 1370 2009 2012 1865 3352 331 
174 1324 1672 2599 2084 2029 754 2471 2223 
1463 2270 1026 599 1255 1105 93 1410 1572 
1009 2333 1263 1089 1943 1019 878 718 2045 
1830 2525 1825 1669 2653 2817 941 2384 226 
2163 1985 1446 2304 569 2960 2334 3413 2857 
2659 3045 1855 2768 2654 2905 2136 3758 3753 
2875 2517 2555 2022 1944 3201 2900 3246 2071 
2687 3600 2691 1420 3177 2696 3169 2744 3020 
2577 3662 1908 2164 2391 3240 2932 2141 2057 
2006 3062 2076 2865 1018 1076 1361 1877 2040 
1460 3142 1102 2548 2295 3350 1279 1545 2133 
2661 2160 2204 3123 2090 1552 2360 2124 1960 
1120 932 3143 2541 2508 816 704 1522 1343 
1049 2348 690 2275 220 1402 3054 1176 1508 
1602 2509 1475 2374 1702 2679 2725 2952 1500 
2426 1615 1351 2518 2903 2440 743 2238 3215 
3239 2656 1487 1829 1638 2534 2961 1819 3436 
1526 2436 4154 3106 2793 3595 2331 2629 2999 
1961 2709 2290 1816 3093 2974 2778 2591 2095 
2249 1531 2987 2807 2302 3089 2273 2928 3068 
3209 2341 3501 2924 3934 1923 1395 1012 1413 
2052 1858 3094 1556 2610 2756 3173 2373 482 
2465 1518 1973 2516 2701 3678 1454 2766 1618 
2126 3197 2053 2021 2985 3958 2991 3811 3339 
3266 770 264 2152 1127 2816 1682 2657 2634 
2177 1933 2140 2455 2572 1844 2221 3099 3163 
3218 2588 2707 2544 3755 3031 3909 2776 2705 
2153 1821 2915 3058 2955 3689 2633 2393 3101 
2398 242 2447 3087 3162 1805 1689 2852 2400 
2258 2583 2655 3023 3399 1843 3431 2345 2311 
2781 2789 2821 2545 1991 1932 792 2798 2144 
4135 3400 4184 3442 2795 2294 3396 2535 2828 
2641 2972 3675 2467 3457 2241 2941 2570 1904 
2826 3168 3430 3597 2395 2830 3070 3117 3256 
2364 2980 2690 2546 2526 2210 2325 3206 2424 
2396 2635 3017 2996 1317 3082 1750 2511 2501 
3427 2235 1673 2352 2593 2895 2462 2676 2944 
2814 4264 1662 2117 3512 2708 2962 3809 2797 
3038 3805 2799 3517 2622 3411 521 4164 4268 
2726 3463 3367 4082 2788 2589 3405 2665 2299 
2869 2825 3647 3963 2699 3409 3028 2315 3615 
2514 3816 3747 3491 3052 2111 3226 3625 1840 
2971 1451 1705 2096 2353 2134 2891 2458 871 
2069 234 1277 2192 2772 3475 2495 2451 3137 
2684 969 3227 2809 1787 3941 3315 2457 3124 
2856 3827 3724 3098 3382 2122 3453 2850 3418 
2019 4232 2920 2810 3639 4074 3923 4362 3008 
3933 3212 1739 1482 1849 2412 2237 2200 868 
1160 1869 1924 1873 1624 2175 2336 2093 2598 
2556 1870 1367 1498 1695 2320 2039 2538 2652 
2119 2614 2627 1594 2848 2596 3079 2254 3011 
2992 2791 1889 3073 1788 2323 2125 3439 3663 
2892 2409 3016 2065 3555 3372 2741 3077 1555 
2969 3493 2775 2997 3964 3508 3379 3591 2580 
2418 2740 3914 4088 3059 3688 3618 3549 2602 
1837 3006 2135 4405 876 2746 1707 3666 2339 
2222 1659 2569 2536 2481 2963 3025 2173 3520 
2477 2877 3893 2658 3085 3607 481 2491 2716 
1881 2578 2468 2680 2647 3119 2994 2607 1996 
1880 1623 2075 1675 2557 2529 2847 2925 2763 
2332 2414 1111 2496 2382 2466 1808 3224 2594 
2873 2682 2198 3280 2783 2494 2413 741 2260 
765 1639 3003 2230 1251 3213 3026 1313 2322 
1692 1995 3033 2080 2640 2128 2711 3580 3219 
4350 2189 2108 3102 2147 4478 2912 3381 3295 
1154 3013 2623 2358 3957 2843 2310 3335 3682 
2453 3359 2212 2410 1948 3344 3336 2510 3905 
3917 1574 3231 3066 3229 2428 1800 3265 2493 
3115 2667 2417 3100 1863 1746 2473 2917 3139 
2801 3042 2372 2743 2470 2285 2092 2834 2934 
2651 2098 2061 2091 2351 953 2564 2913 730 
2624 2361 2287 2362 2033 1704 2199 2017 3346 
2371 2239 1109 1912 1982 1256 1759 1417 2115 
1966 1382 3035 2284 1501 2672 2431 1183 2461 
2609 3390 2770 3478 3342 3784 3084 3057 1041 
3055 1437 2419 1461 2896 4382 2732 2998 3260 
3388 3777 2837 1610 2251 1587 2933 1884 3127 
3204 3394 3251 2611 2552 2762 2836 4178 4182 
4053 4328 2363 2145 3473 2881 1833 2335 3272 
2988 4217 3565 2774 2018 2576 1866 2228 2790 
2723 2757 2430 1416 2425 3090 3504 2243 1785 
2710 1954 2563 2674 2628 2179 2819 2205 1919 
1860 1601 2573 2288 2180 1302 1608 2608 2381 
2158 1726 1565 2224 2187 2155 2201 2498 1879 
1473 2632 2330 1740 1640 2146 2308 2575 2268 
2011 1507 2316 1558 2786 2693 2949 2664 2107 
3472 2456 2397 3606 2437 3650 2958 4055 2365 
3220 2943 2337 3782 4448 1571 1249 2860 1394 
3481 2486 2796 3829 1946 3289 2719 3765 2469 
3254 4005 4046 4254 3992 4691 3293 3635 2761 
3065 2561 2233 3470 4374 3636 3680 3750 4062 
4804 3151 2318 2759 3386 2769 2899 2685 3823 
3402 2907 1937 2559 2044 3076 2472 3164 3158 
3365 3242 3490 1423 2026 2183 1521 3499 2492 
1178 2827 2533 3018 1661 2078 1793 1956 2191 
1778 1323 2448 1938 2244 2390 2416 1285 2742 
2712 2434 2675 2714 683 2553 2088 1999 2276 
2286 2855 3330 2046 2964 2342 1411 3852 3693 
3604 4283 2007 3974 2406 2229 3323 3529 3238 
3296 3570 4298 4078 3798 2753 3681 4707 2758 
2780 4745 2505 4114 4004 2650 2385 2738 2990 
3446 4002 3309 3588 3184 3048 3617 3745 4940 
3257 3641 3128 2945 4498 3685 3838 4089 4559 
4558 1878 2851 3074 2966 3743 2717 3977 3261 
3140 2208 3302 2522 3370 3214 2735 2921 3148 
3989 1774 2195 2584 1681 3487 2840 3047 2876 
3056 2581 2808 2935 3096 3331 2185 1717 3187 
2718 2630 1882 2839 3253 2845 3739 3601 3440 
2829 1987 1758 1745 1737 1132 2901 2678 1646 
2278 4134 3452 2370 2031 3282 3593 3317 3609 
3567 2908 2754 2805 2897 3649 2842 4205 4081 
4094 4837 3243 3726 3857 4810 2600 4909 4139 
2257 3793 4668 5040 4592 3040 3305 3393 3542 
2870 3366 3659 3915 3613 2356 3189 2442 3837 
3999 5053 3157 2977 3895 3858 3707 3292 4696 
3276 2349 2271 3622 4058 2914 3468 3034 1553 
3880 1989 3528 3198 2986 2973 3299 3156 2902 
3966 3571 3278 2889 2281 2728 2445 3380 3024 
3786 3135 2683 3200 2885 2359 2841 3500 2713 
2832 3171 3159 3312 1415 2279 3376 4247 4385 
4204 4117 3263 2568 3232 4072 4314 3389 2923 
4280 2220 3432 2521 3822 4403 3851 4065 267 
4035 4191 2579 4867 3466 1958 3993 3166 3210 
3544 4507 3583 2748 2965 3546 3406 3153 3599 
3511 3652 4608 4473 2686 2993 1803 3450 3248 
3193 3410 4418 3434 2983 3037 3357 3334 2760 
3318 5386 4566 2305 4613 3041 2833 3145 3489 
4490 4354 3885 3721 4242 3190 4118 3134 3255 
3646 4429 3249 4852 2765 2929 2660 3537 4230 
3715 4410 3051 2947 4395 2500 2592 3916 2978 
2904 3526 3563 3686 3307 2027 3859 4105 4070 
2849 3757 2067 3476 4482 2692 4650 2324 2844 
2081 2975 4227 4138 3408 3530 4341 3579 3667 
4603 2642 2242 3262 3340 3444 3165 3433 3910 
4251 3146 3398 3540 3806 2729 3679 4701 4334 
3868 4126 3581 2727 3304 4549 3036 4169 4793 
2868 2995 2218 4738 3904 2720 3619 4693 5231 
3584 3705 4043 3002 3810 4520 4690 3505 1964 
2854 4911 2463 3780 4001 4100 3510 3704 4391 
3929 4057 4069 3951 4348 3590 2618 4865 3310 
3291 4045 2646 3980 3545 4012 3420 3536 2731 
3126 2835 3594 3661 3514 3815 3322 4158 3775 
3288 2880 3843 4635 3383 4098 4698 3919 4273 
3779 3643 2499 3551 4115 4995 3651 3356 3614 
2884 4019 4176 3908 3889 4360 3566 2549 3316 
3967 4345 3186 4224 4571 4926 3364 3950 3327 
2644 1917 1365 2846 3509 2811 1743 3944 2782 
497 3363 2216 3132 3374 3122 3902 3794 2698 
3861 3953 4272 3653 3208 3839 3129 4006 3730 
3655 4229 2749 3968 4122 4073 4124 4768 3834 
4746 4569 5194 5124 3416 3455 5181 5217 3710 
3387 3938 3313 3039 2906 2159 2803 2186 3104 
3195 2721 2967 3830 4039 3154 3942 2474 1509 
3598 2112 3424 2567 3358 4237 3684 4025 2485 
3983 2604 2823 3009 3634 2859 2882 3361 3116 
2668 3465 3351 3349 2303 4063 3337 4540 3741 
4831 4285 3147 3965 3729 3770 3867 4083 3841 
3576 4353 4496 3732 4518 5384 4211 3421 3032 
3702 3414 3984 3324 4000 3075 3913 1650 5014 
3069 5700 3479 4412 2670 3899 3628 2558 2936 
2700 3796 3970 3407 3438 3754 3973 3657 2483 
3360 4241 1433 3978 3820 3763 2931 3778 3524 
3181 2562 3401 2818 3385 3569 3130 3319 2831 
3196 1209 2792 2168 3422 2919 2637 2282 3202 
3207 2590 3506 3225 2489 3270 2939 3120 3516 
4384 1042 2638 3277 3564 3577 3392 2747 3611 
4219 3727 4021 3994 3217 4243 2506 3160 2800 
3230 4355 3860 4257 3807 4376 3373 3019 3311 
3375 3872 3443 3454 4095 4457 4511 3954 3709 
3459 4309 4013 4389 4372 4828 4279 5478 4248 
4975 4784 4363 1806 4578 3176 4766 4424 2802 
4318 3113 4406 3690 4494 4195 3007 3462 2918 
3152 4125 3211 3776 2662 3507 2981 3283 3001 
3182 3092 3498 3760 3676 3199 2733 3000 2734 
3014 2131 3086 2730 2926 3286 2225 2689 3044 
3180 3587 2956 3435 2429 3030 1965 3053 3268 
3203 4255 3801 2951 2211 2927 2450 3236 3692 
3486 3550 4212 2688 3873 4147 3572 4240 3362 
4454 4196 3874 3515 4192 3881 5474 3548 5131 
4823 3706 3273 2350 4014 2715 3469 4587 4790 
4220 4580 5114 4880 4451 4779 5456 4729 3377 
3814 3419 4648 4421 4373 5382 4577 2702 3645 
3343 3354 4576 3716 4007 4588 3072 3247 3355 
2942 3178 2890 3345 3043 1731 2937 2234 3078 
2595 2464 837 2520 3833 2625 3437 3205 2357 
3284 3467 2566 4267 3250 2649 2231 3004 3021 
2401 2874 2916 3616 2301 3081 2524 3172 3371 
2066 3836 3586 3744 4166 3188 3629 3131 3161 
2582 2822 3448 4107 4320 4722 3948 3669 2169 
3626 4183 4924 3328 4497 3835 4760 4679 2954 
4375 4742 4851 4807 3962 4586 4170 4450 4542 
4370 4468 4443 4246 4419 4186 4286 5335 4802 
4618 4416 4066 4150 4009 4420 4568 4708 3884 
3234 3522 4642 4173 4031 5983 2388 2970 3097 
2938 3831 3121 3221 2433 2422 2300 3091 2886 
3441 3222 3194 3735 3832 2138 2269 2671 2178 
3664 3325 3109 3174 2645 3531 2976 3612 4047 
4129 3326 2601 3496 3824 4332 3179 1848 1644 
2878 3332 4339 3080 3118 2922 3632 2165 3764 
4417 4287 4324 4845 2722 3742 2968 4436 4517 
4597 3518 4780 4884 3064 4925 4781 4512 3677 
4714 4632 4599 4306 4244 4630 4946 4155 4886 
4528 5360 4548 5062 5593 4064 4091 3485 4193 
5068 4236 5442 4723 3111 3573 4731 4261 3783 
3924 3959 3790 5060 3928 3133 2984 3631 3258 
3314 3378 3281 3482 3694 3294 2706 3445 3918 
2777 3560 3722 3541 3535 3876 3875 4266 3926 
3991 3603 3502 3890 3866 3674 3521 4226 3543 
4615 5027 4239 3644 2415 4816 5952 4614 4842 
4727 5110 4685 3900 4944 4289 4159 3071 3855 
4616 4883 5050 4789 3010 4452 5007 5495 3698 
4922 4529 5960 3624 4624 3287 4010 3627 4753 
5117 4449 4593 5654 4594 5018 6031 4973 3495 
5725 4866 4492 4898 4672 4316 4755 2979 3788 
3734 4282 4142 3897 4636 3683 4368 4008 3691 
3474 4262 4327 3015 4305 4601 3112 3150 4522 
3320 3170 3301 3912 2989 3656 4162 2858 2806 
4485 4090 4735 4396 4093 4054 3700 4916 3817 
3946 4323 4144 4377 3488 4343 4920 3903 5476 
5566 5658 4932 5616 4872 4346 5135 4252 5487 
4857 4680 5541 5577 4711 4032 4678 3988 3585 
5200 6020 4854 4658 5269 4519 5993 5559 5352 
5569 4999 5786 4627 4717 4491 4907 4900 3847 
4655 4955 4379 4293 4152 5693 5066 5549 4508 
3061 3937 4351 4213 4040 4584 4097 4673 4157 
4109 4617 3979 3480 4404 4113 3976 4899 4435 
3275 4653 5454 4661 2946 2893 2957 4715 4438 
4387 4783 5537 4506 4882 5226 5259 5218 2888 
5815 4020 3321 3245 2950 5150 5090 3552 5726 