# vtk DataFile Version 4.2
Generated by LIGGGHTS
ASCII
DATASET POLYDATA
POINTS 6000 float
-0.039736 -0.0209869 0.00399192 -0.0381334 -0.0136461 0.00399103 -0.0438369 -0.00960175 0.00416776 
-0.0403937 -0.00487412 0.00406088 -0.0446894 -0.00137215 0.00408668 -0.0365996 0.00747968 0.00419407 
-0.0221278 -0.0391642 0.00397525 -0.0240286 -0.0379647 0.00729158 -0.0146238 -0.0381898 0.0040709 
-0.0179561 -0.0410578 0.00400929 -0.0138186 -0.0423657 0.00426649 -0.0201476 -0.0402116 0.00725905 
-0.0168139 -0.0380336 0.00765171 -0.0128334 -0.0389012 0.00778734 -0.015752 -0.0420834 0.00779258 
-0.00997123 -0.0437693 0.00427966 -0.00568249 -0.0446084 0.00403538 -0.00642594 -0.0375061 0.00402056 
-0.0100374 -0.0396511 0.0046092 -0.00631884 -0.0410638 0.00583849 -0.00572075 -0.0373462 0.00796117 
-0.0116111 -0.0432499 0.00791991 -0.00589558 -0.0440809 0.0090391 -0.00840693 -0.0407868 0.00925331 
-0.00196456 -0.0413607 0.00445545 0.002196 -0.0447688 0.00397113 -0.003099 -0.04073 0.00842127 
-0.00267972 -0.0448442 0.00676367 0.000806586 -0.0389936 0.00620793 0.00256443 -0.0423237 0.00765122 
0.00511078 -0.0407559 0.00411649 0.00762442 -0.0374881 0.00397509 0.00897984 -0.044068 0.00403164 
0.0120703 -0.038929 0.00439194 0.00496401 -0.0372992 0.00761986 0.00562636 -0.0446119 0.0063402 
0.00924042 -0.0408499 0.00646087 0.0129551 -0.0427047 0.00550635 0.0124753 -0.0395962 0.00860219 
0.02085 -0.0393967 0.00406302 0.0165282 -0.0417878 0.00403219 0.0160109 -0.0382131 0.00594381 
0.0188507 -0.0408251 0.00784465 0.024866 -0.0373129 0.00421749 0.0231384 -0.0385366 0.00777662 
-0.0325616 -0.0310664 0.00403619 -0.0301262 -0.033398 0.00616156 -0.0327774 -0.0307107 0.00994897 
-0.0230656 -0.0312136 0.00410268 -0.0228541 -0.0351991 0.00399117 -0.0272801 -0.0357474 0.00420573 
-0.0272255 -0.0315807 0.00405311 -0.0238443 -0.0336116 0.00750234 -0.0229331 -0.0289334 0.00745896 
-0.0272462 -0.0357576 0.00816679 -0.0266541 -0.0310419 0.00869734 -0.0126824 -0.0322559 0.00401916 
-0.018398 -0.0369347 0.00399582 -0.0191487 -0.0326881 0.00448517 -0.0157666 -0.0296516 0.00399743 
-0.0205588 -0.0358796 0.00718012 -0.0203688 -0.0319946 0.00872238 -0.0156929 -0.0345859 0.00577578 
-0.0156774 -0.0312262 0.00795082 -0.013732 -0.0351429 0.00925166 -0.00709381 -0.0335569 0.00398968 
-0.00873158 -0.0300395 0.00493911 -0.0113743 -0.0356399 0.00581882 -0.0044618 -0.0297406 0.00577096 
-0.00709297 -0.0324089 0.00787574 -0.00929089 -0.0355615 0.00923507 0.0033284 -0.0368498 0.00399198 
-0.000825717 -0.0356415 0.00401431 -0.000579065 -0.0312973 0.00398268 0.0041782 -0.0308606 0.00410839 
-0.00356189 -0.0336898 0.00617888 0.00238654 -0.0337222 0.00629975 0.00340669 -0.0290402 0.00755461 
-0.000617293 -0.0318996 0.0082582 -0.000654933 -0.0360163 0.00838552 0.00815451 -0.0296664 0.00554305 
0.00726462 -0.0337105 0.00533746 0.0122688 -0.0355582 0.00654664 0.010588 -0.0325361 0.00886558 
0.0156764 -0.0342958 0.00402951 0.0183648 -0.0308012 0.00504212 0.0128814 -0.0315811 0.00514619 
0.0195605 -0.0345253 0.00652985 0.0161953 -0.0326274 0.00804352 0.0264813 -0.0363723 0.00890616 
0.0225883 -0.0306384 0.00534317 0.0254747 -0.0334812 0.00563215 0.0266523 -0.02888 0.00546787 
0.0230006 -0.0343922 0.00879247 0.0245594 -0.028561 0.00893416 0.0292059 -0.0341535 0.00692953 
0.0302628 -0.0306791 0.00524109 0.0339598 -0.029438 0.006168 -0.0381107 -0.0239008 0.00680129 
-0.0388143 -0.0226714 0.010767 -0.0363146 -0.0264699 0.00409533 -0.0317402 -0.0269239 0.00401755 
-0.0310808 -0.0224453 0.00401347 -0.0357533 -0.0218991 0.00409826 -0.0344034 -0.0288275 0.00676253 
-0.0293919 -0.028955 0.00661446 -0.0337855 -0.0246038 0.00654126 -0.0288652 -0.0246672 0.00658817 
-0.0364278 -0.0263867 0.00996094 -0.0316942 -0.0267583 0.0091795 -0.0313052 -0.0219662 0.00831173 
-0.0220375 -0.0224125 0.00401219 -0.0264388 -0.0227939 0.00400592 -0.0258406 -0.0269506 0.0042969 
-0.0215558 -0.0265306 0.00413107 -0.0240281 -0.0244183 0.00682887 -0.0206209 -0.0211916 0.00754204 
-0.0265463 -0.0210681 0.00763637 -0.0203242 -0.0256345 0.00815104 -0.026478 -0.0270253 0.00879429 
-0.0118644 -0.0277347 0.00399043 -0.0158342 -0.025517 0.00398972 -0.0176226 -0.0217955 0.00401879 
-0.0191065 -0.0289272 0.00621826 -0.0127686 -0.0283761 0.00784421 -0.0142531 -0.0223779 0.00713784 
-0.0160848 -0.026095 0.00803938 -0.012156 -0.0237254 0.00401303 -0.00646002 -0.0267669 0.00399713 
-0.00612612 -0.0228077 0.0058514 -0.00997071 -0.0211138 0.00612631 -0.00946228 -0.0252386 0.00672047 
-0.00411424 -0.0261984 0.0075916 -0.00746684 -0.0282708 0.00839636 -0.00717198 -0.0207299 0.00935158 
-0.00303221 -0.0245617 0.00400716 0.00069383 -0.0260874 0.00403292 0.00355558 -0.0228659 0.00398281 
-0.00324198 -0.021306 0.00817625 -0.000142729 -0.0271344 0.00781459 0.000312259 -0.0231388 0.006688 
0.0123609 -0.0275646 0.00474427 0.0104556 -0.0237077 0.00482811 0.00734568 -0.0208682 0.00478405 
0.00465946 -0.0208022 0.00774161 0.00575359 -0.0260581 0.00537442 0.00938069 -0.0237648 0.00892237 
0.01766 -0.0205455 0.0044919 0.0129298 -0.0213602 0.00760816 0.0133686 -0.0258789 0.0085203 
0.0202036 -0.0277352 0.00687353 0.0152188 -0.023801 0.00521341 0.019324 -0.0241273 0.00528143 
0.0161886 -0.0276191 0.00625699 0.0213769 -0.0229165 0.00849438 0.0236909 -0.0259833 0.00550067 
0.028571 -0.0214084 0.00557102 0.0246409 -0.0220819 0.0061306 0.0279776 -0.0253029 0.00692928 
0.0312632 -0.026789 0.00480298 0.0320158 -0.0228603 0.00415324 0.0293063 -0.0286534 0.0088023 
0.036484 -0.0263133 0.00614347 0.0352923 -0.0223968 0.00642369 0.0316472 -0.021408 0.00859122 
0.0333072 -0.0251496 0.00864163 0.0389158 -0.0224475 0.00809329 -0.0412911 -0.0162442 0.00412688 
-0.0375989 -0.0171448 0.00591836 -0.0402387 -0.0201453 0.00790323 -0.0393335 -0.0124583 0.00767594 
-0.0418022 -0.0163854 0.00819566 -0.0408466 -0.0186825 0.0116023 -0.0340011 -0.0154294 0.00400943 
-0.0294874 -0.018413 0.00400288 -0.0294299 -0.0144977 0.00576761 -0.033045 -0.0190726 0.00586252 
-0.0361996 -0.0204994 0.00787291 -0.0294713 -0.0183824 0.00800317 -0.0331963 -0.0140917 0.00771516 
-0.0292081 -0.0148207 0.00980306 -0.0366929 -0.0152708 0.00959902 -0.0331396 -0.0179529 0.00980343 
-0.0262227 -0.0160838 0.00399438 -0.0222394 -0.0156778 0.00399323 -0.0238479 -0.0190634 0.00540119 
-0.0217929 -0.012701 0.00683428 -0.025764 -0.0126984 0.00612728 -0.025854 -0.0166681 0.00793091 
-0.0182914 -0.0123529 0.00403131 -0.0143656 -0.0189559 0.00427543 -0.013635 -0.0145459 0.00398709 
-0.0187033 -0.0179529 0.00442954 -0.0203046 -0.0163125 0.00819352 -0.013283 -0.0161091 0.00768298 
-0.0168249 -0.0193589 0.00765787 -0.0164333 -0.0136557 0.00743675 -0.00699859 -0.0192478 0.00407326 
-0.00871442 -0.0154869 0.00397807 -0.00406694 -0.0149192 0.00445556 -0.00499174 -0.0178396 0.00722247 
-0.00881326 -0.015875 0.00792227 -0.01095 -0.0189765 0.0093653 -0.00167255 -0.0187025 0.00481315 
0.00387256 -0.0186479 0.00398592 0.000776033 -0.0149924 0.00401262 -0.00100714 -0.0142703 0.00751024 
0.0018232 -0.0172537 0.00717795 0.00554538 -0.013643 0.00399734 0.01178 -0.0194384 0.00421857 
0.00893675 -0.0164133 0.00397285 0.00613897 -0.0164337 0.0068992 0.00984824 -0.0188391 0.0082864 
0.0119881 -0.0151993 0.00865116 0.0136652 -0.0150384 0.00502903 0.0175637 -0.0158025 0.00442297 
0.0192536 -0.0194993 0.0081166 0.0192742 -0.012376 0.0058712 0.0153004 -0.0181061 0.00698115 
0.0216078 -0.0197426 0.00485688 0.0262008 -0.0184861 0.00406589 0.0249874 -0.0145785 0.00511809 
0.0289486 -0.0152711 0.00405422 0.0212425 -0.0159093 0.00597854 0.0247901 -0.017185 0.00831254 
0.0231877 -0.013167 0.00878676 0.0275997 -0.0143161 0.00842259 0.0312374 -0.0187562 0.00412543 
0.0296197 -0.0179625 0.00796753 0.0351628 -0.0183973 0.00593094 0.032345 -0.0153632 0.00648327 
0.035938 -0.0132858 0.00659783 0.0385116 -0.0157193 0.00464089 0.0408708 -0.0188148 0.00711661 
0.0422824 -0.0152718 0.00598824 0.0392877 -0.014931 0.00954446 -0.044491 -0.00546463 0.00406315 
-0.0430849 -0.0129628 0.00628984 -0.0396385 -0.00888225 0.00592267 -0.0392698 -0.00515482 0.00809562 
-0.0431351 -0.00414388 0.00765356 -0.0438011 -0.00937129 0.00875792 -0.0398015 -0.00876619 0.00992367 
-0.04054 -0.00494827 0.011877 -0.0318529 -0.0118283 0.00400667 -0.0309421 -0.00350398 0.00403139 
-0.0346685 -0.0079517 0.00401653 -0.0355343 -0.011315 0.00603594 -0.031108 -0.00750443 0.0057714 
-0.0359854 -0.00759087 0.00800126 -0.0328148 -0.0101198 0.00875967 -0.0289958 -0.0111842 0.00809234 
-0.0313656 -0.00612741 0.00966672 -0.0359948 -0.00423187 0.0102859 -0.0234074 -0.0101348 0.00399361 
-0.0279081 -0.00977604 0.00415284 -0.021963 -0.00582155 0.00422525 -0.0271021 -0.00474017 0.00404385 
-0.025523 -0.00786362 0.00681152 -0.0210518 -0.00842787 0.00713519 -0.0266574 -0.00432933 0.00838656 
-0.0251502 -0.0109907 0.00968329 -0.0125606 -0.00639339 0.00406189 -0.0183972 -0.00767905 0.0042124 
-0.0149839 -0.00988512 0.00427758 -0.0160649 -0.00542403 0.00677719 -0.0161686 -0.00915391 0.00835103 
-0.00494133 -0.00947879 0.00409645 -0.00897317 -0.00823013 0.00399221 -0.0101209 -0.0119365 0.00562834 
-0.0122402 -0.00880752 0.00729975 -0.00745576 -0.0122377 0.00896789 -0.00385561 -0.0114643 0.00737218 
-0.00988082 -0.00545318 0.00690848 -0.0071719 -0.00849501 0.00757531 0.00376164 -0.00947607 0.00403492 
-0.000182649 -0.00527314 0.00402631 0.00364856 -0.00381476 0.00398229 -0.000584655 -0.0105683 0.00469562 
-0.00356125 -0.00643408 0.0063154 0.0041158 -0.0119284 0.00752535 0.00173084 -0.00525601 0.00752658 
0.00118111 -0.00918889 0.00843873 0.0107617 -0.0125305 0.0039869 0.00777378 -0.0089341 0.0039967 
0.0112717 -0.00681436 0.00399955 0.00547658 -0.00661518 0.00659424 0.00819417 -0.0116162 0.00692515 
0.0122589 -0.00979212 0.00649504 0.010458 -0.00650123 0.00796509 0.0167472 -0.00845077 0.00462315 
0.0158286 -0.0112913 0.00758843 0.0143981 -0.00538676 0.00628087 0.0176857 -0.00667943 0.00823492 
0.0207282 -0.00411722 0.00782824 0.0204073 -0.00959394 0.00869003 0.0207329 -0.00709078 0.00498396 
[...]
POINT_DATA 6000
FIELD FieldData 7
id 1 6000 int
1546 62 537 1449 466 170 20 5363 2418 
525 531 4371 4174 5557 4982 1962 4649 706 
435 1145 4284 5684 4249 4267 606 3923 3933 
126 5224 738 774 2329 1354 1123 1630 2339 
1152 313 3549 654 3006 1914 2746 18 2623 
5217 471 5760 4087 4362 4590 4074 4434 4602 
3382 4124 3416 4026 49 5194 5691 4556 3 
5504 4746 3534 4080 5265 988 5846 5929 528 
1318 364 247 5181 917 694 708 3059 73 
512 2626 985 747 432 1765 1065 350 1088 
1930 1584 1372 1539 209 576 34 609 2479 
542 4777 3098 3968 1691 4569 4768 3839 2920 
4073 5236 3418 1619 720 2122 4202 281 652 
3269 835 710 935 268 3008 5049 2775 339 
3639 3938 35 314 662 2460 215 4985 230 
165 248 2740 291 111 522 1189 214 614 
801 274 515 91 1092 437 1472 440 781 
1802 401 1732 1259 400 1045 938 408 1397 
886 3045 1637 241 997 117 292 2586 2101 
2513 3953 1741 870 1883 3208 135 918 1903 
139 1890 270 3453 38 502 626 791 1652 
329 402 251 660 204 843 2850 1406 2810 
640 118 64 46 176 3298 732 223 852 
85 392 308 858 2580 909 29 864 210 
964 1362 645 383 338 245 2654 211 1046 
173 1446 1632 682 1576 341 1855 496 44 
3793 1687 452 1846 574 252 1371 1277 767 
902 1307 63 316 3471 244 1715 2677 71 
2444 1456 2867 468 2537 622 123 2213 519 
69 365 1141 415 588 568 235 727 848 
363 411 109 1203 28 455 2 987 1440 
1091 156 1138 921 282 616 76 841 1038 
558 1257 580 238 198 47 1738 384 1471 
551 1272 1792 2915 3595 2911 2555 2600 1526 
267 1182 742 1958 4032 1711 797 2659 3245 
4867 3432 2709 1961 842 30 88 421 1074 
2206 234 48 1311 1093 1060 1376 517 441 
552 773 1044 1706 1135 810 297 1 1011 
1139 1191 812 507 789 265 825 1097 393 
1301 1861 1542 377 307 337 333 1219 410 
217 758 818 161 942 188 301 659 1232 
725 354 1214 565 951 390 381 1192 124 
1438 545 2776 344 1862 557 666 874 2705 
23 2629 4035 4227 2324 2635 2523 1750 2844 
1907 60 636 399 3017 2393 1401 1269 762 
427 529 1628 550 822 1790 330 75 434 
2326 145 171 1452 7 713 479 221 1436 
1108 840 1157 184 1171 444 98 673 380 
1684 724 105 1369 368 352 508 177 1206 
605 286 1094 890 164 275 523 57 154 
665 227 2879 1075 2631 362 1118 61 2475 
2132 1969 1564 530 1168 175 2111 2182 3082 
1195 3126 160 3369 1039 638 1713 397 1419 
2863 2452 1458 107 916 906 1570 2663 2109 
1304 857 678 136 740 590 748 1016 166 
1243 865 153 306 1066 388 366 1560 1287 
196 130 667 122 1465 513 532 578 1271 
634 560 1339 867 619 134 200 688 1749 
3099 1010 2574 298 674 3625 127 373 3590 
3409 413 611 1306 4105 1762 2515 3615 1317 
970 2737 1017 4482 2636 1525 1424 1426 2097 
1421 2366 2022 3201 2778 1709 1642 1177 236 
353 162 1462 1095 1534 1180 1645 1218 896 
701 1070 859 538 559 2167 311 348 266 
795 1000 194 603 490 279 756 853 524 
983 572 288 2764 1005 3028 4571 2077 1325 
4391 2325 4176 3747 620 229 828 3226 2549 
1606 483 1944 893 1611 887 1648 1887 1667 
2071 680 2328 3662 92 1267 2383 1215 656 
2398 1528 100 851 1246 129 305 1320 1724 
420 385 456 418 1490 940 2161 40 1864 
1514 809 1069 1520 729 961 1028 4360 2589 
2289 4381 1136 2788 3491 2869 2665 15 2699 
3908 2266 583 146 849 2400 687 993 1805 
1024 811 1689 895 1164 13 299 2454 132 
927 4264 637 910 601 31 1211 258 819 
2283 417 1807 1308 4365 4006 4853 4600 5695 
4128 4060 4970 3825 5645 4892 4388 5298 5402 
5358 3892 5372 3455 679 4088 473 5297 3710 
6043 5346 5097 2427 5573 2008 143 1333 3576 
4353 6037 5134 5663 6059 5304 3212 1837 3421 
3702 3216 5936 3313 2020 3039 2569 5124 3124 
4466 4017 3449 4740 4122 4942 3668 4272 3949 
5406 4447 5106 4229 3723 5808 5282 4709 3869 
4484 3699 3961 6012 5043 5536 6045 5500 5290 
5483 5384 5913 3791 5105 5705 4747 5451 2135 
4689 4638 3230 3032 3913 396 216 257 178 
2542 1184 4741 4405 81 2148 2358 2261 3984 
1707 1013 2612 2310 1939 302 1129 374 1874 
628 3941 2380 4718 3827 3458 2992 3730 3902 
2749 3129 3834 4232 3935 3653 3769 4544 2639 
3767 2001 4605 1787 3655 3315 4700 3227 2303 
4469 5833 3492 973 4598 3397 2969 3741 4187 
5163 3841 284 1148 3982 3964 4290 4930 5235 
3379 303 371 2232 894 4263 3688 3732 296 
520 324 629 1853 734 2930 2585 2785 1550 
726 1512 1891 582 737 1600 1955 477 1352 
1828 403 1015 1221 1228 208 664 1236 426 
1607 2905 459 2560 2136 3856 1031 3363 2684 
101 2353 2451 2019 969 3724 2457 3132 2049 
1479 1668 2809 2856 589 3861 2347 2378 3011 
2772 685 2394 51 2074 735 802 1775 1379 
3122 2596 2791 600 2752 2547 772 3465 2627 
3439 4831 1788 2487 1061 201 945 80 2055 
968 3077 2997 94 630 581 669 827 3914 
3027 1198 1194 83 1403 1766 1915 261 1548 
1968 1200 698 577 981 1284 1027 641 2274 
1832 1730 1466 569 19 2236 1886 2857 1829 
2961 1910 575 2897 881 1568 2754 2704 181 
2331 4139 3753 2517 4810 4159 1625 1053 294 
429 960 1990 1922 1733 1926 2192 632 2346 
1393 493 2036 1245 1971 543 1055 152 2681 
3137 1735 804 2614 2070 670 1280 784 2502 
955 1899 1238 1483 2848 2323 382 1583 992 
460 2085 449 2648 219 1841 492 398 445 
1151 962 1057 138 1897 1781 1274 2102 548 
677 805 405 675 1253 277 821 480 379 
1671 8 936 1804 395 1032 627 1511 598 
2793 1797 2534 1819 2334 149 4191 3851 2999 
3988 4883 1043 5135 3993 4280 4452 4592 2290 
2633 4678 3585 3101 5583 2579 1078 358 850 
1294 1492 2000 1261 1947 1827 649 499 1181 
684 948 172 1336 1193 570 2894 498 755 
979 561 991 320 14 179 584 761 351 
989 1231 276 786 112 1290 547 749 148 
425 839 911 1067 1761 304 919 1270 782 
650 1381 464 256 780 185 104 1036 633 
949 469 602 785 613 423 1205 653 97 
1321 213 541 1073 59 438 1821 1532 1029 
271 1332 1638 4070 1107 207 50 1693 1487 
453 2220 2521 672 618 4377 4154 3106 4459 
658 2081 343 4711 4020 2955 3822 5664 5495 
4188 3166 2731 2950 5815 5726 4138 3466 4258 
4667 869 976 1523 32 1445 500 2149 1776 
2327 278 336 66 1197 646 1072 474 1163 
608 752 2428 926 1071 1022 128 1172 897 
1254 1085 263 1342 1090 1626 404 1561 759 
349 1134 1252 1430 555 2439 262 1101 564 
1156 793 1131 803 1634 764 4 1169 359 
253 974 779 689 873 323 82 2551 391 
1117 2048 3689 1516 2528 3909 1429 3218 1414 
1896 3757 592 295 2544 433 2100 476 2996 
3436 2364 4650 2067 9 4065 2511 446 3859 
2940 3058 1970 5259 2646 2530 5226 3530 2543 
3368 3552 3408 4881 6006 4791 5934 4197 2094 
647 549 1240 2423 1588 1115 2387 2263 484 
885 691 2292 984 2338 2478 56 17 1562 
45 957 1334 1358 883 206 829 1491 635 
96 1727 1340 671 168 808 1234 2060 103 
472 1216 591 451 1480 1002 1266 731 836 
280 937 879 553 1048 798 587 534 714 
915 539 142 1103 1888 1747 1581 1497 914 
501 959 933 2210 325 2315 3597 1957 3206 
3510 2411 2830 1536 806 4045 1077 2588 536 
5981 5103 862 1621 4865 2618 189 1390 5218 
3536 3364 3545 4699 5150 3980 2113 2510 2432 
1757 2883 3110 1934 1770 3353 2363 1641 2990 
1505 2104 3005 2389 952 2459 1288 2015 1223 
721 1850 250 963 1605 2391 310 43 1400 
1378 1654 1527 514 1385 715 1556 328 1398 
907 370 681 319 231 1099 347 2241 1167 
461 1481 1226 1510 2142 1388 1299 1718 3614 
2497 3929 1162 1579 2403 3816 2690 2980 4100 
2695 4057 3647 3780 4345 4606 3665 5431 4012 
6025 5454 4348 4573 3186 3316 2514 3052 4392 
4224 5512 4335 5272 4671 3967 3327 3291 1768 
2264 1859 1722 2059 3305 2118 1300 3600 1959 
2687 1052 3189 2105 2385 2900 900 3023 1798 
1037 2341 1420 2577 2095 1816 1531 1831 1913 
2262 1188 1923 2190 67 950 2345 1817 676 
133 27 1186 431 2404 2235 863 924 121 
663 826 2519 2972 3396 1538 521 766 2825 
2151 2884 4690 3356 2463 5419 1818 3963 1627 
4926 4513 5184 4069 5367 5417 4591 4480 5460 
1614 55 3093 1225 3068 242 2258 2249 2302 
3089 2655 2197 2501 2751 2852 2462 412 1034 
2642 2895 2583 2593 1791 540 254 1679 367 
478 1851 2116 4268 3762 546 86 1906 387 
3463 2622 2064 2799 357 2299 1535 1146 2256 
1121 3405 2499 1047 5982 3566 3889 3882 4683 
5368 4086 5706 5314 4562 5202 3725 4464 4321 
3285 4761 5073 5732 4752 4373 4762 4106 5739 
5875 5052 6053 5318 3558 4209 5529 3922 6029 
5260 5229 5420 4719 5943 4954 5299 3586 5059 
4570 2984 5227 4703 3387 4682 5348 5759 5255 
4456 4000 3714 3773 4400 1743 3347 3464 3223 
5515 5178 5539 5409 3947 2782 4427 5804 6007 
3531 5026 5849 5366 3521 5794 4304 3738 4140 
6032 2853 5424 5811 5127 3021 4888 2916 4712 
5521 5718 4553 5426 5711 3403 5728 5220 5238 
5935 5266 5081 5261 4457 4509 3311 5586 5281 
5716 5014 4511 4308 4910 4095 5915 3335 3075 
3102 2222 3013 1659 3443 3324 2536 4013 1154 
2114 2843 2227 2453 3475 114 3794 4303 2216 
2698 4133 3308 3374 1998 3329 5927 4033 2787 
3883 4111 6058 5048 5736 4500 3141 3361 3804 
4179 5421 5219 3412 5964 5389 3009 4131 4846 
3920 4956 6001 4167 3578 5673 4604 4646 5858 
4800 4874 5909 4493 4257 5498 4430 5412 4083 
4496 4292 3160 3729 4355 5513 4518 876 3618 
2438 2602 2147 2108 3666 3807 1867 1633 2550 
1331 1670 2245 1905 3373 2603 1437 1885 1767 
2768 1698 1305 26 1347 1563 639 78 2013 
3022 998 978 2891 2605 2134 1451 3509 2617 
3975 2846 1705 3944 4143 4963 2811 2495 4663 
2112 1806 5522 3424 3670 2485 2882 2065 1664 
3708 4063 4847 3116 3555 5345 3349 3663 4890 
5723 3351 3337 4530 2773 2449 3493 3770 3577 
3372 2694 3508 3727 3591 1555 1292 4285 861 
416 190 4003 3147 1928 3213 1213 1651 1404 
2703 1585 1322 2322 1838 2532 1629 612 904 
2280 1374 309 1114 2156 1056 2488 1631 2392 
4909 2861 1949 3529 3758 3726 4668 3900 5050 
5040 3681 3040 5524 1901 3855 3071 4450 1360 
1204 315 1647 2069 42 1801 2336 2967 1840 
2435 1695 2277 700 1869 1367 2567 2721 4052 
4237 2652 1870 2038 1748 1676 1498 1873 1929 
1931 3684 3983 1994 1283 3016 2823 3079 929 
625 2039 1594 1699 1678 1166 2123 2214 2291 
3073 2247 2892 1842 2741 1338 1894 860 1281 
509 2125 1003 1517 712 116 3003 11 346 
125 783 847 999 1170 820 458 169 463 
70 775 1592 2518 33 447 980 1499 2960 
3413 2656 2805 3215 2653 3649 2304 4837 2217 
5090 3243 4205 4901 4872 4094 5007 4857 4842 
4789 3010 5084 4616 5560 4948 5200 4876 5422 
4714 4632 4781 4599 2237 1574 971 1160 2538 
1924 1739 2556 2175 3520 711 1004 1383 965 
2647 2093 481 2716 300 2003 716 1839 3778 
1409 2847 838 1447 1086 448 778 1963 648 
167 6 1368 1001 1824 182 3105 526 2086 
1319 566 1981 607 925 995 202 222 1155 
1714 1453 1979 617 908 882 443 699 1425 
141 585 290 1327 99 814 596 2354 1464 
1119 1500 2238 2436 2426 3755 4252 4346 3389 
2568 2923 3232 2692 3321 5541 2888 4932 5566 
5991 4314 5678 5633 4680 5781 4815 4885 5577 
5162 5300 5251 4536 4531 2491 1345 2477 2877 
2173 657 3607 1716 1746 1482 3085 1810 1366 
2233 2340 2127 3229 3231 2228 1235 2028 1911 
1387 2248 1586 1786 1927 1244 1276 25 1068 
898 891 2272 944 1058 327 982 2056 975 
193 1665 2083 65 419 830 269 488 106 
1316 1380 1208 37 1286 695 1054 2153 53 
489 1159 332 191 2455 2177 889 799 2572 
2027 3563 2978 3163 1844 2707 3686 4438 2849 
4964 3488 3951 4882 2957 3476 4715 2975 3420 
5600 5764 5155 5270 4234 5863 5176 5503 5831 
5787 5074 5652 5465 5075 5083 5649 5267 930 
2410 2469 2297 2611 1021 4254 2062 1710 1694 
3066 1945 2018 4125 1559 3251 4005 3473 2335 
1616 707 1258 2023 1348 1161 1356 1876 486 
2050 1273 2181 369 1444 1175 535 1734 769 
972 1620 1051 1412 892 450 815 1427 376 
1357 1422 283 697 340 845 465 1700 360 
1359 147 2862 2396 439 2619 2441 3117 1904 
1933 3070 2221 3256 4181 4911 2424 2526 2946 
2854 2592 5172 4543 3704 4653 4141 2893 3307 
4916 4506 3996 4390 4470 5989 4990 5572 5604 
5542 4477 5174 5574 5616 5749 5140 4046 2738 
3048 3939 4002 2490 2512 3588 3128 3641 2881 
2870 4940 2620 1953 1782 1450 1872 2099 3020 
1551 3685 2606 2744 3065 1590 2265 1598 567 
833 2696 1578 1723 442 2273 1643 1158 2296 
651 1843 1329 800 430 2032 144 1185 2073 
1260 516 21 518 2941 763 110 1653 1719 
655 2306 2527 3904 2395 3430 1173 2720 1941 
2826 4520 3002 2820 4001 4043 3457 1964 5925 
4119 5954 3310 5133 5519 4620 5752 4652 4300 
3275 4173 3950 4180 5009 5463 5285 5834 5892 
4307 3623 5821 4619 5161 3446 3184 3544 3542 
2974 2356 2691 3393 3915 3366 3153 2965 3837 
3246 2807 2987 3177 2686 2924 2928 2748 2977 
3501 1803 3410 2591 2781 3094 2311 3209 2545 
2983 482 2821 4334 1126 4184 1991 1916 1932 
2120 3581 2144 4126 3675 4135 4115 3779 4738 
4245 3810 5231 4199 5033 4953 3505 4651 5126 
4983 5742 4705 3848 5042 4850 5919 4487 4256 
5896 5430 5312 5931 3133 3210 3546 3579 3406 
3087 3162 3444 2242 3434 3427 3431 2352 2944 
3262 2789 3868 2676 3815 3399 3322 3514 3107 
1673 903 2962 3809 2117 2103 3038 4158 2794 
2708 2814 3805 3843 1662 1399 4995 3517 4082 
4583 5180 4019 4664 3367 2193 3551 2726 5296 
5621 3651 3998 4022 5213 3849 4582 4103 4411 
5768 6017 2645 5822 6040 5302 4501 5416 4775 
4315 3833 5724 6014 5055 6027 5856 3616 5852 
5167 2878 3326 4928 5827 5545 4896 4744 5904 
5584 4534 5241 5189 5932 2066 4586 5481 4465 
5303 5639 5093 4737 1128 4439 5949 5514 1650 
5740 3138 4647 5361 2628 3844 4756 4295 3671 
5359 3840 4409 4361 5972 2520 4153 4943 5243 
3415 5828 4875 2595 4471 5186 4939 4919 4433 
6047 2625 3539 3180 5957 3690 5775 4220 4358 
3731 2301 5719 5910 3030 5701 2524 5531 3172 
5696 5962 3692 3414 3932 4821 3454 361 5848 
5325 4339 4782 4935 3872 3479 3954 5322 5423 
5680 4347 5864 5665 3069 3359 4610 5730 4412 
2458 4541 3733 3451 2919 4440 497 3283 4554 
1365 2401 3981 5316 5256 5712 4364 5552 2381 
4811 3819 5823 3250 2131 3927 5839 5903 5377 
2566 953 5902 5959 5170 4099 4437 4527 5873 
5199 4462 6028 4156 2433 5205 3426 4659 2443 
4818 3456 5128 5206 5223 4367 4211 5948 3826 
3672 5188 3295 2800 2912 3375 3381 4101 3828 
3084 3019 2896 3957 4389 3192 3682 3057 5700 
4828 1751 3220 2998 2420 3459 1098 2666 2130 
3709 1721 2732 4382 986 2129 2257 871 2096 
2644 2598 5455 3088 5450 4633 4704 4025 4331 
6057 4980 2187 5245 4758 3602 4734 4271 5146 
5938 5837 5356 5216 5039 3621 3907 5397 5857 
2668 4858 3748 4989 4029 3987 3029 2079 3516 
5388 5446 4383 5840 3867 3772 2494 4540 5682 
3965 4378 4260 3506 3033 1995 3611 1639 2587 
4243 4219 1688 2747 3580 2711 2953 1434 2531 
1909 102 1315 2080 3219 1503 1686 1655 4478 
2959 3012 1799 2503 1708 1249 3323 1063 2842 
2739 3103 3136 2202 4114 2229 1612 2875 3677 
4630 2650 3857 4004 2971 3630 3154 2293 5086 
1917 868 2138 5030 5413 3945 5153 4222 5820 
5037 5715 2937 2831 2119 2309 2557 2225 2818 
2590 3673 2931 2859 4918 3634 2320 4665 3191 
2254 2763 2470 1111 2409 2298 2783 2382 3130 
4036 741 2082 2407 1408 977 212 696 2682 
1580 4384 1543 1298 1720 733 604 1405 1443 
150 2010 723 1685 787 187 1224 939 39 
1100 2051 3452 1754 2063 2406 1289 4239 5110 
4403 3317 5487 4685 4306 4298 2753 3518 4517 
4679 4370 4692 4807 4375 3328 4170 2838 1849 
1624 4241 2412 2200 3025 3104 2607 5533 3195 
2578 5750 1881 2994 2667 5677 2662 3358 1675 
1996 2468 2075 2529 2576 4407 2925 753 1375 
1772 2332 3524 1489 1604 1623 1880 1435 1811 
1355 1834 2504 1537 2207 1080 192 1549 285 
931 1683 750 1823 2058 1635 1575 686 237 
744 1050 180 1187 1997 1233 703 334 875 
1854 1314 2440 1669 2384 1059 1351 2817 4920 
2163 4816 1985 2908 3644 3503 4269 5006 2615 
4622 4913 5027 4824 3064 4204 5380 4702 4851 
5488 4614 2722 4725 4244 5022 1809 2658 4374 
2558 3893 3407 1800 4864 4250 2700 2680 3100 
3119 2801 3272 2171 3462 5876 3265 3401 2417 
2106 2372 2745 3139 1984 2966 2473 1936 1476 
2259 1337 1696 1133 624 1335 899 95 831 
1974 495 322 533 378 436 807 760 345 
1165 1143 1459 41 372 115 120 16 1149 
233 834 422 954 928 1265 3031 3239 1615 
2952 1475 4895 2679 5537 4117 4783 5476 3946 
4072 5518 3903 2279 3817 3440 6062 5658 4068 
5952 4845 4843 5582 5242 5850 5023 5143 5878 
4868 4730 2938 4675 4870 4557 3015 5011 4694 
5683 2481 2906 2836 3254 2212 2552 2963 1509 
3959 2762 2493 2761 2145 4498 3309 4132 2936 
4804 1104 586 692 1658 2616 3083 1866 644 
1893 1878 1124 771 505 1023 1202 623 1147 
2317 491 1494 1898 163 610 1573 705 2002 
877 137 326 1530 615 1389 1229 2484 1237 
1310 487 1796 342 259 4395 1106 1868 1328 
823 1951 2546 4113 2500 4387 2140 3526 3916 
1682 3376 5810 2713 5092 4772 5974 5047 5164 
4637 4435 3535 2845 4993 4445 4763 5108 5381 
3985 5254 1956 3046 6061 5257 4615 5284 4997 
5183 5544 5100 4431 5547 3617 3336 4053 3635 
3745 3838 3992 4559 4178 3293 3636 3151 2757 
1239 1448 3257 1703 4691 2561 2724 3750 2446 
3613 4089 3240 2442 87 3062 3157 3248 1524 
1395 273 246 1858 1122 1603 1577 1432 792 
3095 1835 2985 1541 593 1783 2795 2294 5099 
3339 2828 3705 2570 3646 4724 3480 2634 4887 
4852 4661 5479 4230 2660 6055 3740 5631 5731 
5884 4301 2367 4157 5585 5999 4163 5464 4442 
3990 5404 2942 3888 4402 4075 5825 5125 4112 
4155 3659 4507 4246 4946 3999 3583 4528 4608 
3652 5053 4854 4658 4091 3627 3698 2052 3165 
2993 3707 4418 3858 3193 5386 1012 3806 3041 
3173 3398 4453 2610 4613 4549 3304 2467 2373 
2798 4698 4098 2218 3400 3489 2868 2535 3584 
4198 3442 4693 2995 5721 5538 4394 5785 4503 
4641 5096 5916 3749 5911 5835 5674 5773 5095 
4460 5491 4978 4908 4959 4806 5158 3759 6030 
6036 4221 5860 3511 4519 3667 3599 2447 4999 
3340 3910 4341 4603 3279 4152 3661 3540 2797 
4352 2835 5549 4293 4933 5185 3719 4164 3512 
4190 3411 4635 5575 4748 4965 5758 3290 3288 
4617 4629 4108 3036 3919 5743 4474 5819 4034 
4899 5374 5331 4639 5757 5868 3643 6021 5032 
5694 5747 4687 4578 3306 3820 5685 5662 1396 
5944 5156 3568 4986 2416 3152 3974 3587 5385 
4312 4151 2649 3986 5610 3553 2638 4422 2014 
5592 4743 1540 5634 5672 4206 4123 6016 5085 
5526 5951 3737 1558 2609 5458 5436 3523 2890 
1865 5626 4406 5063 2208 4749 5045 3281 3847 
4969 2344 2714 4697 5440 5977 2988 745 3785 
4805 4326 3447 4195 3378 5659 2784 5005 2939 
5448 2434 4446 2422 5563 5489 3994 3846 5956 
1439 4042 2024 5486 5553 6010 5080 3948 4192 
4359 2632 5166 3873 4363 4357 4309 4784 4039 
4516 5208 5795 5859 2834 4766 5232 5441 4973 
5914 4410 3423 6020 3386 3955 1183 5382 3603 
3112 4977 6008 2803 3144 4563 788 3801 3417 
3385 5782 5390 4499 1847 4302 5395 3997 4585 
1774 4688 3781 6065 3120 4461 5924 131 1982 
5278 4350 4212 4147 1965 5478 4376 1737 3478 
3777 2419 5588 4454 3081 4320 3260 1474 4240 
3362 3494 2251 1461 3911 2837 3388 2860 3185 
3159 2815 3527 5333 5292 5853 5928 5115 3912 
4265 3134 5960 5619 4814 2827 5894 3091 5396 
5689 5579 3878 3355 2871 3273 5258 3001 5714 
3605 4420 2282 5889 5034 3783 1042 5209 2872 
2489 3564 5979 1660 5867 2287 1062 3026 2506 
3270 2128 1256 2450 3217 2376 2770 3035 1871 
3550 3486 2951 2431 1382 3342 2982 3297 2107 
2688 3784 2365 4055 4448 3238 4745 2337 3161 
2822 4722 2505 2780 4276 2719 5824 2474 5687 
4521 2581 1370 5609 2989 6041 4860 3211 3800 
3831 4819 3318 2917 1726 5676 1863 5611 3637 
4672 2792 2604 5799 2307 5789 1889 2168 1808 
5341 2414 5805 3202 3277 2176 2540 1940 2194 
3280 1470 777 5035 2198 2355 2174 2230 884 
642 1895 1506 58 1137 1242 2640 1935 2480 
1377 2767 255 2025 947 2343 3296 2910 2219 
2958 2054 2369 2813 3570 3798 4597 5968 4727 
4078 5070 4512 2968 5315 3391 3962 3469 6050 
4436 4330 3626 5393 4780 5641 5769 5400 2483 
4992 5462 3271 5865 5593 5772 5490 3569 5803 
5601 5028 2873 2046 5111 2562 3648 1222 5874 
5570 3864 5898 4397 2368 4981 3224 2004 4979 
3917 5058 5141 2196 1384 1326 2743 3547 2390 
1468 2421 260 1485 240 1900 454 317 1836 
1153 1084 272 846 1217 1035 186 197 1312 
119 24 4343 1455 1983 1813 743 1825 2342 
941 1081 1442 5121 5802 3263 2964 3282 4274 
3742 1830 4081 4458 4944 5965 4329 5362 4923 
4515 4398 3824 5830 4289 4497 5806 5551 3477 
4931 5729 5722 4342 5756 3956 6018 3812 5578 
1793 3302 5335 2671 4210 3438 3428 5456 5277 
5598 5568 5602 3422 5912 2321 3561 3175 3598 
4580 3942 2244 595 693 2482 2779 5354 556 
151 225 1125 475 1822 813 1264 5 1567 
880 946 52 424 79 2725 1033 776 1602 
409 494 1303 2903 1508 4404 510 2370 3700 
2031 4162 5866 5587 5807 3171 4144 4538 2525 
220 4934 3940 5323 5703 3589 5933 2333 3429 
3870 5004 3906 5501 5836 5403 5439 2165 3289 
5112 6038 3973 1778 4754 3905 2710 3267 2769 
3830 5159 4058 5872 3090 4751 1513 1833 2899 
2226 2399 3894 5946 3252 36 84 2377 1892 
503 1250 2790 1040 722 832 355 1150 1478 
1014 1952 457 414 901 668 159 888 199 
2053 690 1407 1852 2509 2152 854 157 3976 
2904 2275 3537 1402 704 3051 3716 3200 3835 
1263 3640 5427 5520 2029 5443 232 4194 5958 
4972 4522 5337 5214 5817 6056 264 5330 1717 
5301 4324 3664 4710 5089 5353 5642 5704 3024 
4016 2670 5157 3274 3565 3470 1553 4062 3377 