# vtk DataFile Version 4.2
Generated by LIGGGHTS
ASCII
DATASET POLYDATA
POINTS 6000 float
0.0386069 0.022949 0.00495653 -0.023678 -0.0381841 0.00733075 -0.0172549 -0.0415488 0.00440327 
-0.0160958 -0.0380047 0.00692554 -0.0128787 -0.0430034 0.00736399 -0.00845107 -0.0440187 0.00685169 
-0.00995014 -0.0402828 0.00715824 -0.00712342 -0.0374583 0.00638715 -0.00522474 -0.0412355 0.00696665 
-0.00287002 -0.0378408 0.00541924 0.000718156 -0.0412919 0.00750263 -0.0015258 -0.0449344 0.00816608 
0.00251044 -0.044909 0.00835124 0.0049435 -0.040713 0.007807 0.00906921 -0.0383107 0.0065506 
0.00652104 -0.0444777 0.00856246 0.0100667 -0.0438392 0.00644945 0.0129237 -0.0411601 0.00733343 
0.0165004 -0.0385339 0.00725565 0.0236537 -0.0381656 0.00606761 -0.0333886 -0.0298217 0.00409086 
-0.0307702 -0.0327518 0.00609409 -0.027184 -0.0357717 0.00648757 -0.0232153 -0.0343961 0.00596336 
-0.0269628 -0.0315945 0.00702621 -0.0227069 -0.0304215 0.00701882 -0.0199608 -0.0366878 0.00761847 
-0.0194989 -0.0327339 0.00627878 -0.0156374 -0.0320426 0.00736011 -0.0119346 -0.0316079 0.00588333 
-0.00841361 -0.0333722 0.00659223 -0.0111727 -0.0362255 0.00710947 -0.00563991 -0.0292403 0.00687527 
-0.00471111 -0.0329803 0.00807115 -0.00159098 -0.0305177 0.00727525 -0.00107335 -0.0344947 0.00717857 
0.00177217 -0.0321855 0.00532818 0.00256088 -0.0364372 0.00665276 0.00675574 -0.0325056 0.00631149 
0.00627709 -0.0360021 0.0082473 0.010542 -0.0335313 0.00806152 0.00437999 -0.02928 0.00634542 
0.0137064 -0.0311877 0.00672818 0.0159746 -0.034455 0.00725043 0.0129131 -0.0369236 0.00803984 
0.017422 -0.0296546 0.00636618 0.0191965 -0.032521 0.00863009 0.0198445 -0.0361789 0.0068476 
0.0267653 -0.0311513 0.00692192 0.0233026 -0.034086 0.00709727 0.0228249 -0.030201 0.00846664 
0.0271617 -0.0356812 0.00589144 0.0307861 -0.0327926 0.00656263 0.0336984 -0.0296281 0.00814592 
-0.0393117 -0.0215163 0.00599605 -0.0294609 -0.0285744 0.00427496 -0.0338534 -0.0229472 0.00494655 
-0.0357174 -0.0264893 0.00521284 -0.0312622 -0.0269146 0.0075908 -0.0251598 -0.0274443 0.00482983 
-0.0276661 -0.0250881 0.00775314 -0.0239173 -0.0234272 0.00702889 -0.0222517 -0.0269031 0.00886992 
-0.018613 -0.0285048 0.00613589 -0.0159172 -0.0241558 0.00685324 -0.0146607 -0.0281168 0.00734102 
-0.0199904 -0.023657 0.00789817 -0.010863 -0.0209642 0.00664289 -0.00807047 -0.0251058 0.00588378 
-0.00962998 -0.0286794 0.00735581 -0.0120272 -0.0250881 0.00687031 -0.00488275 -0.0226749 0.00628727 
0.000504106 -0.0279555 0.00495093 -0.00306133 -0.0262759 0.00599977 -0.00124857 -0.0231473 0.0079303 
0.00265726 -0.0245911 0.00530845 0.00676187 -0.024439 0.00581617 0.00824518 -0.0281264 0.00652796 
0.0103929 -0.0239084 0.00746063 0.0141374 -0.023283 0.0057338 0.0121801 -0.0273956 0.00661912 
0.0159373 -0.0262692 0.00790845 0.018172 -0.0227044 0.00694948 0.0247122 -0.0284853 0.00465428 
0.0228971 -0.0237202 0.00484773 0.0280145 -0.0209265 0.00432423 0.0209081 -0.0268121 0.00750741 
0.0257122 -0.0238023 0.00855968 0.0289685 -0.0250658 0.00412231 0.0349245 -0.0273437 0.00508106 
0.0303173 -0.0285323 0.00584253 0.0325896 -0.0223378 0.00532863 0.0330047 -0.025382 0.00807545 
0.0367865 -0.0237225 0.0081053 0.0377774 -0.0242522 0.0040484 -0.0386382 -0.0150277 0.0055587 
-0.0423698 -0.0141179 0.00760926 -0.0412306 -0.0180112 0.00764934 -0.0353285 -0.0187499 0.00717714 
-0.0307476 -0.0201711 0.00566637 -0.0292703 -0.0129497 0.00430043 -0.0260932 -0.0160272 0.00729135 
-0.0258308 -0.0200226 0.00600164 -0.0286902 -0.0188749 0.00892189 -0.0215694 -0.0205211 0.00543722 
-0.0175924 -0.0203802 0.0070709 -0.0195011 -0.0167316 0.00646891 -0.0198059 -0.0126915 0.00672742 
-0.0145231 -0.0182336 0.00553161 -0.0126432 -0.0149723 0.00706111 -0.0156713 -0.0125396 0.00599779 
-0.0084035 -0.0151709 0.00559423 -0.00711636 -0.019371 0.00588977 -0.00277678 -0.0193634 0.00706176 
0.000299796 -0.0167796 0.00713173 -0.000522714 -0.0128117 0.00689828 0.00291923 -0.0204501 0.00576521 
0.00429723 -0.0168023 0.00674383 0.00700308 -0.0203436 0.00627358 0.00843167 -0.0165067 0.00613739 
0.00419946 -0.0127088 0.00602345 0.0110662 -0.0195901 0.00722383 0.0161292 -0.0149416 0.00475692 
0.0197229 -0.0184835 0.00445107 0.0123686 -0.0158145 0.00653113 0.0151043 -0.0194174 0.00640964 
0.0197487 -0.0131554 0.0050547 0.024574 -0.0170627 0.00433083 0.0244957 -0.0203312 0.00675072 
0.0232841 -0.0163401 0.00807524 0.0203425 -0.01917 0.00864043 0.0273149 -0.0170164 0.00860371 
0.02704 -0.0128206 0.00664291 0.0310314 -0.0182926 0.00478715 0.0309286 -0.0136319 0.004251 
0.0367091 -0.0172886 0.00425255 0.034247 -0.0143633 0.00773947 0.0360942 -0.0197833 0.00744055 
0.0397947 -0.0207125 0.00401084 0.0379695 -0.0132045 0.00469279 0.0411478 -0.0157471 0.00578232 
0.0402319 -0.0190257 0.00847872 -0.0432023 -0.0105036 0.00421027 -0.0384658 -0.0101737 0.00430904 
-0.0433923 -0.0067481 0.00637946 -0.0399067 -0.00856433 0.00808263 -0.0354567 -0.00908259 0.00732461 
-0.0331182 -0.0119812 0.00537646 -0.0315763 -0.00734793 0.00586724 -0.0340286 -0.00433073 0.00823098 
-0.0279643 -0.00853067 0.00441313 -0.0245296 -0.00639015 0.00466072 -0.0221097 -0.00995326 0.00433927 
-0.0255382 -0.0110691 0.00631643 -0.0268027 -0.00472594 0.00765127 -0.0178963 -0.0086871 0.00542674 
-0.0205503 -0.00567942 0.00570089 -0.0172014 -0.00579793 0.00849415 -0.0141911 -0.00883545 0.00693449 
-0.0102815 -0.00855456 0.00538654 -0.00831881 -0.00499382 0.00618774 -0.00767991 -0.0114071 0.00842854 
-0.00570934 -0.00801972 0.00744264 -0.00502969 -0.00422222 0.00865808 -0.00144443 -0.00792837 0.00560096 
0.00182753 -0.00957579 0.00749196 0.0038833 -0.00692305 0.00505552 0.00826465 -0.0121567 0.00601892 
0.00922311 -0.00826956 0.00578834 0.0058338 -0.00906398 0.0078623 0.0067507 -0.00516509 0.00761419 
0.0128216 -0.00615419 0.00502252 0.0201854 -0.00903554 0.0048995 0.012286 -0.0117893 0.00553387 
0.0164347 -0.0105669 0.00547926 0.0163916 -0.00669649 0.00693666 0.0194177 -0.00473843 0.00510481 
0.0236203 -0.0119459 0.00446041 0.0244568 -0.00685906 0.00593542 0.0227525 -0.00990039 0.00833653 
0.0343163 -0.0073182 0.00477236 0.0301863 -0.00921954 0.00451542 0.0350492 -0.0104163 0.0072222 
0.029615 -0.0100387 0.00840841 0.0296018 -0.00500585 0.00801667 0.0443473 -0.00682629 0.00422892 
0.0390567 -0.00553911 0.00407616 0.0401164 -0.00952625 0.00406957 0.0432538 -0.012346 0.00533326 
0.0442624 -0.00817034 0.00821721 0.0368774 -0.00684792 0.00783846 0.0397421 -0.00987677 0.00817683 
-0.040757 0.00315227 0.00462812 -0.0411681 -0.00133823 0.00436563 -0.0374467 0.000908125 0.00403531 
-0.0415633 -0.00347597 0.00836709 -0.0447089 -0.000867922 0.0078295 -0.0414815 0.00148921 0.00887518 
-0.0374167 -0.00276627 0.00566962 -0.0339287 -0.000814094 0.00610122 -0.0307642 0.00135363 0.00802849 
-0.0303396 -0.00290974 0.00673387 -0.0337177 0.00343022 0.00578719 -0.0242699 0.00165533 0.00619666 
-0.0233918 -0.00252733 0.00633299 -0.0269708 -0.000580431 0.00822495 -0.0273946 0.00374228 0.00765778 
-0.018208 -0.00250405 0.00439923 -0.017394 0.00224063 0.00479007 -0.0203777 0.000439924 0.0069773 
-0.0146821 -0.0040984 0.00550432 -0.016866 -0.000492277 0.00874618 -0.0139052 0.000583828 0.00621578 
-0.00587239 0.00294426 0.00506579 -0.0112938 -0.00239536 0.00718797 -0.010026 0.00158594 0.00606187 
-0.00711352 -0.000943903 0.00727348 -0.00175662 0.00338805 0.00503176 -0.00339219 -0.000337497 0.005758 
-0.00159988 -0.00384386 0.00646696 0.000476014 0.000175072 0.00787149 0.00254448 -0.0033374 0.00622954 
0.00339835 0.000629635 0.00515149 0.00628547 -0.00290355 0.00434921 0.00748029 0.000892364 0.00492808 
0.0111564 -0.000681837 0.00433185 0.00566923 0.00275357 0.00806871 0.0101477 -0.00294646 0.00774124 
0.010352 0.0021785 0.00745798 0.0161791 -0.000213185 0.00403926 0.0126874 0.0030443 0.00428588 
0.0168515 0.00350233 0.00553924 0.0144929 -0.00199313 0.00726264 0.0231575 -0.00358108 0.00404018 
0.0207107 0.00322072 0.00400406 0.0255457 -0.00015656 0.00412895 0.0200962 -0.000446999 0.00554778 
0.0228984 -0.00258256 0.00814551 0.0255022 0.000494751 0.00814261 0.033858 -0.00272389 0.00452123 
0.0362732 0.000897035 0.00404383 0.0321822 0.00183963 0.00482226 0.0306923 -0.00125899 0.00696211 
0.035729 0.00213472 0.00790043 0.0353133 -0.00254763 0.00822458 0.044276 0.00018486 0.00403003 
0.0390563 -0.00171926 0.00653144 0.0446711 -0.00261267 0.00709299 0.0447324 0.00169365 0.0078219 
0.0400406 0.00214843 0.0064556 -0.0411828 0.00570555 0.00815713 -0.0380261 0.00810296 0.00731623 
-0.0435764 0.0100081 0.0059655 -0.034229 0.00761747 0.00609326 -0.0309625 0.00978661 0.00756478 
-0.0306768 0.00586081 0.00676845 -0.0210067 0.00411026 0.00502407 -0.0244895 0.00626673 0.00537592 
-0.0249641 0.0100509 0.00731676 -0.0213164 0.00799704 0.0074367 -0.0280834 0.0122025 0.00603758 
-0.0214769 0.0119464 0.00552247 -0.0175677 0.00633997 0.00556713 -0.0177213 0.0103575 0.0053246 
-0.0147351 0.00867564 0.00742402 -0.0130492 0.00503597 0.00612547 -0.00746134 0.00933001 0.00489615 
-0.00888507 0.00548168 0.00619639 -0.0107486 0.00891719 0.00713865 -0.00375308 0.00718157 0.00511461 
0.00155279 0.00938429 0.00420793 -0.00163714 0.0108335 0.00615277 0.000829933 0.00821986 0.00798335 
0.00206752 0.00433666 0.00651981 0.00547826 0.0110073 0.00398425 0.00902223 0.00908539 0.00446227 
0.00470475 0.00709852 0.00525901 0.00849875 0.00533436 0.00574874 0.00758609 0.00906912 0.00820046 
0.00393463 0.0108173 0.00868892 0.0112817 0.0106953 0.00766065 0.0134534 0.0107494 0.00397834 
0.0176862 0.00739963 0.00481928 0.0123413 0.00697882 0.00520556 0.0160237 0.0102251 0.00725748 
0.0150514 0.00617244 0.0081356 0.0284106 0.0116168 0.00406415 0.0225809 0.00640632 0.0056072 
0.020821 0.0106952 0.00570717 0.0256761 0.00890607 0.00540435 0.0245598 0.0114907 0.00832221 
0.0262795 0.00424809 0.00699031 0.0292263 0.00449873 0.00423349 0.0345639 0.00829895 0.00412186 
0.0300784 0.00824301 0.00557005 0.0312486 0.00666422 0.00905115 0.0369633 0.00565276 0.00609481 
0.0320005 0.0116042 0.00738751 0.0361868 0.0107946 0.00875195 0.0447191 0.00455599 0.00475278 
[...]
POINT_DATA 6000
FIELD FieldData 7
id 1 6000 int
417 3586 3313 1837 3387 4682 3984 18 2261 
2148 34 1659 4737 3324 5322 3335 302 2536 
3479 1874 679 143 6059 5529 1152 774 1333 
1123 4570 350 1013 2020 654 4405 2358 1088 
1539 1891 426 2310 2612 209 2222 3954 1650 
403 2453 1154 3709 1397 2905 5730 4412 2666 
5420 4719 3710 473 5097 6053 126 3933 2339 
5304 396 2626 1065 3913 257 1354 178 1584 
1129 5586 938 1631 1607 1767 1236 2114 1347 
3753 1698 2251 2768 2331 3040 1563 3359 2227 
4610 1687 2136 1901 2013 4249 5684 4388 6043 
4088 5298 4284 2329 5500 1630 738 5181 247 
274 694 858 432 1732 477 582 383 1600 
408 664 1576 341 1228 459 496 208 576 
2857 4867 78 4139 2517 2392 4032 181 4810 
3585 3010 5040 2560 4678 3101 4789 4371 4060 
2418 4600 3534 5929 5265 49 988 4080 364 
5846 402 2810 165 118 1440 214 616 1512 
440 565 91 338 1046 575 2555 1637 245 
797 2844 2704 2659 3245 1526 4883 2629 2961 
5495 3793 2290 4592 5583 3552 60 2731 4188 
3530 3432 175 62 3938 1741 4074 4569 4777 
4362 720 3453 1619 502 2867 660 935 1307 
640 1171 377 758 98 368 164 217 508 
659 390 275 864 76 1362 1272 211 1182 
551 1738 3595 2911 1195 2915 2182 1855 2709 
2523 3408 399 2633 4035 2393 3747 2940 160 
3368 1907 2111 6006 4258 4667 2737 537 3098 
292 1371 529 870 2109 1011 517 171 30 
857 1108 840 1709 153 513 306 1645 266 
983 560 2631 1471 2879 1010 381 61 524 
490 1969 1749 1168 530 2325 874 2077 1325 
620 4391 2665 2543 3409 4591 4392 446 1306 
15 3226 3369 3082 2515 3908 1017 611 421 
2510 2094 48 762 2863 88 1628 441 1570 
236 1534 2778 590 1304 1180 1246 1070 129 
1913 795 420 851 1490 853 456 200 194 
1005 766 298 2403 1514 1069 940 572 127 
3028 258 2151 1136 3665 4176 4926 40 2289 
4513 4381 3316 4573 2514 1308 1627 2549 2699 
1060 1311 427 1269 2326 1944 647 1424 1421 
680 1528 3600 3068 1300 1887 900 1215 1267 
1798 100 3662 2398 418 1034 1378 2400 2262 
1724 132 927 1320 133 2519 663 1991 387 
4245 2283 1679 31 4690 2161 2825 3396 1520 
1818 2589 961 3963 5982 1807 5367 3566 4307 
5272 4480 2869 229 1713 549 483 887 3087 
2071 2900 1648 1614 3005 3189 2383 1024 242 
1673 92 2583 2895 1816 1805 2501 2341 993 
687 1689 2852 1188 863 1791 3463 3038 1164 
819 1906 1211 86 601 5296 1146 2884 4360 
910 3889 5419 4019 5184 546 1535 1047 1225 
412 2593 2655 2249 2462 2258 3023 2454 5819 
4965 2708 2352 540 903 299 13 895 2751 
3107 3762 2064 367 1399 1851 4995 2799 637 
2116 357 2962 5180 3212 5260 3421 313 3032 
5943 5759 4456 6027 5081 5932 5701 3039 2569 
374 4744 5639 1128 2984 4896 5014 4439 5093 
4465 4000 361 3120 4446 4206 2014 4534 5592 
5325 2066 4123 5949 5962 1439 4322 5085 5514 
5672 3714 5423 2609 4782 5605 5740 6010 1558 
4357 6037 5052 5573 2427 5739 5229 3216 5318 
5663 4209 2008 4106 5059 3702 2623 3006 5856 
4689 5852 4954 3230 4509 5255 3075 5303 4703 
2746 5584 4308 5711 5189 3692 5848 3172 5281 
5348 5915 1939 628 4821 2422 5665 2843 3373 
4359 3375 3102 4935 5864 3781 3414 470 5478 
3957 2037 3013 3069 3948 4013 2732 5166 1098 
4240 5297 4006 3521 3558 5695 4321 5794 4267 
3825 4970 3892 3923 5451 4353 985 4304 3576 
5718 1914 3549 2135 216 747 5299 2542 4888 
5936 81 3311 1184 5238 4511 2524 5716 5261 
4910 3443 2550 241 1707 3932 4095 5188 3872 
1955 1352 1730 1331 4376 2603 5700 4339 4389 
5278 2896 609 2754 3459 5680 1905 2998 3220 
4320 2982 3136 1721 2420 3260 4382 3777 1636 
986 2922 3726 3022 2505 2650 2129 1612 2257 
5346 5402 4026 5106 4365 4853 4128 531 1962 
528 4649 5557 4982 4174 5372 4892 5224 606 
435 4553 1145 706 5043 248 917 614 73 
3059 371 1318 4741 1930 876 629 1372 515 
520 437 2585 2930 1853 401 1015 682 1632 
2147 2602 737 1633 1045 1221 1568 886 726 
1828 2236 881 1437 1670 639 1886 1885 997 
904 26 1063 2156 3103 2861 3071 1305 2130 
3758 3681 2229 2842 44 2739 4616 4837 3855 
4159 4114 3469 2968 5524 2875 2579 3677 4004 
2780 3455 4087 5217 1546 525 4124 2122 4590 
471 3 3416 710 5194 38 281 5645 4602 
2920 2775 3961 3008 3791 251 4605 2460 123 
235 522 843 3298 1861 987 223 35 411 
337 732 1189 392 781 282 558 455 801 
1038 2580 909 29 1472 964 238 1027 1259 
1802 1829 308 734 210 1284 2654 1446 1910 
1711 1043 1466 400 1832 569 4191 3045 267 
5135 4280 2897 2217 1056 3413 4452 1374 5090 
2999 3900 1949 4205 4857 4872 3988 5560 4909 
5007 4668 4517 5050 3017 4948 1961 4138 4450 
5422 4630 4714 4306 4807 2206 452 268 1691 
2586 3471 574 4202 3968 1 3269 71 842 
2537 2850 789 170 1141 329 1883 519 810 
221 297 444 507 1542 2 673 365 1684 
410 352 942 301 1232 188 354 1219 725 
602 548 951 1257 173 47 545 1214 1438 
379 198 598 641 3851 580 2793 666 2960 
1511 124 1819 1958 149 2600 2635 1693 742 
4227 5664 4459 2436 3321 4711 2220 2705 5084 
658 2081 3859 5566 3993 2955 3166 5815 5726 
343 3466 3243 5541 2950 5200 636 4680 5781 
4781 5577 4876 117 638 1449 252 1093 1445 
1376 316 1078 500 234 63 552 1074 466 
622 1456 1401 1044 474 468 550 1458 145 
678 822 75 1139 434 1562 136 812 1095 
748 1243 380 1436 1491 635 1369 890 1066 
538 366 667 388 532 1560 177 1287 867 
1339 619 1747 1271 1103 634 286 523 142 
323 1118 1792 1536 2574 1192 2776 3099 325 
4571 23 2511 3126 433 2530 674 1487 362 
476 2132 3436 373 1750 1317 2324 1564 3058 
1077 3822 1970 828 970 1762 1621 4470 4881 
4482 3967 3364 3545 2618 4791 5863 5542 2327 
107 1419 2113 2423 1240 2990 1934 2452 1523 
2478 1790 330 2292 1072 2263 2663 397 906 
45 353 740 1462 1525 984 2459 963 166 
1218 952 1850 1016 896 1177 2167 1223 701 
1420 865 1400 43 311 849 348 1527 328 
559 937 1654 231 472 122 385 1817 1000 
279 1398 431 1186 1388 603 4606 1864 3356 
688 809 3625 729 461 2764 3780 4100 862 
5454 2475 3491 1429 5752 5103 3052 4348 4345 
5218 2588 3590 4335 189 5463 3615 3186 5512 
3980 4865 413 5989 3536 5150 3327 4671 1757 
1606 1770 2385 3110 2636 1039 2366 2104 916 
484 2022 1611 1426 2328 162 3399 1959 2015 
3201 1052 2691 2781 656 1037 1642 1667 1831 
4184 2095 1126 3815 1923 859 3581 67 319 
1556 518 1167 676 4135 27 121 305 924 
1538 2404 3779 3614 521 2299 4268 2972 2622 
4115 4394 4953 2820 826 4057 3405 2463 5231 
3647 5674 4069 3551 5742 3848 6025 2788 2499 
5042 5133 4180 5404 5430 5417 5009 5460 3888 
6030 3950 5821 2097 3162 893 3093 2302 55 
2944 146 2687 3444 4352 2686 2987 5185 2642 
3089 950 2311 2789 4334 4293 4453 2729 4933 
2345 2120 3431 3868 5575 4098 4190 1932 3304 
4701 2814 5855 2117 2197 3843 4583 254 2868 
4915 5082 5538 4198 811 4264 4664 3036 5621 
5916 5911 4651 2256 3367 1028 3810 4983 5919 
5126 5287 5835 4199 288 3998 4487 4705 4256 
5491 5158 5896 1121 4850 5312 5931 2266 3427 
3322 2676 2103 4748 2797 3898 4526 3809 3805 
3514 4158 3512 3719 6063 4077 5758 4474 2683 
2235 4164 2794 478 4108 5615 3290 3411 3288 
4489 5743 3919 4034 4629 4082 4899 5032 5987 
6021 5897 3517 4617 4639 5868 5374 2726 1662 
5773 2193 3922 5302 2645 3616 5904 4501 5724 
2878 5827 4315 3568 5662 5545 5227 5241 3326 
4312 5156 5481 4986 3325 3986 2939 1540 4042 
4586 3737 5005 1771 5944 2508 5385 5710 4136 
2886 4422 2864 4743 4326 4399 5203 1777 3553 
5364 3706 5526 5486 4581 4347 4567 3507 3285 
5358 5732 5202 4752 4939 4775 4373 5768 5977 
4411 6040 2625 5822 5728 4928 5134 6029 3731 
5055 3833 5167 4969 5186 3447 5957 5328 4220 
3587 745 4151 2434 2784 3378 4195 4805 5696 
2638 3846 5956 5563 1774 3801 3991 3997 1323 
4565 4147 5499 1982 3350 3994 5024 4461 6065 
5813 5192 113 4674 3081 1737 5588 1087 2284 
855 2159 3362 3873 4363 4309 2688 1293 4212 
5634 5951 5886 5373 5890 2553 3882 4447 4761 
5706 5536 3725 3347 4086 4427 3531 5804 4153 
5875 4762 5105 6032 3738 5424 5483 4140 4131 
3021 5811 3690 5426 5127 3539 4956 4433 2301 
3030 5935 5948 3295 5266 5910 5719 5223 4358 
5659 3454 5531 3807 3381 5489 1965 3019 2245 
4828 2711 3672 2770 3478 1871 2107 2355 2840 
1655 2431 2337 3161 485 4350 1751 5061 3712 
1242 2822 2860 3185 4893 4924 5147 3494 3548 
1845 4849 4276 3388 994 5363 20 3668 4272 
5124 4484 4709 5808 5691 6045 3723 3949 4122 
4746 5282 5290 2916 2001 5521 5913 4556 3804 
3741 2303 1765 2740 512 4712 6012 4638 303 
5705 4598 4747 3841 708 3160 3688 5412 5220 
5498 3403 4457 4496 4257 2800 1550 2785 3826 
4101 3666 4355 3828 3057 3682 2108 1867 3342 
3192 2912 2531 2703 3084 102 4478 2959 1686 
2480 1249 1909 1315 3035 3798 3323 2202 2379 
4448 2503 2958 2365 72 5393 4722 4298 5182 
4628 3297 4078 2934 4727 4436 4512 3626 4780 
3481 5315 2719 4768 3208 1903 3382 4718 4073 
3839 4942 3827 135 270 4434 1668 139 1787 
5504 3418 918 969 2809 3834 652 1652 3492 
339 626 204 791 314 1406 2213 5049 848 
852 215 2232 28 727 662 5384 291 3379 
85 156 4263 3732 1148 1091 284 894 324 
1092 1766 1403 581 296 1194 1968 94 2438 
1200 698 612 981 309 19 1651 1585 1322 
463 3529 2334 2280 2488 3649 2406 3012 2656 
1114 1708 4685 5110 1799 3317 2753 3296 4094 
4239 4745 3570 4403 3238 3391 3518 4597 4614 
5968 5641 4458 3328 4375 4692 4170 3962 4851 
6050 1715 1846 2513 1277 850 948 1031 2101 
32 358 1294 1053 767 902 2677 244 773 
2036 2444 684 2346 2894 265 825 713 69 
498 1055 979 3137 152 307 1191 333 568 
1203 1135 1097 64 818 605 841 555 1138 
104 785 921 161 256 445 645 677 1516 
384 630 83 480 805 492 669 675 50 
2274 207 1671 672 2534 395 438 2521 4252 
4932 4020 2646 2805 2888 4377 4346 3488 618 
2568 5991 2975 4901 5006 5633 4913 2692 3389 
4816 3064 4842 5487 5678 4269 2615 5952 4622 
5027 4599 4632 5300 4679 4815 4370 5162 4885 
5380 4536 5251 4531 4702 4725 278 1261 976 
1115 499 2338 2477 1776 1588 649 869 1706 
608 66 691 2062 1336 2428 1021 1163 1071 
17 646 1022 957 1172 926 96 184 479 
1561 2439 591 1216 393 671 1626 1002 196 
130 1465 280 105 1206 724 564 359 879 
798 57 227 1888 1075 3597 553 134 344 
453 592 3218 3106 3909 2315 2100 2528 9 
2996 4438 4105 5600 2067 4154 3704 5259 5572 
5226 3420 4390 5155 4314 5270 4993 5787 5176 
4197 5465 3503 5764 5083 4068 5658 5503 5934 
5652 5074 5075 5831 5878 5649 4868 4730 2059 
2883 3588 2118 2432 4002 2490 3184 2363 1505 
1722 1782 885 1694 2512 2356 1872 1288 2389 
1605 1334 1450 2265 2807 2190 721 3094 310 
1727 1340 2273 1843 2928 715 514 250 1099 
1480 1385 2497 907 451 347 587 2941 681 
1916 2142 2241 3904 370 1481 1226 1510 1718 
2395 756 806 1162 3929 1579 1957 3310 2695 
2980 3816 2830 5981 536 4045 4652 4543 5925 
5431 3275 4653 3996 4620 4141 4990 5108 3985 
4445 1390 5285 5140 5616 5023 4234 5892 5284 
5381 4699 5174 5267 4477 5749 4615 5574 4870 
1859 3210 3544 2264 3353 1768 3915 3305 2748 
3434 2099 3579 2591 2105 3020 2577 3340 3262 
2821 3177 1803 2924 3546 1531 3398 4126 3209 
2545 516 482 1653 3675 2073 4584 2527 1941 
3442 2144 2306 3400 3502 2535 4738 1299 4693 
3584 5099 5721 5096 2467 4673 3457 2720 3749 
4119 5785 4460 3480 3505 4852 5033 4173 4887 
5884 4157 3740 5631 5698 4012 4300 5731 2367 
4163 1956 4442 5625 5922 5438 3133 3623 5834 
3291 5464 5100 5604 4402 4224 5161 4619 5125 
2974 583 3393 3661 2447 2242 3406 5780 3775 
4270 4655 3433 5549 5066 3540 5496 3041 5973 
4351 3357 2057 3334 3249 2760 2995 4798 5881 
2727 4169 5173 4118 4485 5569 3460 2889 5969 
5485 5321 4056 1473 2777 5558 5094 1763 5812 
3979 2976 2047 3582 4861 4978 4503 2907 4641 
5921 3266 4203 2402 4959 5123 3925 4175 5999 
5640 5095 4908 4579 5832 3952 4266 4332 6036 
4221 2942 5860 4736 4277 3594 4635 5984 2902 
6046 4317 5550 5139 5986 5119 3850 4432 5104 
5543 5447 5351 3383 4354 5234 3333 6000 5342 
5392 5193 4596 5248 2979 2880 5249 1857 1609 
4839 2723 4813 5757 4349 5473 5079 3918 5252 
5113 6052 3562 5843 4806 3656 5331 3651 5694 
5994 3865 3643 5225 3759 4011 5407 5213 5685 
4687 6014 5416 3974 4984 3306 5556 4134 3338 
4297 2522 932 5841 2386 5565 5528 5668 3152 
3820 1363 2268 4127 4829 5610 5561 3795 4031 
5452 1030 5138 3799 3515 5365 6016 2226 2416 
6064 2300 4561 4238 3703 5391 1940 2199 4502 
1690 1937 5891 2649 2430 3881 504 4695 4988 
2042 5073 4582 3849 5828 3847 6017 4103 3180 
4361 1396 5458 4471 2344 2078 4809 1020 1680 
6023 3054 5347 4749 3390 1417 3785 1062 3345 
5244 5013 2195 5607 5442 4880 5222 5908 1199 
4451 2874 3461 2316 131 1601 2728 4424 6048 
3874 2043 5686 3255 3771 4380 2024 5555 4021 
4627 2767 2943 3425 3942 5294 3776 4228 1764 
2496 5327 4636 571 1825 796 3435 1736 4226 
1361 3223 4683 4017 3464 5314 6007 4464 5515 
5368 5026 5539 4544 4562 5823 4919 6047 3699 
6001 2853 4943 3415 4875 5421 5366 6008 2433 
4697 4462 3281 6004 4156 4723 4721 5959 5382 
5564 5448 5775 5440 1565 3426 2988 788 1392 
5873 5395 1847 3456 5390 5782 4818 3385 5209 
4726 2443 4585 3611 1646 5979 3219 2587 4302 
1992 2506 4499 3606 4165 39 4904 1697 5707 
723 5650 2184 3270 2450 1820 5995 3632 4879 
1493 1935 1755 6060 317 4784 2613 4486 2362 
579 2026 4759 2954 1084 2758 5918 1760 4466 
3730 4303 3449 5760 3124 2216 3329 4400 3869 
4740 3653 3129 2787 3935 5406 3308 3883 5048 
5243 3315 4700 3397 4229 5833 4469 2639 4179 
3227 5163 4290 5909 4187 5170 2969 4604 3982 
4800 4430 4646 5513 3578 3920 4493 4211 4367 
4518 4292 5205 3729 5206 3580 1838 2747 5128 
3147 2080 4243 2953 1503 2054 2051 3852 321 
58 4917 777 2640 718 2910 272 3026 4792 
1983 2231 2369 108 77 2150 5445 3235 4330 
3857 4259 5236 2479 1890 2019 542 3953 3902 
3363 3941 3458 1625 3733 632 2992 2698 3769 
3724 2378 4232 3132 1479 2811 835 2856 685 
2681 2394 2347 3655 3767 735 46 111 3639 
2547 51 4985 3122 973 176 3964 2487 945 
3914 5235 80 3077 3591 1915 261 3618 3027 
4874 277 4083 1032 577 1434 1404 1592 190 
2322 1548 1928 1213 70 447 1224 2063 1100 
2653 1754 2532 1289 820 3452 4055 5802 5121 
24 5070 4398 4342 5965 1312 4081 1275 3824 
2343 6024 2964 5769 4244 4931 4049 4338 5788 
794 3477 5630 429 2000 294 1990 1922 2237 
960 1733 2192 1827 2277 1947 1181 570 493 
2457 1197 543 1383 172 1393 1193 7 804 
755 670 561 1735 589 3011 179 991 415 
588 1452 600 784 839 2074 761 1067 1899 
1280 351 363 109 185 219 201 1061 382 
2752 974 780 460 962 97 405 613 8 
827 59 1205 1253 1804 1532 936 557 1797 
1029 1638 627 2426 3757 980 596 3755 3215 
3232 4920 2518 2304 3476 1464 2923 1499 1985 
5537 4204 4824 3903 3263 3171 2908 220 4944 
4329 4923 3541 5753 5362 5830 5651 4289 5488 
5022 2722 5806 5551 4497 3870 5756 5722 5729 
3956 2007 336 2491 2410 2149 1345 4046 1574 
2877 657 2173 930 3066 1810 1254 707 3229 
1710 1366 2233 2018 2340 128 1641 1358 1085 
56 883 752 897 1090 103 1235 2050 989 
1157 262 2060 404 1156 829 808 112 168 
779 154 578 764 1266 1101 253 836 1169 
914 3206 665 959 2551 1094 1896 82 2396 
1117 1821 1862 2411 2364 3689 1414 4650 2544 
2946 4070 4964 4715 5810 4916 4065 2978 6062 
5476 4162 4072 5518 4783 4934 5587 3440 3535 
5330 4843 5582 4675 5242 5850 5703 5323 3906 
2333 5933 5143 2938 4694 4557 5011 5683 2165 
5004 5403 5112 5439 5836 2387 3128 3446 2738 
4940 4254 2881 2870 1953 3641 1945 2023 2606 
2744 3939 3685 2977 2391 1598 651 206 1258 
567 1551 1175 442 1590 2296 430 731 1234 
1158 655 1048 1329 1643 439 21 539 892 
1173 534 1185 1260 2294 1497 2826 933 3002 
2690 1581 3430 4043 1904 2210 3256 3510 4001 
5954 1964 4911 2893 4181 5172 4301 5519 4506 
6055 3640 4772 5047 3946 3307 2845 6056 3046 
4763 5974 4972 5254 5092 4194 6061 2029 264 
5164 3044 2180 3015 4845 3990 5257 5214 3940 
3589 5817 5958 5301 5544 4431 4997 5501 4324 
3664 4710 3153 3542 3246 3366 3599 2965 3837 
4155 3583 3410 4946 3173 3806 3501 3165 2983 
1012 800 2052 1723 5386 2993 4549 2032 3895 
1395 2766 1432 3885 3489 1422 273 2610 1127 
2218 4698 2798 4200 2373 3619 3646 3076 2828 
4396 5195 4520 5644 4724 3705 599 3190 2660 
4113 4504 2986 5720 2634 2947 4661 4230 3876 
5798 5818 5479 4275 5585 4757 4552 5443 3928 
4435 4247 5275 2507 5239 3711 2804 5337 4479 
4735 4601 4287 3096 4075 4654 5825 4522 4564 
4112 5622 1920 5405 1717 4835 2288 5183 5547 
4152 4341 2835 3511 3910 6002 2076 4603 4613 
3279 3292 5637 3037 1018 3678 4261 5091 2110 
3721 3934 5264 2608 1049 4508 4891 4793 5945 
1856 4844 5937 5930 5130 3164 5576 5745 4529 
5253 4379 5283 4676 5771 5877 5648 2092 3924 
5942 3063 5590 1504 5661 5961 3060 3352 4991 
4788 3078 5790 6051 5334 5627 4941 4444 5997 
5629 5228 4660 5054 4207 2223 2041 4812 5786 
4037 4555 5847 3897 1877 4670 3450 2044 1569 
4146 3679 5725 1545 3234 2276 386 5357 6044 
4213 4273 4796 5428 4677 4160 3612 5394 5657 
5276 3788 2295 3145 2541 4937 5148 4414 2084 
5879 3884 4054 5793 4838 4071 4548 2674 5747 
3474 5444 4423 5401 5247 746 5869 3792 3713 
1110 4578 5063 3736 3633 5792 709 3559 6013 
5801 1692 5350 1999 4183 2970 2413 5340 4090 
6009 1954 2168 3301 2792 2533 2763 5667 1227 
1089 5233 2669 1836 4624 4454 5870 1656 4177 
5293 1411 4299 5530 3042 3280 3225 4010 4877 
1946 3786 2813 4729 1740 5770 3550 4022 3840 
3844 5361 3814 2520 2595 2714 5359 5972 5626 
1521 4826 4406 5051 2890 4116 3112 2702 4340 
5410 3319 4766 5527 1183 1977 5215 5016 4790 
2581 1007 3018 2137 3864 2715 1613 4296 5741 
4716 3717 2285 2858 4059 739 2128 2408 5702 
1296 813 2278 5 3538 5713 1489 3485 159 
3867 6003 5762 4189 5845 3784 3543 4372 5336 
5912 5080 4572 3203 3774 5398 5990 5250 5077 
4609 3773 5178 5927 5409 4295 3947 4756 4500 
3138 3671 2782 5316 4409 2158 5552 5045 5377 
2208 2866 4366 6020 4869 5307 3250 4803 5461 
5903 5902 3603 4977 3783 3072 5744 3955 4858 
5708 3803 1808 4836 5971 195 5867 2178 5258 
1256 4563 3417 5953 3965 3987 5889 3506 1431 
2872 1506 3217 1566 3284 878 2466 5295 3596 
1346 5068 5675 4733 5378 1513 4546 2376 1900 
2498 3832 3445 5814 1610 1217 5332 5838 1784 
594 5191 6066 3720 2855 2621 4305 158 3504 
4554 3981 3374 3475 4440 5859 497 4541 2749 
4973 4033 6058 3134 3819 5914 5938 4364 5849 
3412 4111 5736 3141 5712 2827 4811 4271 3361 
4831 4099 3009 3927 5219 5256 5964 2131 5858 
5673 3555 3748 4167 4437 4847 5682 5199 4659 
2694 5840 4527 4420 2803 953 3727 3213 4378 
4003 3033 4540 1813 1688 2079 4426 4219 1035 
3392 703 2384 5494 1474 3716 3111 4014 93 
4819 4023 884 5008 3610 1938 4208 4841 3565 
1415 5088 4538 2005 3377 4472 1377 1461 407 
2451 3856 2846 2353 2380 3283 2919 978 3794 
3509 2187 4133 1705 1998 2049 2617 3975 2485 
1806 3451 4143 3861 2772 2495 2882 3670 2112 
1748 3424 1498 4663 4846 1664 1775 1379 2627 
802 2848 772 5522 2065 2323 4063 230 4930 
4530 992 1841 5345 5723 3465 2449 1555 4285 
1292 3770 1198 2055 2997 3372 860 416 3772 
169 1629 1298 1170 509 861 939 2219 875 
787 733 2678 33 180 2163 4343 4274 2817 
1443 2440 334 1153 1830 941 3282 4767 5309 
4751 1079 3448 4589 3247 1794 1176 3972 2926 
4428 2684 1926 1492 315 1204 101 1647 2538 
2644 1360 42 1245 711 2038 700 2891 965 
1004 2435 2721 481 1869 2093 584 14 320 
1342 1971 2070 547 1238 2003 1676 2502 1231 
1301 276 1583 955 1290 782 911 1036 4 
1151 1270 968 449 2648 469 1057 423 398 
213 821 2773 1781 1897 138 346 847 1500 
125 814 187 271 783 1669 775 1854 3467 
4144 140 604 1033 6049 2935 5612 1987 4356 
3921 2563 2829 6018 4225 4974 4588 4523 5002 
4856 3718 1160 3607 2297 1746 971 1482 2700 
1924 4125 1739 3085 2127 2335 3231 2248 3473 
2228 3100 3119 1616 1348 263 1911 1559 2028 
1134 716 1161 1786 1244 349 759 1276 793 
1252 1131 1634 803 689 714 340 419 873 
269 488 633 1321 53 2048 653 2455 295 
1332 391 2862 541 1107 3563 2849 3686 2354 
2238 3163 2027 3976 2957 3951 3644 4117 2374 
4895 3817 458 5866 3700 1026 5955 3593 1752 
4413 1753 4193 5807 6038 3871 5457 5344 1602 
5774 954 3289 2405 5467 5435 4542 1209 3638 
2469 3745 3048 4005 1716 2611 4053 3251 3065 
2620 3257 2181 3838 3309 1448 2561 1273 769 
1620 833 2696 369 771 1734 1703 1412 1427 
815 1444 975 110 535 450 246 144 915 
501 2619 697 3095 845 1700 1719 2526 2441 
3070 3117 2546 1933 2713 2424 2854 4637 2140 
2592 4008 5779 5427 5339 232 5887 4550 1993 
4142 2885 2841 2201 4494 3205 1309 5613 2525 
5906 3429 4797 5466 1207 1008 4505 4168 5089 
5353 5642 4833 5704 2559 3659 3617 3636 4608 
4528 4507 4559 3652 3151 3999 4091 3750 4691 
2481 1124 3240 2006 763 3193 87 2865 1524 
1603 1858 2756 3811 593 1973 1577 4316 2985 
3168 1106 1783 5901 2570 2991 2465 3339 816 
5697 1868 3537 1682 2305 2275 5796 956 1608 
4897 5520 3657 4987 3701 2357 751 1918 4912 
4947 4950 1190 4623 3294 2155 4786 2734 5595 
2348 1780 5594 2806 5888 2269 5666 3024 4076 